
Running Job 1 of 1 qcts1.in
qchem qcts1.in_2945.0 ./qcts1.d/ 1
/home/leeping/opt/qchem/5.0.2-openmp/exe/qcprog.exe_s qcts1.in_2945.0 ./qcts1.d/
Check license passed

                  Welcome to Q-Chem
     A Quantum Leap Into The Future Of Chemistry


 Q-Chem 5.0, Q-Chem, Inc., Pleasanton, CA (2017)

 Yihan Shao,  Zhengting Gan,  E. Epifanovsky,  A. T. B. Gilbert,  M. Wormit,  
 J. Kussmann,  A. W. Lange,  A. Behn,  Jia Deng,  Xintian Feng,  D. Ghosh,  
 M. Goldey,  P. R. Horn,  L. D. Jacobson,  I. Kaliman,  T. Kus,  A. Landau,  
 Jie Liu,  E. I. Proynov,  R. M. Richard,  R. P. Steele,  E. J. Sundstrom,  
 H. L. Woodcock III,  P. M. Zimmerman,  D. Zuev,  B. Albrecht,  E. Alguire,  
 S. A. Baeppler,  D. Barton,  Z. Benda,  Y. A. Bernard,  E. J. Berquist,  
 K. B. Bravaya,  H. Burton,  D. Casanova,  Chun-Min Chang,  Yunqing Chen,  
 A. Chien,  K. D. Closser,  M. P. Coons,  S. Dasgupta,  A. L. Dempwolff,  
 M. Diedenhofen,  Hainam Do,  R. G. Edgar,  Po-Tung Fang,  S. Fatehi,  
 Qingguo Feng,  J. Fosso-Tande,  Qinghui Ge,  A. Ghysels,  G. Gidofalvi,  
 J. Gomes,  J. Gonthier,  A. Gunina,  M. W. D. Hanson-Heine,  
 P. H. P. Harbach,  A. W. Hauser,  J. E. Herr,  E. G. Hohenstein,  
 Z. C. Holden,  Kerwin Hui,  T.-C. Jagau,  Hyunjun Ji,  B. Kaduk,  
 K. Khistyaev,  Jaehoon Kim,  P. Klunzinger,  K. Koh,  D. Kosenkov,  
 L. Koulias,  T. Kowalczyk,  C. M. Krauter,  A. Kunitsa,  Ka Un Lao,  
 A. Laurent,  K. V. Lawler,  Joonho Lee,  D. Lefrancois,  S. Lehtola,  
 D. S. Levine,  Yi-Pei Li,  You-Sheng Lin,  Fenglai Liu,  E. Livshits,  
 A. Luenser,  P. Manohar,  E. Mansoor,  S. F. Manzer,  Shan-Ping Mao,  
 Yuezhi Mao,  N. Mardirossian,  A. V. Marenich,  T. Markovich,  
 L. A. Martinez-Martinez,  S. A. Maurer,  N. J. Mayhall,  S. C. McKenzie,  
 J.-M. Mewes,  A. F. Morrison,  J. W. Mullinax,  K. Nanda,  
 T. S. Nguyen-Beck,  R. Olivares-Amaya,  J. A. Parkhill,  T. M. Perrine,  
 F. Plasser,  S. Prager,  A. Prociuk,  E. Ramos,  D. R. Rehn,  F. Rob,  
 M. Schneider,  N. Sergueev,  S. M. Sharada,  S. Sharma,  D. W. Small,  
 T. Stauch,  T. Stein,  Yu-Chuan Su,  A. J. W. Thom,  A. Tkatchenko,  
 T. Tsuchimochi,  L. Vogt,  O. Vydrov,  M. A. Watson,  J. Wenzel,  
 M. de Wergifosse,  T. A. Wesolowski,  A. White,  J. Witte,  A. Yamada,  
 Jun Yang,  K. Yao,  S. Yeganeh,  S. R. Yost,  Zhi-Qiang You,  A. Zech,  
 Igor Ying Zhang,  Xing Zhang,  Yan Zhao,  Ying Zhu,  B. R. Brooks,  
 G. K. L. Chan,  C. J. Cramer,  M. S. Gordon,  W. J. Hehre,  A. Klamt,  
 M. W. Schmidt,  C. D. Sherrill,  D. G. Truhlar,  A. Aspuru-Guzik,  R. Baer,  
 A. T. Bell,  N. A. Besley,  Jeng-Da Chai,  R. A. DiStasio Jr.,  A. Dreuw,  
 B. D. Dunietz,  T. R. Furlani,  Chao-Ping Hsu,  Yousung Jung,  Jing Kong,  
 D. S. Lambrecht,  WanZhen Liang,  C. Ochsenfeld,  V. A. Rassolov,  
 L. V. Slipchenko,  J. E. Subotnik,  T. Van Voorhis,  J. M. Herbert,  
 A. I. Krylov,  P. M. W. Gill,  M. Head-Gordon

 Contributors to earlier versions of Q-Chem not listed above: 
 R. D. Adamson,  B. Austin,  J. Baker,  G. J. O. Beran,  K. Brandhorst,  
 S. T. Brown,  E. F. C. Byrd,  A. K. Chakraborty,  C.-L. Cheng,  
 Siu Hung Chien,  D. M. Chipman,  D. L. Crittenden,  H. Dachsel,  
 R. J. Doerksen,  A. D. Dutoi,  L. Fusti-Molnar,  W. A. Goddard III,  
 A. Golubeva-Zadorozhnaya,  S. R. Gwaltney,  G. Hawkins,  A. Heyden,  
 S. Hirata,  G. Kedziora,  F. J. Keil,  C. Kelley,  Jihan Kim,  R. A. King,  
 R. Z. Khaliullin,  P. P. Korambath,  W. Kurlancheek,  A. M. Lee,  M. S. Lee,  
 S. V. Levchenko,  Ching Yeh Lin,  D. Liotard,  R. C. Lochan,  I. Lotan,  
 P. E. Maslen,  N. Nair,  D. P. O'Neill,  D. Neuhauser,  E. Neuscamman,  
 C. M. Oana,  R. Olson,  B. Peters,  R. Peverati,  P. A. Pieniazek,  
 Y. M. Rhee,  J. Ritchie,  M. A. Rohrdanz,  E. Rosta,  N. J. Russ,  
 H. F. Schaefer III,  N. E. Schultz,  N. Shenvi,  A. C. Simmonett,  A. Sodt,  
 D. Stuck,  K. S. Thanthiriwatte,  V. Vanovschi,  Tao Wang,  A. Warshel,  
 C. F. Williams,  Q. Wu,  X. Xu,  W. Zhang

 Please cite Q-Chem as follows:
 Y. Shao et al., Mol. Phys. 113, 184-215 (2015)
 DOI: 10.1080/00268976.2014.952696

 Q-Chem 5.0.2 for Intel X86 EM64T Linux

 Parts of Q-Chem use Armadillo 5.200.1 (Boston Tea Smuggler).
 http://arma.sourceforge.net/

 Q-Chem begins on Fri Mar  4 12:26:37 2022  

Host: 
0

     Scratch files written to ./qcts1.d//
 Dec517 15110_ 26548  26544 5633   
Processing $rem in /home/leeping/opt/qchem/5.0.2-openmp/config/preferences.
 MEM_STATIC 2000
 MEM_TOTAL  8000
 SYMMETRY   OFF
 SYM_IGNORE TRUE 

Checking the input file for inconsistencies... 	...done.

--------------------------------------------------------------
User input:
--------------------------------------------------------------
$molecule
0 2
C        1.1448619693    0.2990204162    0.3318043357
C        0.7015740380   -1.0530624457   -0.2849181546
C       -0.6006330937   -1.1336764146   -0.8281514810
C       -1.1225918345    0.2586374771    0.1745699249
C       -0.5028003934    1.4800157619   -0.4267679966
N        0.7877521199    1.4829284343   -0.3928005104
H        2.1150813374    0.2901460171    0.8052963072
H        1.5469438729   -1.6940171163   -0.5365776852
H       -0.8251969367   -1.7653182510   -1.7139319785
H       -2.1218070397    0.4374985998    0.6211094714
H       -1.0314989926    2.3190617285   -0.8968015336
C       -0.0165339895   -0.2528354337    1.0686326778
H       -0.1185237522   -0.6966530407    2.0474926599
$end

$rem
method                b3lyp
basis                 6-31g(d)
unrestricted          true
symmetry              off
sym_ignore            true
incdft                false
incfock               0
scf_convergence       8
thresh                14
jobtype               ts
scf_guess             read
scf_algorithm         diis
max_scf_cycles        100
geom_opt_max_cycles   500
geom_opt_dmax         100
geom_opt_tol_gradient 10
geom_opt_hessian      read
$end

--------------------------------------------------------------
 ----------------------------------------------------------------
             Standard Nuclear Orientation (Angstroms)
    I     Atom           X                Y                Z
 ----------------------------------------------------------------
    1      C       1.1448619693     0.2990204162     0.3318043357
    2      C       0.7015740380    -1.0530624457    -0.2849181546
    3      C      -0.6006330937    -1.1336764146    -0.8281514810
    4      C      -1.1225918345     0.2586374771     0.1745699249
    5      C      -0.5028003934     1.4800157619    -0.4267679966
    6      N       0.7877521199     1.4829284343    -0.3928005104
    7      H       2.1150813374     0.2901460171     0.8052963072
    8      H       1.5469438729    -1.6940171163    -0.5365776852
    9      H      -0.8251969367    -1.7653182510    -1.7139319785
   10      H      -2.1218070397     0.4374985998     0.6211094714
   11      H      -1.0314989926     2.3190617285    -0.8968015336
   12      C      -0.0165339895    -0.2528354337     1.0686326778
   13      H      -0.1185237522    -0.6966530407     2.0474926599
 ----------------------------------------------------------------
 Nuclear Repulsion Energy =   278.6418483130 hartrees
 There are       25 alpha and       24 beta electrons
 Requested basis set is 6-31G(d)
 There are 40 shells and 117 basis functions

 Total QAlloc Memory Limit   8000 MB
 Mega-Array Size      1956 MB
 MEM_STATIC part      2000 MB
 A cutoff of  1.0D-14 yielded    813 shell pairs
 There are      7085 function pairs
 
 -------------------------------------------------------
 OpenMP Integral Computing Module                       
 Release: version 1.0, May 2013, Q-Chem Inc. Pittsburgh 
 -------------------------------------------------------
 Integral Job Info:
 Integral job number is                      11
 Integral operator is                         1
 short-range coefficients                     0
 long-range coefficients              100000000
 Omega coefficients                           0
 if combine SR and LR in K                    0
 Integral screening is                        0
 Integral computing path is                   2
 max size of driver memory is            800000
 size of driver memory is                593474
 size of scratch memory is              2361544
 max col of scratch BK array               1296
 max len of scratch array in speh3          155
 max len of scratch index in speh4           18
 max int batch size is                      520
 min int batch size is                       52
 fixed nKL is                                52
 max L of basis functions is                  2
 order of int derivative is                   0
 number of shells is                         40
 number of basis is                         117
 number of cartesian basis is               117
 number of contracted shell pairs           813
 number of primitive shell pairs           3586
 maxK2 (contraction) of shell pair           36
 max number of K2 of shell pair               1
 max number of CS2 of shell pair             84
 max number of PS2 of shell pair            378
 mem total for path MDJ                  535308
 -------------------------------------------------------
 Smallest overlap matrix eigenvalue = 1.90E-03

 Scale SEOQF with 1.000000e-01/1.000000e-01/1.000000e-01

 Standard Electronic Orientation quadrupole field applied
 Nucleus-field energy     =     0.0000000029 hartrees
 Guess MOs from SCF MO coefficient file
 Reading MOs from coefficient file
 Reading MOs from coefficient file
 An unrestricted hybrid HF-DFT SCF calculation will be
 performed using Pulay DIIS extrapolation
 Exchange:     0.2000 Hartree-Fock + 0.0800 Slater + 0.7200 B88
 Correlation:  0.1900 VWN1RPA + 0.8100 LYP
 Using SG-1 standard quadrature grid
 SCF converges when DIIS error is below 1.0E-08
Using Q-Chem read-in guess as SCF_GUESS READ specified.

 using 4 threads for integral computing
 -------------------------------------------------------
 OpenMP Integral computing Module                
 Release: version 1.0, May 2013, Q-Chem Inc. Pittsburgh 
 -------------------------------------------------------
 -------------------------------------------------------
 OpenMP BLAS3 based DFT computing Module                
 Release: version 1.0, May 2013, Q-Chem Inc. Pittsburgh 
 -------------------------------------------------------
 ---------------------------------------
  Cycle       Energy         DIIS Error
 ---------------------------------------
    1    -286.7943188305      6.28E-10
    2    -286.7943188305      9.06E-10 Convergence criterion met
 ---------------------------------------
 <S^2> = 0.7649
 SCF time:  CPU 4.83 s  wall 1.23 s
 SCF   energy in the final basis set = -286.79431883
 Total energy in the final basis set = -286.79431883
 
 --------------------------------------------------------------
 
                    Orbital Energies (a.u.)
 --------------------------------------------------------------
 
 Alpha MOs
 -- Occupied --
-14.316 -10.225 -10.224 -10.220 -10.217 -10.216 -10.214  -0.963
 -0.839  -0.734  -0.692  -0.590  -0.580  -0.536  -0.513  -0.462
 -0.425  -0.407  -0.398  -0.373  -0.330  -0.289  -0.269  -0.264
 -0.157
 -- Virtual --
 -0.008   0.034   0.087   0.098   0.139   0.151   0.155   0.165
  0.173   0.193   0.214   0.266   0.288   0.298   0.346   0.397
  0.499   0.503   0.512   0.531   0.567   0.579   0.591   0.600
  0.629   0.651   0.663   0.682   0.696   0.735   0.768   0.786
  0.807   0.824   0.828   0.838   0.862   0.893   0.908   0.919
  0.965   0.989   1.053   1.083   1.162   1.248   1.276   1.367
  1.409   1.450   1.476   1.516   1.576   1.585   1.639   1.685
  1.738   1.830   1.850   1.870   1.918   1.958   1.996   2.038
  2.057   2.124   2.164   2.205   2.240   2.287   2.321   2.350
  2.434   2.464   2.495   2.539   2.548   2.589   2.653   2.676
  2.693   2.783   2.804   2.908   2.972   3.950   4.121   4.244
  4.318   4.411   4.522   4.568
 
 Beta MOs
 -- Occupied --
-14.315 -10.226 -10.223 -10.217 -10.217 -10.215 -10.202  -0.959
 -0.832  -0.732  -0.679  -0.584  -0.574  -0.531  -0.508  -0.454
 -0.421  -0.402  -0.396  -0.369  -0.317  -0.279  -0.263  -0.254
 -- Virtual --
 -0.043   0.007   0.042   0.096   0.107   0.143   0.154   0.157
  0.169   0.177   0.195   0.217   0.268   0.291   0.301   0.355
  0.400   0.505   0.508   0.520   0.547   0.569   0.584   0.596
  0.601   0.633   0.669   0.672   0.688   0.703   0.739   0.773
  0.789   0.809   0.825   0.832   0.843   0.867   0.895   0.910
  0.924   0.969   0.991   1.058   1.097   1.166   1.252   1.281
  1.371   1.414   1.459   1.482   1.525   1.581   1.598   1.645
  1.694   1.747   1.835   1.857   1.876   1.928   1.970   2.007
  2.044   2.070   2.130   2.168   2.212   2.256   2.299   2.328
  2.358   2.447   2.470   2.500   2.545   2.555   2.594   2.661
  2.680   2.696   2.786   2.811   2.910   2.974   3.951   4.136
  4.248   4.329   4.412   4.525   4.572
 --------------------------------------------------------------
 
          Ground-State Mulliken Net Atomic Charges

     Atom                 Charge (a.u.)    Spin (a.u.)
  --------------------------------------------------------
      1 C                     0.003550       0.037486
      2 C                    -0.166433      -0.147812
      3 C                    -0.101729       0.795388
      4 C                    -0.255210      -0.074575
      5 C                     0.084997       0.043447
      6 N                    -0.340229       0.025072
      7 H                     0.149626       0.004176
      8 H                     0.156359       0.005485
      9 H                     0.137324       0.003378
     10 H                     0.142548       0.006326
     11 H                     0.142782      -0.001145
     12 C                    -0.117621       0.316446
     13 H                     0.164038      -0.013670
  --------------------------------------------------------
  Sum of atomic charges =    -0.000000
  Sum of spin   charges =     1.000000

 -----------------------------------------------------------------
                    Cartesian Multipole Moments
 -----------------------------------------------------------------
    Charge (ESU x 10^10)
                -0.0000
    Dipole Moment (Debye)
         X      -0.7819      Y      -1.4334      Z       1.1147
       Tot       1.9770
    Quadrupole Moments (Debye-Ang)
        XX     -39.0373     XY      -5.2784     YY     -43.0567
        XZ       1.1807     YZ       1.2805     ZZ     -39.3414
    Octopole Moments (Debye-Ang^2)
       XXX      -3.1124    XXY      -6.4354    XYY      -7.8569
       YYY     -18.1858    XXZ       5.3697    XYZ       2.8529
       YYZ      -0.8502    XZZ      -3.6461    YZZ      -9.2937
       ZZZ       9.0370
    Hexadecapole Moments (Debye-Ang^3)
      XXXX    -217.9909   XXXY     -10.8307   XXYY     -93.3445
      XYYY     -20.6004   YYYY    -322.4547   XXXZ      -8.5358
      XXYZ       3.9164   XYYZ       2.9899   YYYZ       3.8876
      XXZZ     -63.0906   XYZZ      -0.6387   YYZZ     -73.0718
      XZZZ      -7.9872   YZZZ      -0.1081   ZZZZ    -147.1083
 -----------------------------------------------------------------
 Calculating analytic gradient of the SCF energy
 Gradient of SCF Energy
            1           2           3           4           5           6
    1   0.0019240   0.0008687   0.0071091   0.0038085  -0.0067030   0.0039914
    2  -0.0003951  -0.0099287  -0.0208598   0.0217069  -0.0064764  -0.0058448
    3  -0.0020813  -0.0036033  -0.0078921   0.0130546   0.0060325  -0.0051949
            7           8           9          10          11          12
    1  -0.0070092   0.0064103   0.0100369  -0.0049306   0.0013142  -0.0135691
    2   0.0014405   0.0097354  -0.0161512   0.0170941   0.0093485   0.0010897
    3   0.0026495  -0.0091991  -0.0063773   0.0136164   0.0010039   0.0008948
           13
    1  -0.0032511
    2  -0.0007593
    3  -0.0029036
 Max gradient component =       2.171E-02
 RMS gradient           =       8.776E-03
 Gradient time:  CPU 7.79 s  wall 2.08 s
 Geometry Optimization Parameters
   NAtoms,    NIC,     NZ,  NCons,   NDum,   NFix, NCnnct, MaxDiis
       13     128       0       0       0       0       0       0

 Cartesian Hessian read from HESS file


** GEOMETRY OPTIMIZATION IN DELOCALIZED INTERNAL COORDINATES **
   Searching for a Transition State

   Optimization Cycle:   1

                       Coordinates (Angstroms)
     ATOM                X               Y               Z
      1  C         1.1448619693    0.2990204162    0.3318043357
      2  C         0.7015740380   -1.0530624457   -0.2849181546
      3  C        -0.6006330937   -1.1336764146   -0.8281514810
      4  C        -1.1225918345    0.2586374771    0.1745699249
      5  C        -0.5028003934    1.4800157619   -0.4267679966
      6  N         0.7877521199    1.4829284343   -0.3928005104
      7  H         2.1150813374    0.2901460171    0.8052963072
      8  H         1.5469438729   -1.6940171163   -0.5365776852
      9  H        -0.8251969367   -1.7653182510   -1.7139319785
     10  H        -2.1218070397    0.4374985998    0.6211094714
     11  H        -1.0314989926    2.3190617285   -0.8968015336
     12  C        -0.0165339895   -0.2528354337    1.0686326778
     13  H        -0.1185237522   -0.6966530407    2.0474926599
   Point Group: c1    Number of degrees of freedom:    33


   Energy is   -286.794318830


 Attempting to Generate Delocalized Internal Coordinates

 Transforming Cartesian Hessian to Internal Coordinates
 Hessian Transformation does not Include Derivative of B-matrix

 33 Hessian modes will be used to form the next step
  Hessian Eigenvalues:
    -0.026309   -0.000730    0.005351    0.007155    0.009272    0.016614
     0.019489    0.026987    0.030155    0.035112    0.036107    0.040524
     0.043142    0.044968    0.065453    0.074923    0.090762    0.117351
     0.120555    0.135342    0.147361    0.173333    0.221428    0.278564
     0.305800    0.315002    0.317646    0.334967    0.342836    0.352303
     0.374857    0.377282    0.559761
**WARNING** Hessian does not have the Desired Local Structure

 Transition State Search - Taking P-RFO Step
 Searching for Lamda that Maximizes Along the Lowest mode
 Value Taken    Lamda =   0.02440512
 Searching for Lamda that Minimizes Along All other modes
 Value Taken    Lamda =  -0.03767318
 Calculated Step too Large.  Step scaled by  0.089600
 Step Taken.  Stepsize is  0.100000

                             Maximum     Tolerance    Cnvgd?
         Gradient           0.033026      0.000010      NO
         Displacement       0.042505      0.001200      NO
         Energy change     *********      0.000001      NO


 New Cartesian Coordinates Obtained by Inverse Iteration

 Displacement from previous Coordinates is:  0.080768
 ----------------------------------------------------------------
             Standard Nuclear Orientation (Angstroms)
    I     Atom           X                Y                Z
 ----------------------------------------------------------------
    1      C       1.1441153170     0.2936975610     0.3364053197
    2      C       0.7074944595    -1.0505204494    -0.2947011002
    3      C      -0.5981533486    -1.1289543458    -0.8211416949
    4      C      -1.1212500530     0.2561600021     0.1753848807
    5      C      -0.5002862476     1.4768146368    -0.4280096997
    6      N       0.7897981851     1.4800697547    -0.3908375634
    7      H       2.1155396885     0.2844852711     0.8089215750
    8      H       1.5504449351    -1.6912343167    -0.5559130378
    9      H      -0.8337906672    -1.7535985633    -1.7064665109
   10      H      -2.1245219563     0.4244085357     0.6112429672
   11      H      -1.0302288326     2.3111115203    -0.9031925188
   12      C      -0.0203609338    -0.2423324199     1.0797563912
   13      H      -0.1221732408    -0.6883614537     2.0575070291
 ----------------------------------------------------------------
 Nuclear Repulsion Energy =   278.6976703920 hartrees
 There are       25 alpha and       24 beta electrons
 Applying Cartesian multipole field
    Component          Value
    ---------          -----
     (2,0,0)        1.00000E-11
     (0,2,0)        2.00000E-11
     (0,0,2)       -3.00000E-11
 Nucleus-field energy     =     0.0000000029 hartrees
 Requested basis set is 6-31G(d)
 There are 40 shells and 117 basis functions
 A cutoff of  1.0D-14 yielded    813 shell pairs
 There are      7085 function pairs
 Smallest overlap matrix eigenvalue = 1.87E-03
 Guess MOs from SCF MO coefficient file
 Reading MOs from coefficient file
 Reading MOs from coefficient file
 An unrestricted hybrid HF-DFT SCF calculation will be
 performed using Pulay DIIS extrapolation
 Exchange:     0.2000 Hartree-Fock + 0.0800 Slater + 0.7200 B88
 Correlation:  0.1900 VWN1RPA + 0.8100 LYP
 Using SG-1 standard quadrature grid
 SCF converges when DIIS error is below 1.0E-08
 Geometry optimization detected.  Setting ReadMinima to 0
 Setting SaveMinima to 0
Using Q-Chem read-in guess as SCF_GUESS READ specified.

 using 4 threads for integral computing
 -------------------------------------------------------
 OpenMP Integral computing Module                
 Release: version 1.0, May 2013, Q-Chem Inc. Pittsburgh 
 -------------------------------------------------------
 -------------------------------------------------------
 OpenMP BLAS3 based DFT computing Module                
 Release: version 1.0, May 2013, Q-Chem Inc. Pittsburgh 
 -------------------------------------------------------
 ---------------------------------------
  Cycle       Energy         DIIS Error
 ---------------------------------------
    1    -286.7968087238      6.93E-04
    2    -286.7954700217      1.25E-04
    3    -286.7954610168      1.84E-04
    4    -286.7955213869      4.53E-05
    5    -286.7955264143      1.63E-05
    6    -286.7955279995      5.93E-06
    7    -286.7955290471      3.18E-06
    8    -286.7955292353      1.45E-06
    9    -286.7955292899      7.42E-07
   10    -286.7955292969      2.78E-07
   11    -286.7955292980      5.76E-08
   12    -286.7955292984      3.29E-08
   13    -286.7955292985      1.58E-08
   14    -286.7955292986      6.77E-09 Convergence criterion met
 ---------------------------------------
 <S^2> = 0.7668
 SCF time:  CPU 34.28 s  wall 9.29 s
 SCF   energy in the final basis set = -286.79552930
 Total energy in the final basis set = -286.79552930
 
 --------------------------------------------------------------
 
                    Orbital Energies (a.u.)
 --------------------------------------------------------------
 
 Alpha MOs
 -- Occupied --
-14.316 -10.224 -10.224 -10.220 -10.217 -10.216 -10.212  -0.962
 -0.838  -0.734  -0.693  -0.589  -0.580  -0.536  -0.513  -0.462
 -0.425  -0.408  -0.398  -0.373  -0.329  -0.289  -0.269  -0.264
 -0.156
 -- Virtual --
 -0.006   0.029   0.089   0.098   0.138   0.151   0.156   0.166
  0.174   0.194   0.214   0.266   0.289   0.298   0.346   0.396
  0.498   0.503   0.511   0.531   0.568   0.580   0.591   0.600
  0.630   0.651   0.663   0.683   0.695   0.738   0.768   0.786
  0.807   0.825   0.827   0.840   0.862   0.893   0.908   0.920
  0.965   0.989   1.058   1.084   1.158   1.244   1.284   1.359
  1.407   1.449   1.480   1.510   1.577   1.584   1.640   1.688
  1.739   1.826   1.854   1.869   1.921   1.961   1.999   2.044
  2.059   2.125   2.163   2.207   2.238   2.293   2.323   2.346
  2.434   2.465   2.497   2.535   2.548   2.589   2.653   2.678
  2.692   2.787   2.803   2.907   2.971   3.949   4.124   4.246
  4.317   4.409   4.526   4.568
 
 Beta MOs
 -- Occupied --
-14.315 -10.225 -10.223 -10.218 -10.217 -10.214 -10.201  -0.959
 -0.831  -0.732  -0.680  -0.584  -0.574  -0.530  -0.509  -0.454
 -0.421  -0.403  -0.395  -0.369  -0.317  -0.279  -0.264  -0.254
 -- Virtual --
 -0.042   0.008   0.038   0.097   0.108   0.143   0.154   0.158
  0.169   0.177   0.196   0.217   0.269   0.292   0.302   0.355
  0.399   0.505   0.508   0.518   0.546   0.570   0.584   0.596
  0.601   0.635   0.669   0.672   0.689   0.702   0.743   0.773
  0.790   0.809   0.825   0.831   0.844   0.867   0.895   0.910
  0.925   0.969   0.991   1.063   1.097   1.162   1.248   1.289
  1.363   1.411   1.457   1.485   1.520   1.583   1.598   1.647
  1.697   1.747   1.830   1.859   1.875   1.930   1.973   2.010
  2.051   2.071   2.131   2.167   2.213   2.253   2.305   2.330
  2.355   2.447   2.471   2.501   2.542   2.555   2.593   2.660
  2.683   2.696   2.790   2.809   2.908   2.973   3.950   4.139
  4.250   4.328   4.411   4.529   4.571
 --------------------------------------------------------------
 
          Ground-State Mulliken Net Atomic Charges

     Atom                 Charge (a.u.)    Spin (a.u.)
  --------------------------------------------------------
      1 C                     0.002172       0.031674
      2 C                    -0.163966      -0.158354
      3 C                    -0.101654       0.775192
      4 C                    -0.255665      -0.074156
      5 C                     0.085955       0.040187
      6 N                    -0.340233       0.028462
      7 H                     0.149159       0.004263
      8 H                     0.155802       0.006049
      9 H                     0.137142       0.004007
     10 H                     0.142267       0.006271
     11 H                     0.142850      -0.001046
     12 C                    -0.118011       0.353259
     13 H                     0.164182      -0.015808
  --------------------------------------------------------
  Sum of atomic charges =     0.000000
  Sum of spin   charges =     1.000000

 -----------------------------------------------------------------
                    Cartesian Multipole Moments
 -----------------------------------------------------------------
    Charge (ESU x 10^10)
                 0.0000
    Dipole Moment (Debye)
         X      -0.7961      Y      -1.4403      Z       1.0940
       Tot       1.9761
    Quadrupole Moments (Debye-Ang)
        XX     -38.9898     XY      -5.2586     YY     -43.1131
        XZ       1.2080     YZ       1.2466     ZZ     -39.3103
    Octopole Moments (Debye-Ang^2)
       XXX      -3.3825    XXY      -6.5683    XYY      -7.9009
       YYY     -18.1922    XXZ       5.1938    XYZ       2.8805
       YYZ      -0.9401    XZZ      -3.7148    YZZ      -9.3004
       ZZZ       8.8500
    Hexadecapole Moments (Debye-Ang^3)
      XXXX    -217.8821   XXXY     -10.6990   XXYY     -93.0951
      XYYY     -20.4403   YYYY    -320.9106   XXXZ      -8.2299
      XXYZ       3.8998   XYYZ       3.0630   YYYZ       3.6515
      XXZZ     -63.1801   XYZZ      -0.6207   YYZZ     -72.9705
      XZZZ      -7.6909   YZZZ      -0.3984   ZZZZ    -147.7020
 -----------------------------------------------------------------
 Calculating analytic gradient of the SCF energy
 Gradient of SCF Energy
            1           2           3           4           5           6
    1   0.0018199  -0.0000295   0.0066537   0.0030215  -0.0063924   0.0037787
    2   0.0005828  -0.0096423  -0.0212615   0.0225890  -0.0062894  -0.0056508
    3  -0.0017493  -0.0022589  -0.0083599   0.0133520   0.0055193  -0.0049815
            7           8           9          10          11          12
    1  -0.0064902   0.0063009   0.0097591  -0.0043024   0.0012511  -0.0122347
    2   0.0012421   0.0095638  -0.0149582   0.0160120   0.0086772  -0.0004653
    3   0.0025206  -0.0087418  -0.0060372   0.0129158   0.0010273  -0.0006498
           13
    1  -0.0031355
    2  -0.0003993
    3  -0.0025566
 Max gradient component =       2.259E-02
 RMS gradient           =       8.549E-03
 Gradient time:  CPU 7.60 s  wall 2.02 s
 Geometry Optimization Parameters
   NAtoms,    NIC,     NZ,  NCons,   NDum,   NFix, NCnnct, MaxDiis
       13     128       0       0       0       0       0       0

 Cartesian Hessian Update
 Hessian Updated using Powell/Murtagh-Sargent Update
  Mixing factors:     0.816496 Powell
                      0.183504 Murtagh-Sargent


** GEOMETRY OPTIMIZATION IN DELOCALIZED INTERNAL COORDINATES **
   Searching for a Transition State

   Optimization Cycle:   2

                       Coordinates (Angstroms)
     ATOM                X               Y               Z
      1  C         1.1441153170    0.2936975610    0.3364053197
      2  C         0.7074944595   -1.0505204494   -0.2947011002
      3  C        -0.5981533486   -1.1289543458   -0.8211416949
      4  C        -1.1212500530    0.2561600021    0.1753848807
      5  C        -0.5002862476    1.4768146368   -0.4280096997
      6  N         0.7897981851    1.4800697547   -0.3908375634
      7  H         2.1155396885    0.2844852711    0.8089215750
      8  H         1.5504449351   -1.6912343167   -0.5559130378
      9  H        -0.8337906672   -1.7535985633   -1.7064665109
     10  H        -2.1245219563    0.4244085357    0.6112429672
     11  H        -1.0302288326    2.3111115203   -0.9031925188
     12  C        -0.0203609338   -0.2423324199    1.0797563912
     13  H        -0.1221732408   -0.6883614537    2.0575070291
   Point Group: c1    Number of degrees of freedom:    33


   Energy is   -286.795529299

 Hessian Updated using Powell/Murtagh-Sargent Update
  Mixing factors:     0.885559 Powell
                      0.114441 Murtagh-Sargent

 33 Hessian modes will be used to form the next step
  Hessian Eigenvalues:
    -0.028705   -0.000481    0.005609    0.007132    0.009180    0.016584
     0.019434    0.026399    0.030148    0.035074    0.035855    0.040583
     0.043222    0.045216    0.065381    0.074742    0.090730    0.117270
     0.120549    0.135224    0.147343    0.173102    0.221429    0.278521
     0.305694    0.314868    0.317452    0.334962    0.342827    0.352251
     0.374850    0.377278    0.559761
**WARNING** Hessian does not have the Desired Local Structure

 Transition State Search - Taking P-RFO Step
 Searching for Lamda that Maximizes Along the Lowest mode
 Value Taken    Lamda =   0.02050525
 Searching for Lamda that Minimizes Along All other modes
 Value Taken    Lamda =  -0.03814569
 Calculated Step too Large.  Step scaled by  0.091287
 Step Taken.  Stepsize is  0.100000

                             Maximum     Tolerance    Cnvgd?
         Gradient           0.031528      0.000010      NO
         Displacement       0.041329      0.001200      NO
         Energy change     -0.001210      0.000001      NO


 New Cartesian Coordinates Obtained by Inverse Iteration

 Displacement from previous Coordinates is:  0.084702
 ----------------------------------------------------------------
             Standard Nuclear Orientation (Angstroms)
    I     Atom           X                Y                Z
 ----------------------------------------------------------------
    1      C       1.1437253797     0.2882314660     0.3407904158
    2      C       0.7131997800    -1.0482322670    -0.3037289381
    3      C      -0.5954491873    -1.1227237147    -0.8138216826
    4      C      -1.1194936023     0.2522933624     0.1754982503
    5      C      -0.4977333066     1.4731909367    -0.4293624873
    6      N       0.7917347801     1.4773143385    -0.3886342193
    7      H       2.1165467885     0.2790317985     0.8118910868
    8      H       1.5534093574    -1.6887146190    -0.5746076299
    9      H      -0.8435851018    -1.7395346940    -1.6989913528
   10      H      -2.1275748375     0.4098159374     0.5998571491
   11      H      -1.0291394043     2.3026167728    -0.9098321723
   12      C      -0.0233654305    -0.2320630460     1.0914718471
   13      H      -0.1256479101    -0.6794805389     2.0684257703
 ----------------------------------------------------------------
 Nuclear Repulsion Energy =   278.7816914005 hartrees
 There are       25 alpha and       24 beta electrons
 Applying Cartesian multipole field
    Component          Value
    ---------          -----
     (2,0,0)        1.00000E-11
     (0,2,0)        2.00000E-11
     (0,0,2)       -3.00000E-11
 Nucleus-field energy     =     0.0000000028 hartrees
 Requested basis set is 6-31G(d)
 There are 40 shells and 117 basis functions
 A cutoff of  1.0D-14 yielded    813 shell pairs
 There are      7085 function pairs
 Smallest overlap matrix eigenvalue = 1.83E-03
 Guess MOs from SCF MO coefficient file
 Reading MOs from coefficient file
 Reading MOs from coefficient file
 An unrestricted hybrid HF-DFT SCF calculation will be
 performed using Pulay DIIS extrapolation
 Exchange:     0.2000 Hartree-Fock + 0.0800 Slater + 0.7200 B88
 Correlation:  0.1900 VWN1RPA + 0.8100 LYP
 Using SG-1 standard quadrature grid
 SCF converges when DIIS error is below 1.0E-08
 Geometry optimization detected.  Setting ReadMinima to 0
 Setting SaveMinima to 0
Using Q-Chem read-in guess as SCF_GUESS READ specified.

 using 4 threads for integral computing
 -------------------------------------------------------
 OpenMP Integral computing Module                
 Release: version 1.0, May 2013, Q-Chem Inc. Pittsburgh 
 -------------------------------------------------------
 -------------------------------------------------------
 OpenMP BLAS3 based DFT computing Module                
 Release: version 1.0, May 2013, Q-Chem Inc. Pittsburgh 
 -------------------------------------------------------
 ---------------------------------------
  Cycle       Energy         DIIS Error
 ---------------------------------------
    1    -286.7988384056      6.81E-04
    2    -286.7971055699      1.33E-04
    3    -286.7970829777      2.08E-04
    4    -286.7971637958      4.38E-05
    5    -286.7971689474      1.72E-05
    6    -286.7971707843      5.92E-06
    7    -286.7971719602      4.86E-06
    8    -286.7971722301      1.49E-06
    9    -286.7971723057      9.29E-07
   10    -286.7971723158      2.72E-07
   11    -286.7971723171      5.87E-08
   12    -286.7971723175      3.48E-08
   13    -286.7971723176      1.67E-08
   14    -286.7971723177      7.81E-09 Convergence criterion met
 ---------------------------------------
 <S^2> = 0.7692
 SCF time:  CPU 34.16 s  wall 9.21 s
 SCF   energy in the final basis set = -286.79717232
 Total energy in the final basis set = -286.79717232
 
 --------------------------------------------------------------
 
                    Orbital Energies (a.u.)
 --------------------------------------------------------------
 
 Alpha MOs
 -- Occupied --
-14.315 -10.224 -10.223 -10.219 -10.217 -10.216 -10.211  -0.962
 -0.836  -0.734  -0.694  -0.589  -0.579  -0.536  -0.514  -0.462
 -0.425  -0.409  -0.397  -0.374  -0.329  -0.290  -0.269  -0.264
 -0.154
 -- Virtual --
 -0.004   0.024   0.092   0.098   0.138   0.151   0.156   0.166
  0.174   0.194   0.214   0.266   0.290   0.299   0.346   0.395
  0.496   0.503   0.510   0.531   0.569   0.580   0.591   0.601
  0.632   0.651   0.662   0.683   0.695   0.741   0.768   0.787
  0.807   0.825   0.827   0.841   0.862   0.892   0.908   0.922
  0.965   0.989   1.062   1.085   1.154   1.239   1.293   1.350
  1.405   1.448   1.484   1.505   1.578   1.583   1.641   1.691
  1.740   1.821   1.855   1.871   1.923   1.964   2.002   2.049
  2.061   2.125   2.162   2.209   2.237   2.299   2.325   2.343
  2.434   2.466   2.499   2.532   2.548   2.588   2.653   2.680
  2.692   2.791   2.802   2.906   2.970   3.948   4.128   4.249
  4.316   4.407   4.529   4.569
 
 Beta MOs
 -- Occupied --
-14.315 -10.224 -10.223 -10.218 -10.217 -10.213 -10.200  -0.958
 -0.829  -0.732  -0.681  -0.583  -0.573  -0.530  -0.510  -0.455
 -0.421  -0.403  -0.395  -0.370  -0.318  -0.279  -0.264  -0.254
 -- Virtual --
 -0.041   0.010   0.034   0.098   0.109   0.142   0.154   0.158
  0.169   0.178   0.197   0.217   0.269   0.293   0.302   0.355
  0.397   0.504   0.508   0.517   0.546   0.571   0.585   0.597
  0.602   0.637   0.669   0.671   0.689   0.702   0.746   0.773
  0.791   0.809   0.826   0.831   0.845   0.867   0.895   0.910
  0.926   0.970   0.991   1.067   1.098   1.159   1.243   1.298
  1.355   1.409   1.456   1.489   1.515   1.583   1.598   1.648
  1.700   1.748   1.826   1.860   1.877   1.932   1.977   2.013
  2.058   2.071   2.132   2.166   2.216   2.252   2.311   2.332
  2.351   2.446   2.473   2.503   2.539   2.555   2.593   2.660
  2.685   2.695   2.795   2.808   2.907   2.972   3.949   4.142
  4.252   4.328   4.409   4.533   4.572
 --------------------------------------------------------------
 
          Ground-State Mulliken Net Atomic Charges

     Atom                 Charge (a.u.)    Spin (a.u.)
  --------------------------------------------------------
      1 C                     0.000278       0.026153
      2 C                    -0.160835      -0.169502
      3 C                    -0.101347       0.753466
      4 C                    -0.256327      -0.073940
      5 C                     0.086992       0.036608
      6 N                    -0.340063       0.031722
      7 H                     0.148605       0.004358
      8 H                     0.155145       0.006715
      9 H                     0.137140       0.004129
     10 H                     0.141912       0.006299
     11 H                     0.142958      -0.000920
     12 C                    -0.118539       0.393005
     13 H                     0.164082      -0.018092
  --------------------------------------------------------
  Sum of atomic charges =    -0.000000
  Sum of spin   charges =     1.000000

 -----------------------------------------------------------------
                    Cartesian Multipole Moments
 -----------------------------------------------------------------
    Charge (ESU x 10^10)
                -0.0000
    Dipole Moment (Debye)
         X      -0.8154      Y      -1.4486      Z       1.0633
       Tot       1.9733
    Quadrupole Moments (Debye-Ang)
        XX     -38.9383     XY      -5.2295     YY     -43.1651
        XZ       1.2419     YZ       1.2110     ZZ     -39.2836
    Octopole Moments (Debye-Ang^2)
       XXX      -3.6841    XXY      -6.7093    XYY      -7.9582
       YYY     -18.2031    XXZ       4.9943    XYZ       2.9007
       YYZ      -1.0360    XZZ      -3.7942    YZZ      -9.3029
       ZZZ       8.6184
    Hexadecapole Moments (Debye-Ang^3)
      XXXX    -217.7839   XXXY     -10.5461   XXYY     -92.8016
      XYYY     -20.2826   YYYY    -319.1821   XXXZ      -7.9427
      XXYZ       3.8959   XYYZ       3.1277   YYYZ       3.4615
      XXZZ     -63.2759   XYZZ      -0.5977   YYZZ     -72.8490
      XZZZ      -7.4222   YZZZ      -0.6267   ZZZZ    -148.3244
 -----------------------------------------------------------------
 Calculating analytic gradient of the SCF energy
 Gradient of SCF Energy
            1           2           3           4           5           6
    1   0.0016476  -0.0011113   0.0062009   0.0024353  -0.0060833   0.0036035
    2   0.0016992  -0.0092415  -0.0215532   0.0235042  -0.0061323  -0.0054762
    3  -0.0016420  -0.0004275  -0.0086155   0.0134844   0.0050771  -0.0047180
            7           8           9          10          11          12
    1  -0.0059875   0.0061693   0.0094323  -0.0039751   0.0011654  -0.0104482
    2   0.0010419   0.0094293  -0.0138215   0.0149606   0.0080443  -0.0023819
    3   0.0023735  -0.0082137  -0.0059330   0.0122533   0.0009889  -0.0023839
           13
    1  -0.0030490
    2  -0.0000730
    3  -0.0022435
 Max gradient component =       2.350E-02
 RMS gradient           =       8.354E-03
 Gradient time:  CPU 7.98 s  wall 2.03 s
 Geometry Optimization Parameters
   NAtoms,    NIC,     NZ,  NCons,   NDum,   NFix, NCnnct, MaxDiis
       13     128       0       0       0       0       0       0

 Cartesian Hessian Update
 Hessian Updated using Powell/Murtagh-Sargent Update
  Mixing factors:     0.849083 Powell
                      0.150917 Murtagh-Sargent


** GEOMETRY OPTIMIZATION IN DELOCALIZED INTERNAL COORDINATES **
   Searching for a Transition State

   Optimization Cycle:   3

                       Coordinates (Angstroms)
     ATOM                X               Y               Z
      1  C         1.1437253797    0.2882314660    0.3407904158
      2  C         0.7131997800   -1.0482322670   -0.3037289381
      3  C        -0.5954491873   -1.1227237147   -0.8138216826
      4  C        -1.1194936023    0.2522933624    0.1754982503
      5  C        -0.4977333066    1.4731909367   -0.4293624873
      6  N         0.7917347801    1.4773143385   -0.3886342193
      7  H         2.1165467885    0.2790317985    0.8118910868
      8  H         1.5534093574   -1.6887146190   -0.5746076299
      9  H        -0.8435851018   -1.7395346940   -1.6989913528
     10  H        -2.1275748375    0.4098159374    0.5998571491
     11  H        -1.0291394043    2.3026167728   -0.9098321723
     12  C        -0.0233654305   -0.2320630460    1.0914718471
     13  H        -0.1256479101   -0.6794805389    2.0684257703
   Point Group: c1    Number of degrees of freedom:    33


   Energy is   -286.797172318

 Hessian Updated using Powell/Murtagh-Sargent Update
  Mixing factors:     0.675611 Powell
                      0.324389 Murtagh-Sargent

 33 Hessian modes will be used to form the next step
  Hessian Eigenvalues:
    -0.034594   -0.000586    0.005925    0.006907    0.009165    0.016590
     0.019392    0.026359    0.030146    0.034980    0.036089    0.040624
     0.043256    0.045419    0.064961    0.074764    0.090581    0.117251
     0.120565    0.134978    0.147275    0.172900    0.221430    0.278519
     0.305698    0.314772    0.317457    0.334866    0.342807    0.352242
     0.374841    0.377270    0.559756
**WARNING** Hessian does not have the Desired Local Structure

 Transition State Search - Taking P-RFO Step
 Searching for Lamda that Maximizes Along the Lowest mode
 Value Taken    Lamda =   0.01464896
 Searching for Lamda that Minimizes Along All other modes
 Value Taken    Lamda =  -0.03926737
 Calculated Step too Large.  Step scaled by  0.095132
 Step Taken.  Stepsize is  0.100000

                             Maximum     Tolerance    Cnvgd?
         Gradient           0.030124      0.000010      NO
         Displacement       0.041554      0.001200      NO
         Energy change     -0.001643      0.000001      NO


 New Cartesian Coordinates Obtained by Inverse Iteration

 Displacement from previous Coordinates is:  0.092134
 ----------------------------------------------------------------
             Standard Nuclear Orientation (Angstroms)
    I     Atom           X                Y                Z
 ----------------------------------------------------------------
    1      C       1.1440460858     0.2829854853     0.3452443847
    2      C       0.7188640268    -1.0461528127    -0.3117325934
    3      C      -0.5929805250    -1.1135239364    -0.8060661755
    4      C      -1.1171035492     0.2456734459     0.1738856808
    5      C      -0.4951710198     1.4685920788    -0.4315155358
    6      N       0.7933848079     1.4748402138    -0.3862775608
    7      H       2.1181612013     0.2744291268     0.8150947243
    8      H       1.5554965794    -1.6872916865    -0.5920453395
    9      H      -0.8557486096    -1.7209829085    -1.6910074745
   10      H      -2.1297665216     0.3927234105     0.5870975209
   11      H      -1.0284747196     2.2929392641    -0.9171424975
   12      C      -0.0253668741    -0.2226382854     1.1032715787
   13      H      -0.1287135773    -0.6698476627     2.0801493247
 ----------------------------------------------------------------
 Nuclear Repulsion Energy =   278.9268733521 hartrees
 There are       25 alpha and       24 beta electrons
 Applying Cartesian multipole field
    Component          Value
    ---------          -----
     (2,0,0)        1.00000E-11
     (0,2,0)        2.00000E-11
     (0,0,2)       -3.00000E-11
 Nucleus-field energy     =     0.0000000028 hartrees
 Requested basis set is 6-31G(d)
 There are 40 shells and 117 basis functions
 A cutoff of  1.0D-14 yielded    813 shell pairs
 There are      7085 function pairs
 Smallest overlap matrix eigenvalue = 1.79E-03
 Guess MOs from SCF MO coefficient file
 Reading MOs from coefficient file
 Reading MOs from coefficient file
 An unrestricted hybrid HF-DFT SCF calculation will be
 performed using Pulay DIIS extrapolation
 Exchange:     0.2000 Hartree-Fock + 0.0800 Slater + 0.7200 B88
 Correlation:  0.1900 VWN1RPA + 0.8100 LYP
 Using SG-1 standard quadrature grid
 SCF converges when DIIS error is below 1.0E-08
 Geometry optimization detected.  Setting ReadMinima to 0
 Setting SaveMinima to 0
Using Q-Chem read-in guess as SCF_GUESS READ specified.

 using 4 threads for integral computing
 -------------------------------------------------------
 OpenMP Integral computing Module                
 Release: version 1.0, May 2013, Q-Chem Inc. Pittsburgh 
 -------------------------------------------------------
 -------------------------------------------------------
 OpenMP BLAS3 based DFT computing Module                
 Release: version 1.0, May 2013, Q-Chem Inc. Pittsburgh 
 -------------------------------------------------------
 ---------------------------------------
  Cycle       Energy         DIIS Error
 ---------------------------------------
    1    -286.8020667388      6.89E-04
    2    -286.7994517601      1.63E-04
    3    -286.7993898662      2.68E-04
    4    -286.7995287843      4.47E-05
    5    -286.7995339643      2.00E-05
    6    -286.7995360108      6.25E-06
    7    -286.7995371522      6.12E-06
    8    -286.7995375453      1.56E-06
    9    -286.7995376322      1.10E-06
   10    -286.7995376452      2.70E-07
   11    -286.7995376468      7.05E-08
   12    -286.7995376472      3.65E-08
   13    -286.7995376473      1.53E-08
   14    -286.7995376474      7.12E-09 Convergence criterion met
 ---------------------------------------
 <S^2> = 0.7717
 SCF time:  CPU 34.46 s  wall 9.72 s
 SCF   energy in the final basis set = -286.79953765
 Total energy in the final basis set = -286.79953765
 
 --------------------------------------------------------------
 
                    Orbital Energies (a.u.)
 --------------------------------------------------------------
 
 Alpha MOs
 -- Occupied --
-14.315 -10.223 -10.223 -10.219 -10.218 -10.216 -10.210  -0.961
 -0.835  -0.734  -0.694  -0.588  -0.579  -0.536  -0.514  -0.463
 -0.425  -0.409  -0.397  -0.374  -0.330  -0.290  -0.270  -0.264
 -0.153
 -- Virtual --
 -0.001   0.019   0.095   0.098   0.138   0.151   0.157   0.167
  0.174   0.195   0.214   0.267   0.291   0.299   0.346   0.393
  0.495   0.504   0.509   0.531   0.571   0.580   0.592   0.602
  0.633   0.651   0.661   0.684   0.695   0.744   0.768   0.788
  0.807   0.824   0.828   0.842   0.861   0.891   0.907   0.923
  0.966   0.989   1.065   1.087   1.149   1.234   1.303   1.343
  1.405   1.448   1.489   1.502   1.579   1.584   1.642   1.694
  1.741   1.817   1.855   1.875   1.925   1.967   2.004   2.051
  2.066   2.125   2.162   2.212   2.238   2.305   2.327   2.339
  2.434   2.468   2.501   2.531   2.547   2.588   2.653   2.682
  2.691   2.796   2.802   2.904   2.969   3.947   4.133   4.251
  4.316   4.405   4.532   4.572
 
 Beta MOs
 -- Occupied --
-14.315 -10.223 -10.223 -10.218 -10.217 -10.212 -10.199  -0.958
 -0.828  -0.732  -0.681  -0.583  -0.572  -0.530  -0.510  -0.455
 -0.421  -0.404  -0.395  -0.370  -0.319  -0.279  -0.264  -0.253
 -- Virtual --
 -0.041   0.012   0.030   0.099   0.112   0.142   0.154   0.159
  0.169   0.178   0.198   0.217   0.270   0.294   0.303   0.355
  0.396   0.503   0.509   0.516   0.546   0.572   0.585   0.598
  0.602   0.638   0.668   0.671   0.689   0.702   0.749   0.773
  0.792   0.808   0.825   0.831   0.847   0.867   0.894   0.909
  0.928   0.970   0.991   1.070   1.100   1.154   1.239   1.307
  1.348   1.409   1.454   1.493   1.512   1.585   1.598   1.650
  1.703   1.748   1.821   1.860   1.881   1.933   1.980   2.015
  2.063   2.074   2.132   2.166   2.219   2.251   2.317   2.334
  2.347   2.446   2.476   2.505   2.539   2.555   2.592   2.660
  2.687   2.695   2.800   2.808   2.905   2.970   3.948   4.146
  4.254   4.329   4.407   4.537   4.575
 --------------------------------------------------------------
 
          Ground-State Mulliken Net Atomic Charges

     Atom                 Charge (a.u.)    Spin (a.u.)
  --------------------------------------------------------
      1 C                    -0.002074       0.021286
      2 C                    -0.157240      -0.180467
      3 C                    -0.100409       0.731032
      4 C                    -0.257203      -0.073783
      5 C                     0.087907       0.032864
      6 N                    -0.339642       0.034875
      7 H                     0.147979       0.004438
      8 H                     0.154363       0.007479
      9 H                     0.137304       0.003432
     10 H                     0.141521       0.006475
     11 H                     0.143102      -0.000759
     12 C                    -0.119307       0.433503
     13 H                     0.163700      -0.020375
  --------------------------------------------------------
  Sum of atomic charges =    -0.000000
  Sum of spin   charges =     1.000000

 -----------------------------------------------------------------
                    Cartesian Multipole Moments
 -----------------------------------------------------------------
    Charge (ESU x 10^10)
                -0.0000
    Dipole Moment (Debye)
         X      -0.8415      Y      -1.4584      Z       1.0235
       Tot       1.9704
    Quadrupole Moments (Debye-Ang)
        XX     -38.8807     XY      -5.1879     YY     -43.2153
        XZ       1.2849     YZ       1.1760     ZZ     -39.2598
    Octopole Moments (Debye-Ang^2)
       XXX      -4.0195    XXY      -6.8606    XYY      -8.0277
       YYY     -18.2237    XXZ       4.7776    XYZ       2.9149
       YYZ      -1.1262    XZZ      -3.8868    YZZ      -9.2898
       ZZZ       8.3684
    Hexadecapole Moments (Debye-Ang^3)
      XXXX    -217.7260   XXXY     -10.3809   XXYY     -92.4207
      XYYY     -20.1727   YYYY    -317.1126   XXXZ      -7.7068
      XXYZ       3.9316   XYYZ       3.1575   YYYZ       3.3872
      XXZZ     -63.3593   XYZZ      -0.5837   YYZZ     -72.6821
      XZZZ      -7.2353   YZZZ      -0.7228   ZZZZ    -148.9443
 -----------------------------------------------------------------
 Calculating analytic gradient of the SCF energy
 Gradient of SCF Energy
            1           2           3           4           5           6
    1   0.0015408  -0.0021824   0.0056334   0.0019107  -0.0057371   0.0033687
    2   0.0029721  -0.0089043  -0.0217426   0.0243274  -0.0059970  -0.0053169
    3  -0.0015743   0.0014819  -0.0087379   0.0135518   0.0046148  -0.0044806
            7           8           9          10          11          12
    1  -0.0055102   0.0060547   0.0091217  -0.0036568   0.0010835  -0.0086568
    2   0.0008339   0.0092809  -0.0126342   0.0139111   0.0074294  -0.0043491
    3   0.0022425  -0.0076583  -0.0058795   0.0116219   0.0009406  -0.0041605
           13
    1  -0.0029701
    2   0.0001892
    3  -0.0019623
 Max gradient component =       2.433E-02
 RMS gradient           =       8.208E-03
 Gradient time:  CPU 7.71 s  wall 2.05 s
 Geometry Optimization Parameters
   NAtoms,    NIC,     NZ,  NCons,   NDum,   NFix, NCnnct, MaxDiis
       13     128       0       0       0       0       0       0

 Cartesian Hessian Update
 Hessian Updated using Powell/Murtagh-Sargent Update
  Mixing factors:     0.928487 Powell
                      0.071513 Murtagh-Sargent


** GEOMETRY OPTIMIZATION IN DELOCALIZED INTERNAL COORDINATES **
   Searching for a Transition State

   Optimization Cycle:   4

                       Coordinates (Angstroms)
     ATOM                X               Y               Z
      1  C         1.1440460858    0.2829854853    0.3452443847
      2  C         0.7188640268   -1.0461528127   -0.3117325934
      3  C        -0.5929805250   -1.1135239364   -0.8060661755
      4  C        -1.1171035492    0.2456734459    0.1738856808
      5  C        -0.4951710198    1.4685920788   -0.4315155358
      6  N         0.7933848079    1.4748402138   -0.3862775608
      7  H         2.1181612013    0.2744291268    0.8150947243
      8  H         1.5554965794   -1.6872916865   -0.5920453395
      9  H        -0.8557486096   -1.7209829085   -1.6910074745
     10  H        -2.1297665216    0.3927234105    0.5870975209
     11  H        -1.0284747196    2.2929392641   -0.9171424975
     12  C        -0.0253668741   -0.2226382854    1.1032715787
     13  H        -0.1287135773   -0.6698476627    2.0801493247
   Point Group: c1    Number of degrees of freedom:    33


   Energy is   -286.799537647

 Hessian Updated using Powell/Murtagh-Sargent Update
  Mixing factors:     0.877058 Powell
                      0.122942 Murtagh-Sargent

 33 Hessian modes will be used to form the next step
  Hessian Eigenvalues:
    -0.041162    0.000525    0.006573    0.006933    0.009204    0.016595
     0.019353    0.026325    0.030157    0.034901    0.036415    0.040689
     0.043316    0.045829    0.064726    0.074763    0.090467    0.117227
     0.120583    0.134792    0.147282    0.172779    0.221431    0.278519
     0.305709    0.314700    0.317462    0.334822    0.342804    0.352240
     0.374835    0.377266    0.559753

 Transition State Search - Taking P-RFO Step
 Searching for Lamda that Maximizes Along the Lowest mode
 Value Taken    Lamda =   0.00950610
 Searching for Lamda that Minimizes Along All other modes
 Value Taken    Lamda =  -0.03883433
 Calculated Step too Large.  Step scaled by  0.101540
 Step Taken.  Stepsize is  0.100000

                             Maximum     Tolerance    Cnvgd?
         Gradient           0.028698      0.000010      NO
         Displacement       0.041976      0.001200      NO
         Energy change     -0.002365      0.000001      NO


 New Cartesian Coordinates Obtained by Inverse Iteration

 Displacement from previous Coordinates is:  0.098833
 ----------------------------------------------------------------
             Standard Nuclear Orientation (Angstroms)
    I     Atom           X                Y                Z
 ----------------------------------------------------------------
    1      C       1.1451080340     0.2782342684     0.3497019983
    2      C       0.7242236006    -1.0442123362    -0.3184273465
    3      C      -0.5908947566    -1.1017670360    -0.7980297290
    4      C      -1.1141049492     0.2367298540     0.1706231700
    5      C      -0.4926018455     1.4633061455    -0.4343276809
    6      N       0.7948053787     1.4728741627    -0.3837372029
    7      H       2.1204581041     0.2708356980     0.8183759781
    8      H       1.5566076463    -1.6869497567    -0.6073508012
    9      H      -0.8703280043    -1.6984688864    -1.6825243407
   10      H      -2.1311457368     0.3733250867     0.5728557000
   11      H      -1.0282708627     2.2823177338    -0.9249751928
   12      C      -0.0262102969    -0.2142681330     1.1147356371
   13      H      -0.1310190067    -0.6602110679     2.0920358476
 ----------------------------------------------------------------
 Nuclear Repulsion Energy =   279.1295296906 hartrees
 There are       25 alpha and       24 beta electrons
 Applying Cartesian multipole field
    Component          Value
    ---------          -----
     (2,0,0)        1.00000E-11
     (0,2,0)        2.00000E-11
     (0,0,2)       -3.00000E-11
 Nucleus-field energy     =     0.0000000027 hartrees
 Requested basis set is 6-31G(d)
 There are 40 shells and 117 basis functions
 A cutoff of  1.0D-14 yielded    813 shell pairs
 There are      7085 function pairs
 Smallest overlap matrix eigenvalue = 1.74E-03
 Guess MOs from SCF MO coefficient file
 Reading MOs from coefficient file
 Reading MOs from coefficient file
 An unrestricted hybrid HF-DFT SCF calculation will be
 performed using Pulay DIIS extrapolation
 Exchange:     0.2000 Hartree-Fock + 0.0800 Slater + 0.7200 B88
 Correlation:  0.1900 VWN1RPA + 0.8100 LYP
 Using SG-1 standard quadrature grid
 SCF converges when DIIS error is below 1.0E-08
 Geometry optimization detected.  Setting ReadMinima to 0
 Setting SaveMinima to 0
Using Q-Chem read-in guess as SCF_GUESS READ specified.

 using 4 threads for integral computing
 -------------------------------------------------------
 OpenMP Integral computing Module                
 Release: version 1.0, May 2013, Q-Chem Inc. Pittsburgh 
 -------------------------------------------------------
 -------------------------------------------------------
 OpenMP BLAS3 based DFT computing Module                
 Release: version 1.0, May 2013, Q-Chem Inc. Pittsburgh 
 -------------------------------------------------------
 ---------------------------------------
  Cycle       Energy         DIIS Error
 ---------------------------------------
    1    -286.8059760680      7.12E-04
    2    -286.8024045168      1.95E-04
    3    -286.8023027494      3.20E-04
    4    -286.8025035342      4.81E-05
    5    -286.8025088434      2.23E-05
    6    -286.8025109264      6.70E-06
    7    -286.8025119534      6.43E-06
    8    -286.8025124035      1.66E-06
    9    -286.8025124912      1.23E-06
   10    -286.8025125069      2.72E-07
   11    -286.8025125085      8.66E-08
   12    -286.8025125090      4.30E-08
   13    -286.8025125091      1.50E-08
   14    -286.8025125091      7.02E-09 Convergence criterion met
 ---------------------------------------
 <S^2> = 0.7742
 SCF time:  CPU 34.86 s  wall 9.86 s
 SCF   energy in the final basis set = -286.80251251
 Total energy in the final basis set = -286.80251251
 
 --------------------------------------------------------------
 
                    Orbital Energies (a.u.)
 --------------------------------------------------------------
 
 Alpha MOs
 -- Occupied --
-14.315 -10.223 -10.221 -10.218 -10.218 -10.216 -10.209  -0.961
 -0.835  -0.734  -0.694  -0.588  -0.579  -0.535  -0.514  -0.463
 -0.425  -0.410  -0.397  -0.374  -0.330  -0.290  -0.270  -0.264
 -0.152
 -- Virtual --
  0.001   0.015   0.098   0.102   0.138   0.151   0.157   0.167
  0.175   0.195   0.214   0.268   0.291   0.299   0.347   0.392
  0.494   0.504   0.509   0.531   0.572   0.581   0.592   0.603
  0.634   0.650   0.661   0.685   0.695   0.748   0.768   0.790
  0.807   0.822   0.829   0.844   0.861   0.890   0.906   0.925
  0.966   0.990   1.067   1.091   1.145   1.228   1.311   1.338
  1.406   1.447   1.492   1.500   1.582   1.585   1.643   1.698
  1.742   1.813   1.854   1.879   1.926   1.970   2.006   2.052
  2.073   2.125   2.162   2.216   2.239   2.309   2.329   2.334
  2.434   2.470   2.502   2.534   2.546   2.588   2.653   2.683
  2.690   2.799   2.805   2.903   2.968   3.946   4.138   4.254
  4.317   4.403   4.535   4.576
 
 Beta MOs
 -- Occupied --
-14.314 -10.222 -10.222 -10.218 -10.217 -10.210 -10.198  -0.957
 -0.827  -0.731  -0.682  -0.582  -0.571  -0.529  -0.511  -0.455
 -0.422  -0.405  -0.395  -0.369  -0.321  -0.278  -0.265  -0.253
 -- Virtual --
 -0.040   0.014   0.028   0.100   0.116   0.143   0.155   0.159
  0.169   0.178   0.198   0.218   0.271   0.295   0.302   0.355
  0.394   0.503   0.509   0.516   0.546   0.573   0.586   0.598
  0.603   0.639   0.668   0.672   0.690   0.702   0.752   0.773
  0.793   0.808   0.824   0.831   0.848   0.866   0.893   0.909
  0.930   0.971   0.992   1.072   1.103   1.149   1.234   1.316
  1.343   1.409   1.454   1.497   1.509   1.588   1.599   1.651
  1.707   1.748   1.817   1.859   1.885   1.934   1.983   2.018
  2.064   2.080   2.133   2.166   2.224   2.252   2.322   2.336
  2.343   2.446   2.478   2.507   2.541   2.554   2.592   2.659
  2.687   2.695   2.803   2.810   2.904   2.969   3.947   4.151
  4.257   4.330   4.405   4.540   4.579
 --------------------------------------------------------------
 
          Ground-State Mulliken Net Atomic Charges

     Atom                 Charge (a.u.)    Spin (a.u.)
  --------------------------------------------------------
      1 C                    -0.004738       0.017201
      2 C                    -0.153471      -0.190491
      3 C                    -0.098788       0.708756
      4 C                    -0.258151      -0.073519
      5 C                     0.088618       0.029198
      6 N                    -0.339064       0.037913
      7 H                     0.147341       0.004498
      8 H                     0.153507       0.008291
      9 H                     0.137557       0.002107
     10 H                     0.141100       0.006781
     11 H                     0.143263      -0.000571
     12 C                    -0.120298       0.472376
     13 H                     0.163125      -0.022541
  --------------------------------------------------------
  Sum of atomic charges =     0.000000
  Sum of spin   charges =     1.000000

 -----------------------------------------------------------------
                    Cartesian Multipole Moments
 -----------------------------------------------------------------
    Charge (ESU x 10^10)
                -0.0000
    Dipole Moment (Debye)
         X      -0.8725      Y      -1.4705      Z       0.9775
       Tot       1.9696
    Quadrupole Moments (Debye-Ang)
        XX     -38.8174     XY      -5.1354     YY     -43.2647
        XZ       1.3366     YZ       1.1400     ZZ     -39.2403
    Octopole Moments (Debye-Ang^2)
       XXX      -4.3817    XXY      -7.0225    XYY      -8.1073
       YYY     -18.2665    XXZ       4.5494    XYZ       2.9246
       YYZ      -1.2051    XZZ      -3.9897    YZZ      -9.2630
       ZZZ       8.1092
    Hexadecapole Moments (Debye-Ang^3)
      XXXX    -217.6956   XXXY     -10.2198   XXYY     -91.9765
      XYYY     -20.1296   YYYY    -314.8216   XXXZ      -7.5339
      XXYZ       4.0045   XYYZ       3.1468   YYYZ       3.4214
      XXZZ     -63.4258   XYZZ      -0.5838   YYZZ     -72.4833
      XZZZ      -7.1447   YZZZ      -0.6992   ZZZZ    -149.5234
 -----------------------------------------------------------------
 Calculating analytic gradient of the SCF energy
 Gradient of SCF Energy
            1           2           3           4           5           6
    1   0.0014762  -0.0031851   0.0049699   0.0014221  -0.0053169   0.0030813
    2   0.0042294  -0.0086292  -0.0216584   0.0248409  -0.0058631  -0.0051463
    3  -0.0015161   0.0032812  -0.0085989   0.0134092   0.0041199  -0.0042755
            7           8           9          10          11          12
    1  -0.0050547   0.0059581   0.0087706  -0.0033245   0.0010007  -0.0069046
    2   0.0006392   0.0091184  -0.0113934   0.0128320   0.0068214  -0.0061571
    3   0.0021388  -0.0070996  -0.0058343   0.0109697   0.0008930  -0.0057693
           13
    1  -0.0028931
    2   0.0003663
    3  -0.0017182
 Max gradient component =       2.484E-02
 RMS gradient           =       8.060E-03
 Gradient time:  CPU 7.71 s  wall 2.03 s
 Geometry Optimization Parameters
   NAtoms,    NIC,     NZ,  NCons,   NDum,   NFix, NCnnct, MaxDiis
       13     128       0       0       0       0       0       0

 Cartesian Hessian Update
 Hessian Updated using Powell/Murtagh-Sargent Update
  Mixing factors:     0.999602 Powell
                      0.000398 Murtagh-Sargent


** GEOMETRY OPTIMIZATION IN DELOCALIZED INTERNAL COORDINATES **
   Searching for a Transition State

   Optimization Cycle:   5

                       Coordinates (Angstroms)
     ATOM                X               Y               Z
      1  C         1.1451080340    0.2782342684    0.3497019983
      2  C         0.7242236006   -1.0442123362   -0.3184273465
      3  C        -0.5908947566   -1.1017670360   -0.7980297290
      4  C        -1.1141049492    0.2367298540    0.1706231700
      5  C        -0.4926018455    1.4633061455   -0.4343276809
      6  N         0.7948053787    1.4728741627   -0.3837372029
      7  H         2.1204581041    0.2708356980    0.8183759781
      8  H         1.5566076463   -1.6869497567   -0.6073508012
      9  H        -0.8703280043   -1.6984688864   -1.6825243407
     10  H        -2.1311457368    0.3733250867    0.5728557000
     11  H        -1.0282708627    2.2823177338   -0.9249751928
     12  C        -0.0262102969   -0.2142681330    1.1147356371
     13  H        -0.1310190067   -0.6602110679    2.0920358476
   Point Group: c1    Number of degrees of freedom:    33


   Energy is   -286.802512509

 Hessian Updated using Powell/Murtagh-Sargent Update
  Mixing factors:     0.999921 Powell
                      0.000079 Murtagh-Sargent

 33 Hessian modes will be used to form the next step
  Hessian Eigenvalues:
    -0.047185    0.002385    0.006713    0.008450    0.010140    0.016604
     0.019327    0.026325    0.030185    0.034840    0.036882    0.040760
     0.043390    0.046823    0.064633    0.074766    0.090403    0.117213
     0.120598    0.134724    0.147293    0.172790    0.221432    0.278521
     0.305733    0.314734    0.317470    0.334815    0.342815    0.352239
     0.374832    0.377264    0.559754

 Transition State Search - Taking P-RFO Step
 Searching for Lamda that Maximizes Along the Lowest mode
 Value Taken    Lamda =   0.00520016
 Searching for Lamda that Minimizes Along All other modes
 Value Taken    Lamda =  -0.03649201
 Calculated Step too Large.  Step scaled by  0.112055
 Step Taken.  Stepsize is  0.100000

                             Maximum     Tolerance    Cnvgd?
         Gradient           0.027114      0.000010      NO
         Displacement       0.042382      0.001200      NO
         Energy change     -0.002975      0.000001      NO


 New Cartesian Coordinates Obtained by Inverse Iteration

 Displacement from previous Coordinates is:  0.105258
 ----------------------------------------------------------------
             Standard Nuclear Orientation (Angstroms)
    I     Atom           X                Y                Z
 ----------------------------------------------------------------
    1      C       1.1469871189     0.2742883496     0.3540718409
    2      C       0.7290450649    -1.0423374768    -0.3234083164
    3      C      -0.5894163653    -1.0876852664    -0.7898609945
    4      C      -1.1104713491     0.2257354819     0.1656613652
    5      C      -0.4900361699     1.4576191275    -0.4376626483
    6      N       0.7960331730     1.4717151590    -0.3809406322
    7      H       2.1235575765     0.2684846758     0.8215690873
    8      H       1.5565367865    -1.6878500482    -0.6195178020
    9      H      -0.8874544867    -1.6723252280    -1.6734953257
   10      H      -2.1317328583     0.3516674744     0.5569111405
   11      H      -1.0285999346     2.2709663198    -0.9331819075
   12      C      -0.0256798921    -0.2072490930     1.1253776895
   13      H      -0.1321413587    -0.6512837427     2.1034325403
 ----------------------------------------------------------------
 Nuclear Repulsion Energy =   279.3902005865 hartrees
 There are       25 alpha and       24 beta electrons
 Applying Cartesian multipole field
    Component          Value
    ---------          -----
     (2,0,0)        1.00000E-11
     (0,2,0)        2.00000E-11
     (0,0,2)       -3.00000E-11
 Nucleus-field energy     =     0.0000000026 hartrees
 Requested basis set is 6-31G(d)
 There are 40 shells and 117 basis functions
 A cutoff of  1.0D-14 yielded    813 shell pairs
 There are      7085 function pairs
 Smallest overlap matrix eigenvalue = 1.70E-03
 Guess MOs from SCF MO coefficient file
 Reading MOs from coefficient file
 Reading MOs from coefficient file
 An unrestricted hybrid HF-DFT SCF calculation will be
 performed using Pulay DIIS extrapolation
 Exchange:     0.2000 Hartree-Fock + 0.0800 Slater + 0.7200 B88
 Correlation:  0.1900 VWN1RPA + 0.8100 LYP
 Using SG-1 standard quadrature grid
 SCF converges when DIIS error is below 1.0E-08
 Geometry optimization detected.  Setting ReadMinima to 0
 Setting SaveMinima to 0
Using Q-Chem read-in guess as SCF_GUESS READ specified.

 using 4 threads for integral computing
 -------------------------------------------------------
 OpenMP Integral computing Module                
 Release: version 1.0, May 2013, Q-Chem Inc. Pittsburgh 
 -------------------------------------------------------
 -------------------------------------------------------
 OpenMP BLAS3 based DFT computing Module                
 Release: version 1.0, May 2013, Q-Chem Inc. Pittsburgh 
 -------------------------------------------------------
 ---------------------------------------
  Cycle       Energy         DIIS Error
 ---------------------------------------
    1    -286.8104860017      7.57E-04
    2    -286.8058357205      2.24E-04
    3    -286.8056965598      3.64E-04
    4    -286.8059565005      5.29E-05
    5    -286.8059618804      2.43E-05
    6    -286.8059637681      6.85E-06
    7    -286.8059645581      6.13E-06
    8    -286.8059649571      1.67E-06
    9    -286.8059650385      1.28E-06
   10    -286.8059650564      2.96E-07
   11    -286.8059650584      1.05E-07
   12    -286.8059650587      5.69E-08
   13    -286.8059650589      1.96E-08
   14    -286.8059650589      7.49E-09 Convergence criterion met
 ---------------------------------------
 <S^2> = 0.7764
 SCF time:  CPU 34.65 s  wall 10.20 s
 SCF   energy in the final basis set = -286.80596506
 Total energy in the final basis set = -286.80596506
 
 --------------------------------------------------------------
 
                    Orbital Energies (a.u.)
 --------------------------------------------------------------
 
 Alpha MOs
 -- Occupied --
-14.315 -10.223 -10.220 -10.218 -10.216 -10.216 -10.207  -0.961
 -0.834  -0.734  -0.694  -0.587  -0.578  -0.535  -0.514  -0.463
 -0.425  -0.411  -0.397  -0.373  -0.332  -0.290  -0.270  -0.264
 -0.151
 -- Virtual --
  0.002   0.013   0.098   0.109   0.139   0.151   0.157   0.167
  0.175   0.195   0.215   0.269   0.292   0.298   0.348   0.390
  0.493   0.504   0.509   0.532   0.573   0.581   0.592   0.604
  0.635   0.650   0.661   0.685   0.695   0.750   0.768   0.792
  0.807   0.820   0.830   0.845   0.860   0.889   0.905   0.927
  0.966   0.991   1.066   1.093   1.140   1.223   1.317   1.337
  1.406   1.448   1.493   1.501   1.587   1.588   1.644   1.703
  1.742   1.811   1.854   1.883   1.927   1.972   2.009   2.051
  2.080   2.126   2.162   2.221   2.242   2.313   2.329   2.332
  2.434   2.470   2.503   2.541   2.545   2.588   2.653   2.682
  2.690   2.800   2.812   2.902   2.966   3.945   4.145   4.256
  4.318   4.401   4.537   4.582
 
 Beta MOs
 -- Occupied --
-14.314 -10.222 -10.221 -10.218 -10.218 -10.209 -10.196  -0.957
 -0.827  -0.731  -0.681  -0.582  -0.570  -0.529  -0.511  -0.455
 -0.422  -0.406  -0.394  -0.369  -0.323  -0.278  -0.265  -0.253
 -- Virtual --
 -0.039   0.014   0.027   0.100   0.122   0.143   0.155   0.159
  0.169   0.179   0.199   0.218   0.272   0.295   0.302   0.356
  0.392   0.502   0.509   0.515   0.546   0.574   0.586   0.599
  0.604   0.640   0.667   0.672   0.690   0.702   0.755   0.773
  0.795   0.809   0.823   0.832   0.849   0.865   0.892   0.908
  0.932   0.971   0.993   1.072   1.105   1.145   1.229   1.321
  1.343   1.409   1.453   1.499   1.508   1.595   1.601   1.652
  1.712   1.748   1.815   1.859   1.889   1.934   1.985   2.020
  2.063   2.087   2.134   2.167   2.229   2.253   2.327   2.335
  2.341   2.445   2.480   2.508   2.545   2.556   2.593   2.659
  2.687   2.695   2.805   2.816   2.903   2.968   3.947   4.157
  4.259   4.332   4.404   4.542   4.585
 --------------------------------------------------------------
 
          Ground-State Mulliken Net Atomic Charges

     Atom                 Charge (a.u.)    Spin (a.u.)
  --------------------------------------------------------
      1 C                    -0.007513       0.014083
      2 C                    -0.149904      -0.198859
      3 C                    -0.096382       0.688275
      4 C                    -0.259036      -0.073011
      5 C                     0.089019       0.025900
      6 N                    -0.338439       0.040893
      7 H                     0.146763       0.004535
      8 H                     0.152617       0.009093
      9 H                     0.137795       0.000310
     10 H                     0.140644       0.007222
     11 H                     0.143414      -0.000359
     12 C                    -0.121454       0.506333
     13 H                     0.162477      -0.024415
  --------------------------------------------------------
  Sum of atomic charges =     0.000000
  Sum of spin   charges =     1.000000

 -----------------------------------------------------------------
                    Cartesian Multipole Moments
 -----------------------------------------------------------------
    Charge (ESU x 10^10)
                -0.0000
    Dipole Moment (Debye)
         X      -0.9064      Y      -1.4857      Z       0.9295
       Tot       1.9730
    Quadrupole Moments (Debye-Ang)
        XX     -38.7493     XY      -5.0737     YY     -43.3161
        XZ       1.3966     YZ       1.1013     ZZ     -39.2246
    Octopole Moments (Debye-Ang^2)
       XXX      -4.7645    XXY      -7.1952    XYY      -8.1943
       YYY     -18.3461    XXZ       4.3152    XYZ       2.9324
       YYZ      -1.2659    XZZ      -4.0996    YZZ      -9.2238
       ZZZ       7.8576
    Hexadecapole Moments (Debye-Ang^3)
      XXXX    -217.6835   XXXY     -10.0795   XXYY     -91.4937
      XYYY     -20.1791   YYYY    -312.4277   XXXZ      -7.4399
      XXYZ       4.1139   XYYZ       3.0851   YYYZ       3.5657
      XXZZ     -63.4692   XYZZ      -0.6057   YYZZ     -72.2630
      XZZZ      -7.1759   YZZZ      -0.5613   ZZZZ    -150.0014
 -----------------------------------------------------------------
 Calculating analytic gradient of the SCF energy
 Gradient of SCF Energy
            1           2           3           4           5           6
    1   0.0014279  -0.0040378   0.0042051   0.0010148  -0.0047915   0.0027424
    2   0.0052572  -0.0084361  -0.0210568   0.0247064  -0.0057004  -0.0049284
    3  -0.0014190   0.0047290  -0.0080317   0.0128325   0.0035832  -0.0041013
            7           8           9          10          11          12
    1  -0.0046096   0.0058631   0.0083253  -0.0029700   0.0009156  -0.0052712
    2   0.0004796   0.0089458  -0.0100918   0.0116946   0.0062095  -0.0075274
    3   0.0020706  -0.0065802  -0.0057234   0.0102492   0.0008594  -0.0069553
           13
    1  -0.0028143
    2   0.0004478
    3  -0.0015130
 Max gradient component =       2.471E-02
 RMS gradient           =       7.814E-03
 Gradient time:  CPU 8.45 s  wall 2.65 s
 Geometry Optimization Parameters
   NAtoms,    NIC,     NZ,  NCons,   NDum,   NFix, NCnnct, MaxDiis
       13     128       0       0       0       0       0       0

 Cartesian Hessian Update
 Hessian Updated using Powell/Murtagh-Sargent Update
  Mixing factors:     0.961928 Powell
                      0.038072 Murtagh-Sargent


** GEOMETRY OPTIMIZATION IN DELOCALIZED INTERNAL COORDINATES **
   Searching for a Transition State

   Optimization Cycle:   6

                       Coordinates (Angstroms)
     ATOM                X               Y               Z
      1  C         1.1469871189    0.2742883496    0.3540718409
      2  C         0.7290450649   -1.0423374768   -0.3234083164
      3  C        -0.5894163653   -1.0876852664   -0.7898609945
      4  C        -1.1104713491    0.2257354819    0.1656613652
      5  C        -0.4900361699    1.4576191275   -0.4376626483
      6  N         0.7960331730    1.4717151590   -0.3809406322
      7  H         2.1235575765    0.2684846758    0.8215690873
      8  H         1.5565367865   -1.6878500482   -0.6195178020
      9  H        -0.8874544867   -1.6723252280   -1.6734953257
     10  H        -2.1317328583    0.3516674744    0.5569111405
     11  H        -1.0285999346    2.2709663198   -0.9331819075
     12  C        -0.0256798921   -0.2072490930    1.1253776895
     13  H        -0.1321413587   -0.6512837427    2.1034325403
   Point Group: c1    Number of degrees of freedom:    33


   Energy is   -286.805965059

 Hessian Updated using Powell/Murtagh-Sargent Update
  Mixing factors:     0.892153 Powell
                      0.107847 Murtagh-Sargent

 33 Hessian modes will be used to form the next step
  Hessian Eigenvalues:
    -0.051018    0.003459    0.006712    0.008676    0.015643    0.016687
     0.019350    0.026399    0.030246    0.034783    0.037488    0.040813
     0.043445    0.049301    0.064601    0.074760    0.090383    0.117205
     0.120598    0.134760    0.147282    0.172815    0.221436    0.278530
     0.305779    0.314858    0.317485    0.334814    0.342822    0.352240
     0.374830    0.377263    0.559820

 Transition State Search - Taking P-RFO Step
 Searching for Lamda that Maximizes Along the Lowest mode
 Value Taken    Lamda =   0.00215461
 Searching for Lamda that Minimizes Along All other modes
 Value Taken    Lamda =  -0.03187382
 Calculated Step too Large.  Step scaled by  0.128770
 Step Taken.  Stepsize is  0.100000

                             Maximum     Tolerance    Cnvgd?
         Gradient           0.025201      0.000010      NO
         Displacement       0.042344      0.001200      NO
         Energy change     -0.003453      0.000001      NO


 New Cartesian Coordinates Obtained by Inverse Iteration

 Displacement from previous Coordinates is:  0.110926
 ----------------------------------------------------------------
             Standard Nuclear Orientation (Angstroms)
    I     Atom           X                Y                Z
 ----------------------------------------------------------------
    1      C       1.1497379597     0.2714840456     0.3581780355
    2      C       0.7330922903    -1.0404912534    -0.3262436978
    3      C      -0.5886602254    -1.0716897125    -0.7820129769
    4      C      -1.1062565191     0.2131765198     0.1591265929
    5      C      -0.4875494350     1.4519456232    -0.4412484615
    6      N       0.7970674525     1.4717244585    -0.3777796548
    7      H       2.1276081348     0.2675489349     0.8243183345
    8      H       1.5550577961    -1.6903803705    -0.6271849608
    9      H      -0.9070956447    -1.6431235633    -1.6641677242
   10      H      -2.1316351627     0.3279469450     0.5391487463
   11      H      -1.0296155742     2.2591867105    -0.9415118573
   12      C      -0.0235750247    -0.2018355536     1.1346726066
   13      H      -0.1315487425    -0.6437470512     2.1136610544
 ----------------------------------------------------------------
 Nuclear Repulsion Energy =   279.7008243852 hartrees
 There are       25 alpha and       24 beta electrons
 Applying Cartesian multipole field
    Component          Value
    ---------          -----
     (2,0,0)        1.00000E-11
     (0,2,0)        2.00000E-11
     (0,0,2)       -3.00000E-11
 Nucleus-field energy     =     0.0000000026 hartrees
 Requested basis set is 6-31G(d)
 There are 40 shells and 117 basis functions
 A cutoff of  1.0D-14 yielded    813 shell pairs
 There are      7085 function pairs
 Smallest overlap matrix eigenvalue = 1.65E-03
 Guess MOs from SCF MO coefficient file
 Reading MOs from coefficient file
 Reading MOs from coefficient file
 An unrestricted hybrid HF-DFT SCF calculation will be
 performed using Pulay DIIS extrapolation
 Exchange:     0.2000 Hartree-Fock + 0.0800 Slater + 0.7200 B88
 Correlation:  0.1900 VWN1RPA + 0.8100 LYP
 Using SG-1 standard quadrature grid
 SCF converges when DIIS error is below 1.0E-08
 Geometry optimization detected.  Setting ReadMinima to 0
 Setting SaveMinima to 0
Using Q-Chem read-in guess as SCF_GUESS READ specified.

 using 4 threads for integral computing
 -------------------------------------------------------
 OpenMP Integral computing Module                
[...]
 Searching for Lamda that Maximizes Along the Lowest mode
 Value Taken    Lamda =   0.00000000
 Searching for Lamda that Minimizes Along All other modes
 Value Taken    Lamda =   0.00000000
 Step Taken.  Stepsize is  0.001295

                             Maximum     Tolerance    Cnvgd?
         Gradient           0.000018      0.000010      NO
         Displacement       0.000975      0.001200     YES
         Energy change     -0.000011      0.000001      NO


 New Cartesian Coordinates Obtained by Inverse Iteration

 Displacement from previous Coordinates is:  0.000814
 ----------------------------------------------------------------
             Standard Nuclear Orientation (Angstroms)
    I     Atom           X                Y                Z
 ----------------------------------------------------------------
    1      C       1.1765739846     0.2841915378     0.3673198532
    2      C       0.7645724161    -0.9992421186    -0.3524262301
    3      C      -0.5556124114    -0.9322060329    -0.8198171957
    4      C      -1.0775357045     0.1591578107     0.1126633696
    5      C      -0.4838009420     1.4614867737    -0.4308332550
    6      N       0.7935170019     1.5227590369    -0.3250521132
    7      H       2.1730477493     0.2851892528     0.8020325173
    8      H       1.4794242213    -1.8037937785    -0.5077299310
    9      H      -1.0651906309    -1.5244964285    -1.5678084166
   10      H      -2.1351799942     0.1486692953     0.3774027606
   11      H      -1.0525514937     2.2177302121    -0.9695750721
   12      C       0.0071944864    -0.1893181727     1.1559297967
   13      H      -0.0678313775    -0.6583816552     2.1268499531
 ----------------------------------------------------------------
 Nuclear Repulsion Energy =   281.0873408157 hartrees
 There are       25 alpha and       24 beta electrons
 Applying Cartesian multipole field
    Component          Value
    ---------          -----
     (2,0,0)        1.00000E-11
     (0,2,0)        2.00000E-11
     (0,0,2)       -3.00000E-11
 Nucleus-field energy     =     0.0000000025 hartrees
 Requested basis set is 6-31G(d)
 There are 40 shells and 117 basis functions
 A cutoff of  1.0D-14 yielded    813 shell pairs
 There are      7085 function pairs
 Smallest overlap matrix eigenvalue = 1.37E-03
 Guess MOs from SCF MO coefficient file
 Reading MOs from coefficient file
 Reading MOs from coefficient file
 An unrestricted hybrid HF-DFT SCF calculation will be
 performed using Pulay DIIS extrapolation
 Exchange:     0.2000 Hartree-Fock + 0.0800 Slater + 0.7200 B88
 Correlation:  0.1900 VWN1RPA + 0.8100 LYP
 Using SG-1 standard quadrature grid
 SCF converges when DIIS error is below 1.0E-08
 Geometry optimization detected.  Setting ReadMinima to 0
 Setting SaveMinima to 0
Using Q-Chem read-in guess as SCF_GUESS READ specified.

 using 4 threads for integral computing
 -------------------------------------------------------
 OpenMP Integral computing Module                
 Release: version 1.0, May 2013, Q-Chem Inc. Pittsburgh 
 -------------------------------------------------------
 -------------------------------------------------------
 OpenMP BLAS3 based DFT computing Module                
 Release: version 1.0, May 2013, Q-Chem Inc. Pittsburgh 
 -------------------------------------------------------
 ---------------------------------------
  Cycle       Energy         DIIS Error
 ---------------------------------------
    1    -286.8244847401      3.58E-06
    2    -286.8244838734      7.26E-07
    3    -286.8244838730      1.03E-06
    4    -286.8244838748      2.33E-07
    5    -286.8244838748      1.00E-07
    6    -286.8244838749      2.85E-08
    7    -286.8244838749      2.00E-08
    8    -286.8244838749      3.49E-09 Convergence criterion met
 ---------------------------------------
 <S^2> = 0.7806
 SCF time:  CPU 18.96 s  wall 4.80 s
 SCF   energy in the final basis set = -286.82448387
 Total energy in the final basis set = -286.82448387
 
 --------------------------------------------------------------
 
                    Orbital Energies (a.u.)
 --------------------------------------------------------------
 
 Alpha MOs
 -- Occupied --
-14.314 -10.224 -10.218 -10.216 -10.212 -10.209 -10.193  -0.959
 -0.836  -0.739  -0.685  -0.590  -0.575  -0.538  -0.513  -0.461
 -0.433  -0.413  -0.398  -0.367  -0.345  -0.284  -0.271  -0.264
 -0.145
 -- Virtual --
  0.006   0.018   0.095   0.139   0.150   0.154   0.156   0.164
  0.171   0.206   0.221   0.277   0.289   0.305   0.354   0.378
  0.490   0.503   0.511   0.535   0.576   0.581   0.591   0.611
  0.635   0.655   0.668   0.687   0.698   0.743   0.768   0.799
  0.811   0.822   0.836   0.849   0.859   0.885   0.896   0.942
  0.975   1.020   1.059   1.119   1.165   1.206   1.307   1.356
  1.400   1.454   1.460   1.512   1.595   1.645   1.667   1.739
  1.758   1.815   1.857   1.891   1.940   1.963   2.028   2.052
  2.108   2.142   2.170   2.228   2.274   2.302   2.319   2.363
  2.413   2.472   2.523   2.549   2.582   2.626   2.648   2.683
  2.693   2.810   2.848   2.908   2.961   3.947   4.203   4.262
  4.313   4.419   4.533   4.617
 
 Beta MOs
 -- Occupied --
-14.313 -10.224 -10.219 -10.218 -10.210 -10.204 -10.184  -0.955
 -0.828  -0.735  -0.673  -0.586  -0.566  -0.531  -0.510  -0.453
 -0.429  -0.408  -0.396  -0.362  -0.340  -0.274  -0.261  -0.251
 -- Virtual --
 -0.035   0.019   0.034   0.098   0.146   0.152   0.157   0.161
  0.166   0.174   0.211   0.225   0.281   0.291   0.309   0.360
  0.380   0.496   0.510   0.516   0.549   0.577   0.587   0.598
  0.618   0.639   0.673   0.677   0.691   0.706   0.749   0.772
  0.801   0.813   0.824   0.837   0.852   0.865   0.888   0.900
  0.945   0.979   1.026   1.064   1.131   1.169   1.211   1.312
  1.362   1.402   1.459   1.465   1.519   1.605   1.650   1.676
  1.748   1.767   1.818   1.863   1.900   1.949   1.971   2.041
  2.060   2.113   2.152   2.174   2.239   2.282   2.308   2.335
  2.374   2.422   2.484   2.528   2.556   2.585   2.633   2.653
  2.690   2.699   2.815   2.851   2.909   2.963   3.950   4.213
  4.263   4.330   4.424   4.536   4.621
 --------------------------------------------------------------
 
          Ground-State Mulliken Net Atomic Charges

     Atom                 Charge (a.u.)    Spin (a.u.)
  --------------------------------------------------------
      1 C                    -0.028414       0.004154
      2 C                    -0.132042      -0.216273
      3 C                    -0.081746       0.664210
      4 C                    -0.258572      -0.069090
      5 C                     0.091854       0.008613
      6 N                    -0.338945       0.064237
      7 H                     0.146689       0.004272
      8 H                     0.147977       0.011866
      9 H                     0.141954      -0.026903
     10 H                     0.137566       0.010532
     11 H                     0.143640       0.001581
     12 C                    -0.128433       0.570629
     13 H                     0.158469      -0.027829
  --------------------------------------------------------
  Sum of atomic charges =     0.000000
  Sum of spin   charges =     1.000000

 -----------------------------------------------------------------
                    Cartesian Multipole Moments
 -----------------------------------------------------------------
    Charge (ESU x 10^10)
                 0.0000
    Dipole Moment (Debye)
         X      -1.1698      Y      -1.9340      Z       0.7567
       Tot       2.3836
    Quadrupole Moments (Debye-Ang)
        XX     -38.1221     XY      -4.5351     YY     -43.1622
        XZ       2.1086     YZ       0.5915     ZZ     -39.6848
    Octopole Moments (Debye-Ang^2)
       XXX      -8.6343    XXY      -9.6448    XYY      -9.3523
       YYY     -24.7175    XXZ       3.1812    XYZ       2.5094
       YYZ      -1.1018    XZZ      -4.9875    YZZ      -9.5771
       ZZZ       8.0149
    Hexadecapole Moments (Debye-Ang^3)
      XXXX    -216.5144   XXXY      -7.6797   XXYY     -88.7496
      XYYY     -22.5408   YYYY    -302.1727   XXXZ      -7.9765
      XXYZ       4.2363   XYYZ       2.2654   YYYZ       4.5545
      XXZZ     -63.6919   XYZZ      -0.5250   YYZZ     -71.6177
      XZZZ     -10.0942   YZZZ      -0.7131   ZZZZ    -152.2717
 -----------------------------------------------------------------
 Calculating analytic gradient of the SCF energy
 Gradient of SCF Energy
            1           2           3           4           5           6
    1  -0.0000053   0.0000054  -0.0000061   0.0000095  -0.0000060  -0.0000009
    2   0.0000039   0.0000001   0.0000047  -0.0000019  -0.0000013  -0.0000016
    3   0.0000064   0.0000113   0.0000111  -0.0000092  -0.0000128  -0.0000044
            7           8           9          10          11          12
    1  -0.0000052   0.0000066   0.0000160  -0.0000011  -0.0000002  -0.0000033
    2   0.0000090   0.0000005  -0.0000204  -0.0000041  -0.0000083   0.0000095
    3   0.0000091   0.0000191  -0.0000038  -0.0000141  -0.0000192   0.0000042
           13
    1  -0.0000094
    2   0.0000100
    3   0.0000023
 Max gradient component =       2.045E-05
 RMS gradient           =       8.895E-06
 Gradient time:  CPU 7.91 s  wall 2.01 s
 Geometry Optimization Parameters
   NAtoms,    NIC,     NZ,  NCons,   NDum,   NFix, NCnnct, MaxDiis
       13     128       0       0       0       0       0       0

 Cartesian Hessian Update
 Hessian Updated using Powell/Murtagh-Sargent Update
**WARNING** Small Scalar Product
 Hessian Update Skipped this cycle


** GEOMETRY OPTIMIZATION IN DELOCALIZED INTERNAL COORDINATES **
   Searching for a Transition State

   Optimization Cycle:  34

                       Coordinates (Angstroms)
     ATOM                X               Y               Z
      1  C         1.1765739846    0.2841915378    0.3673198532
      2  C         0.7645724161   -0.9992421186   -0.3524262301
      3  C        -0.5556124114   -0.9322060329   -0.8198171957
      4  C        -1.0775357045    0.1591578107    0.1126633696
      5  C        -0.4838009420    1.4614867737   -0.4308332550
      6  N         0.7935170019    1.5227590369   -0.3250521132
      7  H         2.1730477493    0.2851892528    0.8020325173
      8  H         1.4794242213   -1.8037937785   -0.5077299310
      9  H        -1.0651906309   -1.5244964285   -1.5678084166
     10  H        -2.1351799942    0.1486692953    0.3774027606
     11  H        -1.0525514937    2.2177302121   -0.9695750721
     12  C         0.0071944864   -0.1893181727    1.1559297967
     13  H        -0.0678313775   -0.6583816552    2.1268499531
   Point Group: c1    Number of degrees of freedom:    33


   Energy is   -286.824483875

 Hessian Updated using Powell/Murtagh-Sargent Update
**WARNING** Small Scalar Product
 Hessian Update Skipped this cycle

 33 Hessian modes will be used to form the next step
  Hessian Eigenvalues:
    -0.057392    0.001105    0.006065    0.011192    0.016745    0.019380
     0.025106    0.029924    0.032940    0.035509    0.040439    0.042804
     0.043619    0.065053    0.080475    0.093364    0.116969    0.117989
     0.121332    0.143350    0.150311    0.173382    0.221864    0.280013
     0.306994    0.316782    0.318022    0.335351    0.342935    0.352774
     0.374826    0.377275    0.560852

 Transition State Search - Taking P-RFO Step
 Searching for Lamda that Maximizes Along the Lowest mode
 Value Taken    Lamda =   0.00000000
 Searching for Lamda that Minimizes Along All other modes
 Value Taken    Lamda =   0.00000000
 Step Taken.  Stepsize is  0.001778

                             Maximum     Tolerance    Cnvgd?
         Gradient           0.000010      0.000010     YES
         Displacement       0.001478      0.001200      NO
         Energy change     -0.000000      0.000001     YES


                       Distance Matrix (Angstroms)
             C (  1)   C (  2)   C (  3)   C (  4)   C (  5)   N (  6)
   C (  2)  1.528065
   C (  3)  2.426806  1.402083
   C (  4)  2.271892  2.225210  1.527416
   C (  5)  2.186302  2.760393  2.426156  1.531003
   N (  6)  1.469749  2.522316  2.844608  2.356235  1.283154
   H (  7)  1.087169  2.228529  3.399711  3.325268  3.156339  2.169102
   H (  8)  2.284100  1.087399  2.235719  3.282699  3.810803  3.401440
   H (  9)  3.470098  2.258557  1.081651  2.378829  3.247587  3.779551
   H ( 10)  3.314541  3.202954  2.257579  1.090325  2.259156  3.310413
   H ( 11)  3.239577  3.745894  3.192409  2.325851  1.088864  2.075178
   C ( 12)  1.487806  1.872094  2.184539  1.544824  2.341805  2.396418
   H ( 13)  2.352219  2.637403  2.999293  2.396836  3.347927  3.392804
             H (  7)   H (  8)   H (  9)   H ( 10)   H ( 11)   C ( 12)
   H (  8)  2.561336
   H (  9)  4.401965  2.770711
   H ( 10)  4.331256  4.202492  2.779965
   H ( 11)  4.156657  4.774605  3.789763  2.695820
   C ( 12)  2.245289  2.746226  3.217369  2.304367  3.381525
   H ( 13)  2.768936  3.262971  3.923695  2.825921  4.339302  1.080896

 
 Final energy is   -286.824483874867     


 ******************************
 **  OPTIMIZATION CONVERGED  **
 ******************************

                       Coordinates (Angstroms)
     ATOM                X               Y               Z
      1  C         1.1765739846    0.2841915378    0.3673198532
      2  C         0.7645724161   -0.9992421186   -0.3524262301
      3  C        -0.5556124114   -0.9322060329   -0.8198171957
      4  C        -1.0775357045    0.1591578107    0.1126633696
      5  C        -0.4838009420    1.4614867737   -0.4308332550
      6  N         0.7935170019    1.5227590369   -0.3250521132
      7  H         2.1730477493    0.2851892528    0.8020325173
      8  H         1.4794242213   -1.8037937785   -0.5077299310
      9  H        -1.0651906309   -1.5244964285   -1.5678084166
     10  H        -2.1351799942    0.1486692953    0.3774027606
     11  H        -1.0525514937    2.2177302121   -0.9695750721
     12  C         0.0071944864   -0.1893181727    1.1559297967
     13  H        -0.0678313775   -0.6583816552    2.1268499531

Z-matrix Print:
$molecule
0 2
N 
C  1 1.283154
H  2 1.088864 1 121.842234
C  1 1.469749 2 104.953615 3 -175.639203 0
H  4 1.087169 1 115.244218 2 -162.929441 0
C  4 1.487806 1 108.243125 2 -24.541572 0
H  6 1.080896 4 131.973460 1 -142.663150 0
C  4 1.528065 1 114.559439 2 58.847436 0
H  8 1.087399 4 120.761050 1 131.216733 0
C  8 1.402083 4 111.760806 1 -45.046256 0
H  10 1.081651 8 130.386187 4 161.910471 0
C  10 1.527416 8 98.765731 4 -21.833648 0
H  12 1.090325 10 118.217584 8 -150.761051 0
$end

 
 --------------------------------------------------------------
 
                    Orbital Energies (a.u.)
 --------------------------------------------------------------
 
 Alpha MOs
 -- Occupied --
-14.314 -10.224 -10.218 -10.216 -10.212 -10.209 -10.193  -0.959
 -0.836  -0.739  -0.685  -0.590  -0.575  -0.538  -0.513  -0.461
 -0.433  -0.413  -0.398  -0.367  -0.345  -0.284  -0.271  -0.264
 -0.145
 -- Virtual --
  0.006   0.018   0.095   0.139   0.150   0.154   0.156   0.164
  0.171   0.206   0.221   0.277   0.289   0.305   0.354   0.378
  0.490   0.503   0.511   0.535   0.576   0.581   0.591   0.611
  0.635   0.655   0.668   0.687   0.698   0.743   0.768   0.799
  0.811   0.822   0.836   0.849   0.859   0.885   0.896   0.942
  0.975   1.020   1.059   1.119   1.165   1.206   1.307   1.356
  1.400   1.454   1.460   1.512   1.595   1.645   1.667   1.739
  1.758   1.815   1.857   1.891   1.940   1.963   2.028   2.052
  2.108   2.142   2.170   2.228   2.274   2.302   2.319   2.363
  2.413   2.472   2.523   2.549   2.582   2.626   2.648   2.683
  2.693   2.810   2.848   2.908   2.961   3.947   4.203   4.262
  4.313   4.419   4.533   4.617
 
 Beta MOs
 -- Occupied --
-14.313 -10.224 -10.219 -10.218 -10.210 -10.204 -10.184  -0.955
 -0.828  -0.735  -0.673  -0.586  -0.566  -0.531  -0.510  -0.453
 -0.429  -0.408  -0.396  -0.362  -0.340  -0.274  -0.261  -0.251
 -- Virtual --
 -0.035   0.019   0.034   0.098   0.146   0.152   0.157   0.161
  0.166   0.174   0.211   0.225   0.281   0.291   0.309   0.360
  0.380   0.496   0.510   0.516   0.549   0.577   0.587   0.598
  0.618   0.639   0.673   0.677   0.691   0.706   0.749   0.772
  0.801   0.813   0.824   0.837   0.852   0.865   0.888   0.900
  0.945   0.979   1.026   1.064   1.131   1.169   1.211   1.312
  1.362   1.402   1.459   1.465   1.519   1.605   1.650   1.676
  1.748   1.767   1.818   1.863   1.900   1.949   1.971   2.041
  2.060   2.113   2.152   2.174   2.239   2.282   2.308   2.335
  2.374   2.422   2.484   2.528   2.556   2.585   2.633   2.653
  2.690   2.699   2.815   2.851   2.909   2.963   3.950   4.213
  4.263   4.330   4.424   4.536   4.621
 --------------------------------------------------------------
 
          Ground-State Mulliken Net Atomic Charges

     Atom                 Charge (a.u.)    Spin (a.u.)
  --------------------------------------------------------
      1 C                    -0.028414       0.004154
      2 C                    -0.132042      -0.216273
      3 C                    -0.081746       0.664210
      4 C                    -0.258572      -0.069090
      5 C                     0.091854       0.008613
      6 N                    -0.338945       0.064237
      7 H                     0.146689       0.004272
      8 H                     0.147977       0.011866
      9 H                     0.141954      -0.026903
     10 H                     0.137566       0.010532
     11 H                     0.143640       0.001581
     12 C                    -0.128433       0.570629
     13 H                     0.158469      -0.027829
  --------------------------------------------------------
  Sum of atomic charges =     0.000000
  Sum of spin   charges =     1.000000

 -----------------------------------------------------------------
                    Cartesian Multipole Moments
 -----------------------------------------------------------------
    Charge (ESU x 10^10)
                 0.0000
    Dipole Moment (Debye)
         X      -1.1698      Y      -1.9340      Z       0.7567
       Tot       2.3836
    Quadrupole Moments (Debye-Ang)
        XX     -38.1221     XY      -4.5351     YY     -43.1622
        XZ       2.1086     YZ       0.5915     ZZ     -39.6848
    Octopole Moments (Debye-Ang^2)
       XXX      -8.6343    XXY      -9.6448    XYY      -9.3523
       YYY     -24.7175    XXZ       3.1812    XYZ       2.5094
       YYZ      -1.1018    XZZ      -4.9875    YZZ      -9.5771
       ZZZ       8.0149
    Hexadecapole Moments (Debye-Ang^3)
      XXXX    -216.5144   XXXY      -7.6797   XXYY     -88.7496
      XYYY     -22.5408   YYYY    -302.1727   XXXZ      -7.9765
      XXYZ       4.2363   XYYZ       2.2654   YYYZ       4.5545
      XXZZ     -63.6919   XYZZ      -0.5250   YYZZ     -71.6177
      XZZZ     -10.0942   YZZZ      -0.7131   ZZZZ    -152.2717
 -----------------------------------------------------------------
Archival summary:
1\1\c8-73\TS\ProcedureUnspecified\6-31G*\166(2)\hpark21\FriMar412:32:272022FriMar412:32:272022\0\\#,TS,ProcedureUnspecified,6-31G*,\\0,2\N\C,1,1.28315\H,2,1.08886,1,121.842\C,1,1.46975,2,104.954,3,-175.639,0\H,4,1.08717,1,115.244,2,-162.929,0\C,4,1.48781,1,108.243,2,-24.5416,0\H,6,1.0809,4,131.973,1,-142.663,0\C,4,1.52806,1,114.559,2,58.8474,0\H,8,1.0874,4,120.761,1,131.217,0\C,8,1.40208,4,111.761,1,-45.0463,0\H,10,1.08165,8,130.386,4,161.91,0\C,10,1.52742,8,98.7657,4,-21.8336,0\H,12,1.09032,10,118.218,8,-150.761,0\\\@

 Total job time:  350.36s(wall), 1303.05s(cpu) 
 Fri Mar  4 12:32:27 2022

        *************************************************************
        *                                                           *
        *  Thank you very much for using Q-Chem.  Have a nice day.  *
        *                                                           *
        *************************************************************


