13
image # 1 Energy = -286.83831
C 1.20325   0.33920   0.33461   
C 0.66496   -1.08589  -0.14293  
C -0.61339  -0.95121  -0.82786  
C -1.08064  0.14277   0.12976   
C -0.51369  1.43321   -0.45004  
N 0.76525   1.51235   -0.37914  
H 2.21980   0.33390   0.71457   
H 1.37288   -1.90783  -0.18306  
H -0.93092  -1.19250  -1.83959  
H -2.11984  0.14931   0.46587   
H -1.10298  2.16570   -0.99949  
C 0.09187   -0.32353  1.06626   
H 0.04345   -0.61548  2.11103   
13
image # 2 Energy = -286.83394
C 1.18622   0.32733   0.33024   
C 0.67503   -1.08454  -0.16317  
C -0.60682  -0.99936  -0.82750  
C -1.09002  0.17431   0.14636   
C -0.51511  1.45402   -0.43713  
N 0.77028   1.50140   -0.39491  
H 2.19412   0.33054   0.72990   
H 1.42319   -1.88594  -0.24447  
H -0.89958  -1.31177  -1.85215  
H -2.13648  0.22521   0.51682   
H -1.09016  2.20716   -0.97902  
C 0.06957   -0.31155  1.06384   
H 0.01243   -0.63203  2.10564   
13
image # 3 Energy = -286.82417
C 1.17280   0.31885   0.32255   
C 0.69320   -1.08586  -0.18259  
C -0.62292  -1.03935  -0.83440  
C -1.11734  0.19174   0.14942   
C -0.50665  1.47475   -0.42822  
N 0.76844   1.49063   -0.40709  
H 2.16109   0.32360   0.74988   
H 1.47411   -1.83966  -0.32190  
H -0.85761  -1.45809  -1.83358  
H -2.13279  0.31345   0.56822   
H -1.07179  2.25750   -0.94910  
C 0.04951   -0.30907  1.06560   
H -0.02771  -0.64982  2.08817   
13
image # 4 Energy = -286.81162
C 1.15330   0.30561   0.31538   
C 0.68644   -1.07682  -0.21129  
C -0.61750  -1.07748  -0.83615  
C -1.13209  0.20575   0.15303   
C -0.51814  1.48937   -0.42968  
N 0.78077   1.48647   -0.41075  
H 2.13764   0.31579   0.77125   
H 1.51599   -1.78769  -0.39810  
H -0.82308  -1.59648  -1.79313  
H -2.12208  0.38948   0.60812   
H -1.04957  2.30140   -0.91511  
C 0.02844   -0.30335  1.05163   
H -0.06776  -0.66903  2.07479   
13
image # 5 Energy = -286.79476
C 1.14089   0.29915   0.31393   
C 0.68265   -1.06731  -0.25293  
C -0.60488  -1.11628  -0.82859  
C -1.12863  0.22836   0.14914   
C -0.49746  1.48673   -0.42715  
N 0.76458   1.48624   -0.40868  
H 2.10964   0.30279   0.79173   
H 1.54851   -1.72186  -0.48247  
H -0.79402  -1.74961  -1.73880  
H -2.11412  0.46047   0.64530   
H -1.02931  2.35283   -0.88077  
C -0.00217  -0.29548  1.04115   
H -0.11100  -0.68905  2.05265   
13
image # 6 Energy = -286.77796
C 1.12651   0.29141   0.31648   
C 0.70948   -1.06507  -0.29884  
C -0.59105  -1.18356  -0.83530  
C -1.13586  0.28043   0.17841   
C -0.50922  1.50284   -0.41811  
N 0.77884   1.47472   -0.41099  
H 2.08297   0.29015   0.80121   
H 1.57694   -1.67694  -0.55691  
H -0.76707  -1.86836  -1.71148  
H -2.11967  0.51441   0.67705   
H -1.01333  2.38395   -0.85812  
C -0.03712  -0.26590  1.05415   
H -0.14478  -0.70634  2.03140   
13
image # 7 Energy = -286.79261
C 1.09874   0.26560   0.33449   
C 0.73142   -1.05336  -0.40118  
C -0.54647  -1.26488  -0.84445  
C -1.14553  0.36882   0.26071   
C -0.51328  1.52418   -0.39972  
N 0.79657   1.45986   -0.40669  
H 2.07630   0.26899   0.79947   
H 1.60268   -1.67230  -0.62030  
H -0.74907  -1.94376  -1.69818  
H -2.13859  0.51707   0.67642   
H -1.00769  2.37776   -0.85131  
C -0.08820  -0.15208  1.10368   
H -0.16687  -0.72823  2.01081   
13
image # 8 Energy = -286.80047
C 1.06664   0.21851   0.35434   
C 0.77455   -1.04035  -0.52308  
C -0.46521  -1.33392  -0.86548  
C -1.15266  0.48916   0.38728   
C -0.50704  1.54083   -0.38133  
N 0.80920   1.43895   -0.40504  
H 2.07074   0.23930   0.78947   
H 1.63781   -1.69853  -0.68991  
H -0.74700  -1.99017  -1.68995  
H -2.19564  0.49039   0.65953   
H -1.01478  2.35989   -0.86630  
C -0.14181  -0.00357  1.20412   
H -0.18623  -0.74660  1.98762   
13
image # 9 Energy = -286.81043
C 1.04938   0.20126   0.35193   
C 0.80752   -1.05414  -0.54157  
C -0.41604  -1.40079  -0.88868  
C -1.16442  0.56949   0.47454   
C -0.50272  1.56198   -0.36896  
N 0.79660   1.41806   -0.42924  
H 2.04622   0.22954   0.79049   
H 1.67886   -1.68073  -0.75057  
H -0.72423  -2.05294  -1.69721  
H -2.23078  0.53512   0.69310   
H -1.01023  2.37823   -0.87116  
C -0.16938  0.01258   1.21289   
H -0.21262  -0.75612  1.98343   
13
image # 10 Energy = -286.82047
C 1.02700   0.18478   0.34636   
C 0.83345   -1.07128  -0.55410  
C -0.35960  -1.46868  -0.91221  
C -1.18429  0.66010   0.55973   
C -0.50197  1.58220   -0.35244  
N 0.78165   1.39473   -0.45870  
H 2.02203   0.22192   0.79276   
H 1.72218   -1.65897  -0.80918  
H -0.69872  -2.11794  -1.71093  
H -2.25782  0.58692   0.73235   
H -1.00507  2.39684   -0.87690  
C -0.19080  0.01075   1.22317   
H -0.24069  -0.76093  1.97678   
13
image # 11 Energy = -286.82776
C 1.00319   0.16782   0.34268   
C 0.86898   -1.08434  -0.55919  
C -0.31088  -1.52741  -0.95272  
C -1.18772  0.74003   0.64442   
C -0.50535  1.60507   -0.33783  
N 0.75257   1.36574   -0.48752  
H 1.99916   0.21385   0.79829   
H 1.76770   -1.63091  -0.86232  
H -0.68133  -2.18433  -1.71629  
H -2.27356  0.64284   0.77369   
H -0.99779  2.40804   -0.88453  
C -0.21364  0.01209   1.22205   
H -0.27419  -0.76800  1.97379   
13
image # 12 Energy = -286.83190
C 0.98765   0.15614   0.33622   
C 0.88555   -1.10449  -0.57214  
C -0.27023  -1.56178  -0.97381  
C -1.19511  0.78151   0.68350   
C -0.50903  1.62469   -0.32365  
N 0.73587   1.34417   -0.50541  
H 1.97498   0.20855   0.80589   
H 1.80456   -1.58599  -0.90813  
H -0.66562  -2.25941  -1.70052  
H -2.26955  0.70385   0.81510   
H -0.99032  2.42523   -0.88364  
C -0.23152  0.00476   1.21539   
H -0.31002  -0.77568  1.96477   
13
image # 13 Energy = -286.83484
C 0.97682   0.14424   0.32886   
C 0.89579   -1.09698  -0.59931  
C -0.25777  -1.60877  -0.95896  
C -1.19845  0.79631   0.67677   
C -0.50370  1.63862   -0.31596  
N 0.73618   1.34118   -0.50348  
H 1.95270   0.19428   0.81596   
H 1.82403   -1.52030  -0.98283  
H -0.63277  -2.35576  -1.63182  
H -2.27053  0.76151   0.83873   
H -0.97445  2.45821   -0.85763  
C -0.24881  0.00251   1.20508   
H -0.35117  -0.79085  1.93848   
13
image # 14 Energy = -286.83742
C 0.94502   0.12254   0.31125   
C 0.90426   -1.09608  -0.61323  
C -0.23705  -1.66844  -0.94216  
C -1.19772  0.82144   0.68929   
C -0.49844  1.65619   -0.30695  
N 0.73185   1.33155   -0.51070  
H 1.92772   0.18595   0.82473   
H 1.84166   -1.46117  -1.05574  
H -0.57547  -2.45368  -1.59625  
H -2.27555  0.83274   0.88077   
H -0.95672  2.49827   -0.82833  
C -0.27491  -0.00231  1.19237   
H -0.38561  -0.79897  1.91051   
13
image # 15 Energy = -286.84021
C 0.93061   0.10895   0.30378   
C 0.90121   -1.10581  -0.63517  
C -0.21705  -1.74238  -0.90673  
C -1.21146  0.83866   0.67716   
C -0.49772  1.67625   -0.29964  
N 0.72829   1.32543   -0.51642  
H 1.88317   0.18205   0.82553   
H 1.83457   -1.39183  -1.11802  
H -0.49308  -2.55501  -1.57110  
H -2.25937  0.91447   0.93587   
H -0.93173  2.54737   -0.78642  
C -0.29877  -0.01435  1.16015   
H -0.41718  -0.81198  1.88935   
13
image # 16 Energy = -286.84253
C 0.90392   0.09360   0.28664   
C 0.90536   -1.11615  -0.65237  
C -0.17627  -1.81031  -0.89544  
C -1.20998  0.87359   0.69380   
C -0.49673  1.69056   -0.28470  
N 0.71655   1.31431   -0.52699  
H 1.85277   0.17555   0.83009   
H 1.83662   -1.33646  -1.17505  
H -0.42959  -2.63770  -1.54721  
H -2.25451  0.98341   0.98373   
H -0.91351  2.58547   -0.76285  
C -0.32934  -0.02323  1.14502   
H -0.45078  -0.81792  1.86757   
13
image # 17 Energy = -286.84459
C 0.87222   0.08084   0.26556   
C 0.90589   -1.12456  -0.66402  
C -0.13291  -1.88664  -0.88181  
C -1.21936  0.90115   0.71633   
C -0.49090  1.72643   -0.28247  
N 0.69906   1.30470   -0.53623  
H 1.82141   0.16736   0.83391   
H 1.83316   -1.27962  -1.23268  
H -0.35585  -2.72542  -1.52528  
H -2.24184  1.05694   1.03453   
H -0.88957  2.61960   -0.73336  
C -0.35333  -0.03662  1.12259   
H -0.49042  -0.82660  1.85000   
13
image # 18 Energy = -286.84598
C 0.84927   0.07967   0.25204   
C 0.89113   -1.13409  -0.68013  
C -0.09163  -1.96200  -0.84936  
C -1.22676  0.92937   0.70706   
C -0.46265  1.72913   -0.26246  
N 0.67248   1.31226   -0.54162  
H 1.77988   0.15652   0.82774   
H 1.81008   -1.22202  -1.28412  
H -0.26554  -2.82054  -1.51156  
H -2.22464  1.12746   1.08850   
H -0.86750  2.67483   -0.70527  
C -0.37144  -0.05240  1.09505   
H -0.53013  -0.83655  1.83605   
13
image # 19 Energy = -286.84727
C 0.81754   0.05616   0.23602   
C 0.89695   -1.13299  -0.70306  
C -0.04575  -2.04633  -0.83629  
C -1.22015  0.96018   0.72732   
C -0.48049  1.76560   -0.24991  
N 0.67728   1.30250   -0.55016  
H 1.74527   0.14461   0.82101   
H 1.78425   -1.17197  -1.33470  
H -0.17816  -2.90053  -1.48320  
H -2.20631  1.19048   1.13344   
H -0.84047  2.70573   -0.67232  
C -0.41146  -0.04943  1.07903   
H -0.56995  -0.83889  1.80958   
13
image # 20 Energy = -286.84760
C 0.78628   0.04430   0.21670   
C 0.90249   -1.13459  -0.72543  
C 0.00430   -2.12072  -0.82599  
C -1.21334  0.99531   0.75055   
C -0.47396  1.79113   -0.23213  
N 0.66230   1.29371   -0.56033  
H 1.70919   0.12703   0.81421   
H 1.76438   -1.12506  -1.38731  
H -0.09409  -2.98138  -1.45214  
H -2.19457  1.25303   1.17829   
H -0.81716  2.73895   -0.64779  
C -0.43935  -0.04773  1.06537   
H -0.62023  -0.84616  1.78755   
13
image # 21 Energy = -286.84952
C 0.76091   0.03003   0.19474   
C 0.89279   -1.14671  -0.74870  
C 0.06512   -2.17247  -0.80919  
C -1.22112  1.02671   0.77865   
C -0.46607  1.81248   -0.21590  
N 0.65131   1.28864   -0.57172  
H 1.67386   0.11078   0.80679   
H 1.74029   -1.08287  -1.43331  
H -0.00902  -3.05984  -1.42399  
H -2.16961  1.30935   1.21695   
H -0.79383  2.77370   -0.62378  
C -0.47084  -0.04663  1.05245   
H -0.66938  -0.85148  1.76412   
13
image # 22 Energy = -286.84960
C 0.73034   0.01666   0.17745   
C 0.89469   -1.14837  -0.76934  
C 0.11484   -2.22876  -0.80313  
C -1.22986  1.07630   0.79821   
C -0.45918  1.83066   -0.20141  
N 0.63714   1.28166   -0.58097  
H 1.64048   0.09467   0.79864   
H 1.71754   -1.05024  -1.47388  
H 0.06905   -3.12196  -1.39145  
H -2.14921  1.35802   1.25249   
H -0.77124  2.79951   -0.59957  
C -0.48806  -0.06466  1.05220   
H -0.71440  -0.84825  1.73418   
13
image # 23 Energy = -286.85054
C 0.69895   0.00335   0.15912   
C 0.88810   -1.16494  -0.79108  
C 0.17774   -2.26803  -0.79456  
C -1.20986  1.09686   0.82712   
C -0.45452  1.85241   -0.18313  
N 0.62107   1.26917   -0.59219  
H 1.60352   0.07682   0.78855   
H 1.69605   -1.01876  -1.51746  
H 0.15302   -3.19058  -1.36077  
H -2.13626  1.41316   1.29317   
H -0.74607  2.82613   -0.57531  
C -0.52387  -0.04099  1.03709   
H -0.76789  -0.85458  1.70946   
