13   
From qcopt_rct.out: Frame 2 / 2, Energy=    -286.8383073047
C        1.2032459294    0.3391973390    0.3346105013
C        0.6649579777   -1.0858932313   -0.1429279517
C       -0.6133864524   -0.9512136048   -0.8278617436
C       -1.0806369947    0.1427653032    0.1297581032
C       -0.5136885281    1.4332116739   -0.4500366488
N        0.7652460932    1.5123490674   -0.3791405000
H        2.2197977028    0.3338952738    0.7145726306
H        1.3728809849   -1.9078290518   -0.1830612541
H       -0.9309221282   -1.1924953842   -1.8395863126
H       -2.1198405083    0.1493128295    0.4658743792
H       -1.1029750191    2.1657020476   -0.9994903586
C        0.0918671170   -0.3235255426    1.0662567220
H        0.0434538265   -0.6154767204    2.1110324324
13   
From qcopt_prd.out: Frame 2 / 2, Energy=    -286.8505366493
C        0.6989420174    0.0034297681    0.1591628452
C        0.8882504103   -1.1649876204   -0.7908505585
C        0.1779843411   -2.2681388692   -0.7942033658
C       -1.2100029678    1.0968853981    0.8268774752
C       -0.4546652715    1.8523425712   -0.1834419154
N        0.6209957850    1.2691278454   -0.5923431271
H        1.6034670623    0.0770750919    0.7886398945
H        1.6962339632   -1.0188471679   -1.5172037137
H        0.1533738980   -3.1907709279   -1.3602779664
H       -2.1364600187    1.4131728855    1.2928203771
H       -0.7462706190    2.8259806959   -0.5757869040
C       -0.5239274543   -0.0408790471    1.0370675996
H       -0.7679211460   -0.8543906236    1.7095393592
