13   
From optimize.out: Frame 1 / 2, Energy=    -286.8549487882
C        1.4686732685    0.4434648827   -0.3530738584
C        0.8844898150   -0.7852997800    0.2158355540
C       -0.7449175472   -0.8064664611    0.1739773918
C       -1.3117588051    0.4547650255   -0.3303380734
C       -0.5481144770    1.5423396026   -0.5757289614
N        0.8460300516    1.5355555592   -0.6348741906
H        2.5303145794    0.3995219587   -0.6079325517
H        1.4411642486   -1.6994013932    0.0000858207
H       -1.2584586499   -1.7272652578   -0.1086158969
H       -2.3826894973    0.4875523101   -0.5153848406
H       -1.0043020908    2.4797194493   -0.8832408489
C        0.0350901728   -0.7972998302    1.4092860838
H        0.0444789317   -1.5271860652    2.2100043717
13   
From optimize.out: Frame 56 / 57, Energy=    -286.8549487881
C        1.4686732685    0.4434648827   -0.3530738584
C        0.8844898150   -0.7852997800    0.2158355540
C       -0.7449175472   -0.8064664611    0.1739773918
C       -1.3117588051    0.4547650255   -0.3303380734
C       -0.5481144770    1.5423396026   -0.5757289614
N        0.8460300516    1.5355555592   -0.6348741906
H        2.5303145794    0.3995219587   -0.6079325517
H        1.4411642486   -1.6994013932    0.0000858207
H       -1.2584586499   -1.7272652578   -0.1086158969
H       -2.3826894973    0.4875523101   -0.5153848406
H       -1.0043020908    2.4797194493   -0.8832408489
C        0.0350901728   -0.7972998302    1.4092860838
H        0.0444789317   -1.5271860652    2.2100043717
13   
From optimize.out: Frame 53 / 57, Energy=    -286.8549356414
C        1.4626957128    0.4460671929   -0.3463318039
C        0.8859369154   -0.7872051228    0.2149007936
C       -0.7491660547   -0.7858357030    0.2021648706
C       -1.3153121423    0.4615553863   -0.3301317746
C       -0.5512764286    1.5466637092   -0.5878280168
N        0.8437014029    1.5431358769   -0.6209231053
H        2.5285076902    0.4059585563   -0.5854436809
H        1.4395112896   -1.6998082080   -0.0112015303
H       -1.2807525077   -1.7053076620   -0.0498536621
H       -2.3804943006    0.4832176433   -0.5456797995
H       -1.0044598653    2.4755957402   -0.9243745772
C        0.0547520272   -0.7934990329    1.4244554004
H        0.0663562611   -1.5905383765    2.1602468859
13   
From optimize.out: Frame 51 / 57, Energy=    -286.8548783919
C        1.4655577509    0.4539952843   -0.3532757116
C        0.8867452139   -0.7552456426    0.2531469450
C       -0.7482691688   -0.7944406773    0.1937199713
C       -1.3090084714    0.4642308640   -0.3206713587
C       -0.5461587717    1.5427663636   -0.6066581971
N        0.8453674291    1.5340617108   -0.6809467965
H        2.5263105855    0.3903708543   -0.6076561663
H        1.4537687169   -1.6658420925    0.0490618210
H       -1.2590785673   -1.7144197955   -0.0962956936
H       -2.3832746862    0.5075956971   -0.4835045709
H       -1.0050094631    2.4764674837   -0.9217641138
C        0.0212258697   -0.8013780255    1.4421905068
H        0.0518235623   -1.6381620245    2.1326533646
13   
From optimize.out: Frame 48 / 57, Energy=    -286.8547766722
C        1.4643180354    0.4533623688   -0.3602555216
C        0.9072928831   -0.7658576542    0.2624212773
C       -0.7297526715   -0.7856845543    0.1822852754
C       -1.3188800965    0.4664388694   -0.3239549849
C       -0.5577523938    1.5407426634   -0.6260387548
N        0.8396863615    1.5203031379   -0.7137528059
H        2.5300769635    0.3953467327   -0.5986330084
H        1.4789533085   -1.6729490508    0.0651933059
H       -1.2375871340   -1.7092103468   -0.1054744523
H       -2.4001264756    0.5100453720   -0.4274655641
H       -0.9977377330    2.4918588560   -0.9138107396
C        0.0165613126   -0.7990773274    1.4394191638
H        0.0049476399   -1.6453190667    2.1200668091
13   
From optimize.out: Frame 45 / 57, Energy=    -286.8546416099
C        1.4679393256    0.4449772487   -0.3881467576
C        0.9097141103   -0.7675856670    0.2567954635
C       -0.6989384698   -0.7935198927    0.1649998318
C       -1.3048358179    0.4571605861   -0.3215247050
C       -0.5604922994    1.5342100690   -0.6279859189
N        0.8285238769    1.5018666016   -0.7404401768
H        2.5355886736    0.4165929538   -0.6175503362
H        1.5096027646   -1.6642278608    0.0959940770
H       -1.2234878149   -1.7167657034   -0.0847285957
H       -2.3895599188    0.5056494787   -0.3755081526
H       -0.9930115818    2.4983664107   -0.8793707742
C        0.0354502492   -0.7733505184    1.4427775636
H       -0.1164930975   -1.6433737062    2.0746884812
13   
From optimize.out: Frame 43 / 57, Energy=    -286.8545055827
C        1.4728518372    0.4326413257   -0.4143828597
C        0.8844367332   -0.7453618869    0.2482585773
C       -0.6748394002   -0.8139526814    0.1343695605
C       -1.2928948295    0.4382201729   -0.3237484649
C       -0.5557487754    1.5227720838   -0.6177335399
N        0.8222126901    1.4802108438   -0.7509691812
H        2.5412952153    0.4173941996   -0.6300543515
H        1.5239818771   -1.6257582308    0.1220691602
H       -1.2205965710   -1.7359187927   -0.0490974286
H       -2.3775300589    0.4994703568   -0.3473369584
H       -0.9819942070    2.4965949467   -0.8361477020
C        0.0710969809   -0.7377021977    1.4598477015
H       -0.2122714917   -1.6286101400    2.0049254866
13   
From optimize.out: Frame 40 / 57, Energy=    -286.8543074834
C        1.4733356289    0.4163803601   -0.4374443083
C        0.8392974995   -0.7257107887    0.2436655243
C       -0.6529450888   -0.8295505288    0.0776825994
C       -1.2930103505    0.4177374391   -0.3408612668
C       -0.5517688097    1.5199120688   -0.6031664111
N        0.8382538105    1.4773760925   -0.7560931505
H        2.5445838051    0.4028839864   -0.6333354866
H        1.4959650351   -1.6027440854    0.1835328716
H       -1.2146981511   -1.7506200703   -0.0167392219
H       -2.3758191560    0.4921312168   -0.3486101315
H       -0.9892872836    2.4948140998   -0.7840019113
C        0.1242384356   -0.6931897757    1.4980806796
H       -0.2381453750   -1.6194200147    1.9172902130
13   
From optimize.out: Frame 37 / 57, Energy=    -286.8541201534
C        1.4708315203    0.4087281656   -0.4643132355
C        0.8169140615   -0.7449517501    0.2024029153
C       -0.6320251018   -0.8405359063    0.0052949873
C       -1.2884899334    0.3982761310   -0.3510897796
C       -0.5418693562    1.5239828730   -0.5901057407
N        0.8544240872    1.5024373493   -0.7605420216
H        2.5484037952    0.4050020378   -0.6289227218
H        1.4463117741   -1.6364098476    0.2451739398
H       -1.1930722328   -1.7658232278   -0.0135135433
H       -2.3717613481    0.4686345899   -0.3374965913
H       -1.0040723763    2.4963790350   -0.7244115633
C        0.1456036223   -0.6288751441    1.5387258982
H       -0.2511985120   -1.5868443056    1.8787974564
13   
From optimize.out: Frame 34 / 57, Energy=    -286.8534554834
C        1.4688727997    0.4022496620   -0.4780001357
C        0.8133348648   -0.7785995315    0.1252469788
C       -0.6168242742   -0.8537266284   -0.0559677989
C       -1.2773899207    0.3808679761   -0.3510463817
C       -0.5315615760    1.5189654119   -0.5746372104
N        0.8561147596    1.5181809018   -0.7437249860
H        2.5516399117    0.4098053350   -0.6082870462
H        1.4188339628   -1.6769891075    0.2289404051
H       -1.1744128416   -1.7815715496   -0.0289687212
H       -2.3611896867    0.4461024109   -0.3231544824
H       -1.0119757506    2.4876138376   -0.6782288844
C        0.1331465911   -0.5481299121    1.5800979672
H       -0.2685888398   -1.5247688062    1.9077302957
13   
From optimize.out: Frame 32 / 57, Energy=    -286.8516107029
C        1.4703074762    0.3964358369   -0.4805013562
C        0.8153503380   -0.8076602186    0.0470834109
C       -0.6060418046   -0.8694052832   -0.0967311260
C       -1.2674273825    0.3667263342   -0.3482537037
C       -0.5242331171    1.5115841651   -0.5583333441
N        0.8544281080    1.5235189315   -0.7157289553
H        2.5556673532    0.4107758486   -0.5866540415
H        1.4098341554   -1.7089914894    0.1684839978
H       -1.1591554961   -1.7997816535   -0.0473704678
H       -2.3515960738    0.4269244993   -0.3127204087
H       -1.0148813009    2.4774986909   -0.6450271986
C        0.1089141222   -0.4744540456    1.6102239291
H       -0.2911663780   -1.4531716163    1.9655292641
13   
From optimize.out: Frame 29 / 57, Energy=    -286.8445139966
C        1.4721836964    0.3886516610   -0.4778458079
C        0.8176735402   -0.8322370958   -0.0212480586
C       -0.5983826975   -0.8864978271   -0.1318181750
C       -1.2595133773    0.3527811805   -0.3436582195
C       -0.5185643750    1.5028595780   -0.5392830400
N        0.8518030479    1.5221948396   -0.6837563349
H        2.5588023919    0.4076663007   -0.5674720490
H        1.4076652525   -1.7359678151    0.0982734239
H       -1.1478966314   -1.8192017781   -0.0745316181
H       -2.3439403410    0.4094382536   -0.3046694850
H       -1.0155068123    2.4669739916   -0.6136107114
C        0.0875920804   -0.4045221842    1.6287698225
H       -0.3119157747   -1.3721391046    2.0308502530
13   
From optimize.out: Frame 26 / 57, Energy=    -286.8310460273
C        1.4735218918    0.3786301516   -0.4719010127
C        0.8191407477   -0.8546603408   -0.0819615385
C       -0.5927729933   -0.9042015672   -0.1656795240
C       -1.2533285986    0.3377109930   -0.3374162456
C       -0.5137244883    1.4931326033   -0.5181845245
N        0.8493146758    1.5172583103   -0.6499973918
H        2.5608602168    0.4015714363   -0.5481197950
H        1.4073467908   -1.7606095504    0.0274753586
H       -1.1401543424   -1.8386564408   -0.1085382013
H       -2.3379084310    0.3923896676   -0.2973909683
H       -1.0151572659    2.4559018000   -0.5818545928
C        0.0710836702   -0.3353415707    1.6382802109
H       -0.3282218735   -1.2831254921    2.0952882249
13   
From optimize.out: Frame 24 / 57, Energy=    -286.8200209778
C        1.4741392373    0.3664256593   -0.4625058503
C        0.8194847518   -0.8757973093   -0.1356900402
C       -0.5890377801   -0.9222852244   -0.1981253731
C       -1.2488846915    0.3213253253   -0.3296603159
C       -0.5094532304    1.4825376391   -0.4953100508
N        0.8473171395    1.5097851598   -0.6150625659
H        2.5618737202    0.3928146193   -0.5272380656
H        1.4073349425   -1.7838049931   -0.0420633321
H       -1.1355402703   -1.8579671453   -0.1473820571
H       -2.3335568936    0.3754776074   -0.2908443636
H       -1.0141677311    2.4442895781   -0.5496331260
C        0.0594336091   -0.2663446536    1.6382734755
H       -0.3389428034   -1.1864562626    2.1552416652
13   
From optimize.out: Frame 21 / 57, Energy=    -286.8063839670
C        1.4739022522    0.3523246120   -0.4493911964
C        0.8186230331   -0.8964290565   -0.1830011891
C       -0.5871247941   -0.9406879048   -0.2283043493
C       -1.2461505741    0.3037873132   -0.3209107400
C       -0.5055143510    1.4710440188   -0.4706537844
N        0.8458217273    1.5006020817   -0.5794557946
H        2.5618690651    0.3816949514   -0.5041631943
H        1.4068742734   -1.8062003578   -0.1092247878
H       -1.1336512948   -1.8771753245   -0.1884947237
H       -2.3309075409    0.3588079387   -0.2857611908
H       -1.0126864169    2.4320777962   -0.5167461245
C        0.0524492883   -0.1967294634    1.6285943664
H       -0.3435046677   -1.0831166051    2.2075127084
13   
From optimize.out: Frame 18 / 57, Energy=    -286.7938030433
C        1.4724063458    0.3361025185   -0.4313919327
C        0.8161812881   -0.9170987141   -0.2229173641
C       -0.5874762959   -0.9594161760   -0.2547792270
C       -1.2456068850    0.2851390887   -0.3118581816
C       -0.5018746234    1.4583163194   -0.4436746049
N        0.8448452551    1.4899194138   -0.5431835769
H        2.5605165641    0.3679849428   -0.4780726441
H        1.4053968730   -1.8280905760   -0.1719948621
H       -1.1348191440   -1.8962026180   -0.2291138149
H       -2.3304381829    0.3428017409   -0.2836992194
H       -1.0106475467    2.4190425637   -0.4828852993
C        0.0515317109   -0.1250979039    1.6069494465
H       -0.3400153591   -0.9734005997    2.2466212804
13   
From optimize.out: Frame 16 / 57, Energy=    -286.7845755134
C        1.4693780397    0.3176220866   -0.4078194481
C        0.8119462174   -0.9381632079   -0.2542888344
C       -0.5904577916   -0.9783319959   -0.2759692797
C       -1.2476314126    0.2656715521   -0.3036390160
C       -0.4985132966    1.4443827831   -0.4141721426
N        0.8444268344    1.4785083643   -0.5065028258
H        2.5575740599    0.3519802536   -0.4487757843
H        1.4020702706   -1.8498972795   -0.2265680727
H       -1.1390722778   -1.9149775221   -0.2646108415
H       -2.3324899529    0.3275738617   -0.2858523980
H       -1.0078958673    2.4053838130   -0.4479908419
C        0.0581349590   -0.0499244563    1.5706062639
H       -0.3274697822   -0.8598282527    2.2655832213
13   
From optimize.out: Frame 13 / 57, Energy=    -286.7707047735
C        1.4655010076    0.2972456250   -0.3798774089
C        0.8065630660   -0.9592174023   -0.2764579652
C       -0.5958412949   -0.9967384579   -0.2911807571
C       -1.2522120744    0.2460569329   -0.2973019629
C       -0.4955523664    1.4303710653   -0.3831066113
N        0.8447419295    1.4684737152   -0.4703824869
H        2.5536138813    0.3337932369   -0.4167486022
H        1.3959330514   -1.8721603497   -0.2681223603
H       -1.1456596144   -1.9330432635   -0.2899244405
H       -2.3370774198    0.3111971955   -0.2907912649
H       -1.0045141308    2.3922153850   -0.4124935777
C        0.0721456287    0.0289172552    1.5175298985
H       -0.3076416637   -0.7471109376    2.2588575393
13   
From optimize.out: Frame 10 / 57, Energy=    -286.7558150909
C        1.4630463594    0.2760211981   -0.3509233767
C        0.8016607082   -0.9791822929   -0.2898680910
C       -0.6022434727   -1.0128416718   -0.3007052776
C       -1.2587634335    0.2278068804   -0.2936482848
C       -0.4943375391    1.4184481046   -0.3530288968
N        0.8455995402    1.4619704970   -0.4356353065
H        2.5505006618    0.3116663094   -0.3823712085
H        1.3863390356   -1.8950381062   -0.2922574064
H       -1.1527140352   -1.9483559100   -0.3008405368
H       -2.3435536751    0.2903487324   -0.2947081580
H       -1.0023116566    2.3807992876   -0.3772411824
C        0.0913388729    0.1091916686    1.4478983997
H       -0.2845613659   -0.6408346972    2.2233293259
13   
From optimize.out: Frame 8 / 57, Energy=    -286.7429786092
C        1.4643598177    0.2567275123   -0.3247891441
C        0.7974445104   -0.9981417209   -0.2979223206
C       -0.6049857997   -1.0256473946   -0.3046735942
C       -1.2653930086    0.2137599355   -0.2919745388
C       -0.4973781110    1.4106716151   -0.3280880646
N        0.8454871603    1.4542221866   -0.4013110211
H        2.5493136211    0.2861206571   -0.3459522202
H        1.3721570068   -1.9176982808   -0.2998722529
H       -1.1535475914   -1.9586411085   -0.2947077662
H       -2.3484672520    0.2670541778   -0.2933747544
H       -1.0046063202    2.3702884825   -0.3440822381
C        0.1096445355    0.1848141008    1.3665289699
H       -0.2640285689   -0.5435301631    2.1602189453
13   
From optimize.out: Frame 5 / 57, Energy=    -286.7126973484
C        1.4694726635    0.2404721621   -0.3070093486
C        0.7869682012   -1.0065388131   -0.2882274967
C       -0.6087541185   -1.0304335323   -0.3048604030
C       -1.2655968133    0.2032139059   -0.2902820208
C       -0.5053158955    1.4062948509   -0.3151957759
N        0.8382599995    1.4321094804   -0.3615906648
H        2.5478342977    0.2636167401   -0.3137377146
H        1.3477354127   -1.9278531460   -0.2775468958
H       -1.1545554960   -1.9555309687   -0.2761809511
H       -2.3435077314    0.2470697109   -0.2872383460
H       -1.0101771255    2.3593547051   -0.3216879653
C        0.1317619959    0.2367734560    1.2734776735
H       -0.2341253900   -0.4685485511    2.0700799092
13   
From optimize.out: Frame 2 / 57, Energy=    -286.6605056957
C        1.4712911502    0.2480595148   -0.2937805142
C        0.7886351347   -1.0049053054   -0.2515311511
C       -0.6094763116   -1.0368789099   -0.2739451860
C       -1.2623080504    0.2021483389   -0.2663894946
C       -0.4987698842    1.4098425898   -0.3172373534
N        0.8424844277    1.4388261391   -0.3861054879
H        2.5586222322    0.2637998932   -0.3006117293
H        1.3511360427   -1.9353301386   -0.2209050832
H       -1.1572411550   -1.9667222154   -0.2230057817
H       -2.3495079544    0.2412946511   -0.2549098202
H       -1.0162194859    2.3658568982   -0.3341038834
C        0.1389686876    0.2620826600    1.1633110336
H       -0.2576148336   -0.4880741159    1.9592144514
13   
C5H5N+CH->C6H6N atoms 1-13 frame 55 charge +0.000 sz -1.000 sz^2 0.927
C        1.4729150206    0.2570656037   -0.2822717150
C        0.7905661276   -1.0034028103   -0.2150058145
C       -0.6112129330   -1.0471551003   -0.2462643179
C       -1.2589976881    0.2021014647   -0.2414988847
C       -0.4913174900    1.4145574072   -0.3223451886
N        0.8485775121    1.4498102440   -0.4216641477
H        2.5690330919    0.2663209450   -0.2860485496
H        1.3563373787   -1.9407066707   -0.1593279944
H       -1.1603302468   -1.9792378148   -0.1728151123
H       -2.3552633507    0.2380109379   -0.2151568777
H       -1.0212834249    2.3729129085   -0.3481338325
C        0.1448998816    0.2840634510    1.0648539013
H       -0.2839238791   -0.5143405660    1.8456785336
13   
C5H5N+CH->C6H6N atoms 1-13 frame 57 charge +0.000 sz -1.000 sz^2 0.847
C        1.4766181311    0.2695898115   -0.2723311862
C        0.7916611589   -1.0064127568   -0.1813726813
C       -0.6120240663   -1.0606859950   -0.2233975869
C       -1.2581452264    0.2011740571   -0.2169688335
C       -0.4819364516    1.4237175707   -0.3301630288
N        0.8563131968    1.4648261371   -0.4682272607
H        2.5716577129    0.2702311721   -0.2670064575
H        1.3589229671   -1.9379831697   -0.0939457666
H       -1.1623403697   -1.9914017452   -0.1248116220
H       -2.3525953032    0.2370364213   -0.1657515045
H       -1.0230816416    2.3741528787   -0.3622916649
C        0.1439474462    0.2948955441    0.9760983215
H       -0.3089975543   -0.5391399258    1.7301692716
13   
C5H5N+CH->C6H6N atoms 1-13 frame 60 charge +0.000 sz -1.000 sz^2 0.552
C        1.4805657606    0.2823498881   -0.2633732969
C        0.7920950869   -1.0131586627   -0.1524546579
C       -0.6167329472   -1.0797986821   -0.2095952342
C       -1.2597439599    0.1989634656   -0.1956623752
C       -0.4721705725    1.4352202819   -0.3416223950
N        0.8660780114    1.4840733308   -0.5265961550
H        2.5666250752    0.2751017428   -0.2409074278
H        1.3592570214   -1.9287888317   -0.0213942856
H       -1.1649131800   -2.0034326326   -0.0871958698
H       -2.3425669067    0.2398485096   -0.1053824378
H       -1.0206910786    2.3708709541   -0.3715901462
C        0.1364307108    0.2910217269    0.9020390066
H       -0.3242330215   -0.5522710908    1.6137352747
13   
C5H5N+CH->C6H6N atoms 1-13 frame 63 charge -0.000 sz -1.000 sz^2 0.694
C        1.4838869865    0.2958498320   -0.2566604061
C        0.7913651198   -1.0250522555   -0.1352127165
C       -0.6252730040   -1.1043746101   -0.2124461791
C       -1.2631822967    0.1948397637   -0.1820686151
C       -0.4613539130    1.4500826892   -0.3576242144
N        0.8783795430    1.5086277857   -0.5975998888
H        2.5593222477    0.2810055280   -0.2039408051
H        1.3598563939   -1.9180623025    0.0567235953
H       -1.1705858590   -2.0196936845   -0.0658799462
H       -2.3291322363    0.2477197947   -0.0301329085
H       -1.0174233911    2.3699836018   -0.3738243274
C        0.1185873880    0.2657314724    0.8428399091
H       -0.3244469788   -0.5466576148    1.5158265028
13   
C5H5N+CH->C6H6N atoms 1-13 frame 65 charge +0.000 sz -1.000 sz^2 0.529
C        1.4833097772    0.3075062173   -0.2540899626
C        0.7890485341   -1.0400155141   -0.1376802257
C       -0.6383159028   -1.1331335770   -0.2402753093
C       -1.2656596080    0.1904063583   -0.1814955727
C       -0.4500292164    1.4667808161   -0.3796197285
N        0.8914077140    1.5377696657   -0.6752504527
H        2.5584176413    0.2877965241   -0.1550195596
H        1.3641596038   -1.9139334621    0.1325144650
H       -1.1831575996   -2.0446931108   -0.0705256789
H       -2.3197564119    0.2615654750    0.0572480476
H       -1.0179090758    2.3818878198   -0.3677317310
C        0.0929575292    0.2204468212    0.8020022798
H       -0.3044729851   -0.5223840335    1.4699234286
13   
C5H5N+CH->C6H6N atoms 1-13 frame 68 charge -0.000 sz -1.000 sz^2 0.700
C        1.4777854668    0.3162186222   -0.2577750147
C        0.7859578240   -1.0539947423   -0.1596712330
C       -0.6531115044   -1.1604672312   -0.2889314709
C       -1.2652876535    0.1879876456   -0.1924312117
C       -0.4395325105    1.4838625097   -0.4063460695
N        0.9012093234    1.5672193701   -0.7471941480
H        2.5595623877    0.2956022254   -0.1028832678
H        1.3690210017   -1.9124735671    0.1904323295
H       -1.1998234484   -2.0725933935   -0.0977594698
H       -2.3087925681    0.2782027423    0.1421649139
H       -1.0212743827    2.4033179734   -0.3577492220
C        0.0682894749    0.1679470374    0.7767115964
H       -0.2740034111   -0.5008291920    1.5014322674
13   
C5H5N+CH->C6H6N atoms 1-13 frame 71 charge +0.000 sz -1.000 sz^2 0.511
C        1.4708160566    0.3252684797   -0.2663391862
C        0.7832591395   -1.0660251643   -0.1915614528
C       -0.6657281083   -1.1813355806   -0.3447033589
C       -1.2628311412    0.1870402059   -0.2074489563
C       -0.4305927909    1.5021190790   -0.4330703905
N        0.9080704856    1.5941554462   -0.8081198030
H        2.5543666290    0.3032884402   -0.0564180189
H        1.3691553657   -1.9066171118    0.2266684291
H       -1.2150686681   -2.0961901785   -0.1312992476
H       -2.2882401694    0.2917562926    0.2139785885
H       -1.0239032572    2.4229587198   -0.3478276508
C        0.0463087959    0.1155646642    0.7592504985
H       -0.2456123372   -0.4919832924    1.5868905489
13   
C5H5N+CH->C6H6N atoms 1-13 frame 73 charge -0.000 sz -1.000 sz^2 0.722
C        1.4348186021    0.3299179646   -0.2526672260
C        0.7826830974   -1.0567071636   -0.2085055814
C       -0.6491064674   -1.1436586178   -0.3484249700
C       -1.2266421557    0.2008597357   -0.1964033980
C       -0.4365455585    1.5021744744   -0.4579299281
N        0.8769715439    1.5553776768   -0.7956889799
H        2.5090030857    0.3172323362   -0.0453799847
H        1.3639600177   -1.8987636623    0.1776353062
H       -1.2039436689   -2.0543733042   -0.1428004894
H       -2.2395640880    0.3037202030    0.2108314540
H       -1.0267017742    2.4214377958   -0.4059393227
C        0.0490941196    0.0706243278    0.8060433579
H       -0.2340267536   -0.5478417662    1.6592297621
13   
C5H5N+CH->C6H6N atoms 1-13 frame 76 charge -0.000 sz -1.000 sz^2 0.518
C        1.3985530564    0.3319526120   -0.2364905665
C        0.7868014457   -1.0533870300   -0.2201520532
C       -0.6368527584   -1.1126738809   -0.3477850937
C       -1.1905356712    0.2226893292   -0.1852706677
C       -0.4509645162    1.5079402213   -0.4956793425
N        0.8452168633    1.5224774313   -0.7798886760
H        2.4661039930    0.3312378882   -0.0240455427
H        1.3675590578   -1.8964713282    0.1396496852
H       -1.1996844089   -2.0171106953   -0.1455329967
H       -2.1957474822    0.3301125301    0.2137186673
H       -1.0365571565    2.4271215682   -0.4789413370
C        0.0582068207    0.0173416925    0.8465983460
H       -0.2120992434   -0.6112303384    1.7138195776
13   
From optimize.out: Frame 1 / 54, Energy=    -286.6258382465
C        1.3647021913    0.3333959187   -0.2147739703
C        0.7915932185   -1.0522103644   -0.2344125995
C       -0.6297722606   -1.0893609708   -0.3500241802
C       -1.1602380316    0.2502183112   -0.1684064247
C       -0.4692494887    1.5132063472   -0.5407221893
N        0.8241698492    1.4976200339   -0.7724257235
H        2.4245101151    0.3458372134    0.0200509602
H        1.3735711614   -1.8977565113    0.1025049826
H       -1.2000886779   -1.9869935622   -0.1445651319
H       -2.1586650768    0.3609197001    0.2339214537
H       -1.0476103378    2.4335777800   -0.5632749498
C        0.0688294692   -0.0382603212    0.8774070363
H       -0.1817521314   -0.6701935746    1.7547207365
13   
From optimize.out: Frame 4 / 54, Energy=    -286.6976593611
C        1.3363386106    0.3368816710   -0.1888178410
C        0.7951097422   -1.0514328093   -0.2534288453
C       -0.6277300337   -1.0704596464   -0.3533589132
C       -1.1375178728    0.2778435519   -0.1446614332
C       -0.4861787212    1.5164391517   -0.5883354213
N        0.8138460770    1.4819661766   -0.7702577679
H        2.3865682125    0.3616537874    0.0819303297
H        1.3789699211   -1.9022809616    0.0608162639
H       -1.2044525728   -1.9616742527   -0.1388859147
H       -2.1305909764    0.3858602013    0.2686278245
H       -1.0541193007    2.4389741372   -0.6559600073
C        0.0772372083   -0.0924811290    0.8991282253
H       -0.1474802940   -0.7212898780    1.7832035006
13   
From optimize.out: Frame 6 / 54, Energy=    -286.7319908775
C        1.3137352139    0.3424297860   -0.1588090576
C        0.7970815067   -1.0499453159   -0.2768177241
C       -0.6314285250   -1.0549436598   -0.3570466719
C       -1.1210033181    0.3032745847   -0.1147150989
C       -0.4990527736    1.5159977519   -0.6354848025
N        0.8104489171    1.4745831719   -0.7689480001
H        2.3520126730    0.3777608684    0.1552220965
H        1.3828045489   -1.9080319485    0.0145315003
H       -1.2132311830   -1.9401365377   -0.1296547432
H       -2.1098974214    0.4042776372    0.3125936105
H       -1.0547008732    2.4400767497   -0.7531136511
C        0.0832292105   -0.1429193304    0.9109410722
H       -0.1099979759   -0.7624237575    1.8013014699
13   
From optimize.out: Frame 9 / 54, Energy=    -286.7658450263
C        1.2946912490    0.3486076183   -0.1232250199
C        0.7971616647   -1.0471801047   -0.3053063003
C       -0.6411488440   -1.0430027845   -0.3628526163
C       -1.1085950164    0.3261110480   -0.0799450112
C       -0.5066548242    1.5104235566   -0.6786443212
N        0.8108980996    1.4737257397   -0.7630986725
H        2.3186599753    0.3910196661    0.2356835292
H        1.3838695592   -1.9132073649   -0.0359367135
H       -1.2255636455   -1.9227433525   -0.1188715012
H       -2.0944219475    0.4190729524    0.3598491839
H       -1.0503847253    2.4331230410   -0.8507567263
C        0.0880924527   -0.1870731435    0.9108171103
H       -0.0666039977   -0.7888768721    1.8122870588
13   
From optimize.out: Frame 12 / 54, Energy=    -286.7832204408
C        1.2754477345    0.3534230222   -0.0794848020
C        0.7956078037   -1.0444433868   -0.3420569360
C       -0.6566154372   -1.0363870736   -0.3751030846
C       -1.0987644189    0.3457183928   -0.0428510085
C       -0.5076528849    1.5011046974   -0.7118011018
N        0.8130107024    1.4792496775   -0.7472169719
H        2.2849134807    0.3967753956    0.3189592262
H        1.3815043551   -1.9176494301   -0.0890188640
H       -1.2393912925   -1.9107779467   -0.1061129589
H       -2.0834111339    0.4312322747    0.4041585334
H       -1.0425453855    2.4165647105   -0.9441069326
C        0.0929954790   -0.2230398315    0.8959505738
H       -0.0150990025   -0.7917705020    1.8186843269
13   
From optimize.out: Frame 14 / 54, Energy=    -286.7892968937
C        1.2541355826    0.3533247690   -0.0283758840
C        0.7946224320   -1.0447441305   -0.3916922317
C       -0.6770329508   -1.0381810953   -0.4046455436
C       -1.0913384058    0.3576831655   -0.0042117169
C       -0.5001128641    1.4925678356   -0.7229597713
N        0.8147754498    1.4903804706   -0.7201491614
H        2.2526020172    0.3918416877    0.3971794717
H        1.3774900606   -1.9218778689   -0.1389660666
H       -1.2517791435   -1.9050142115   -0.0923821562
H       -2.0766705409    0.4345069246    0.4446840536
H       -1.0305190873    2.3916077629   -1.0241803443
C        0.0971477436   -0.2457318832    0.8649250515
H        0.0366797065   -0.7563634264    1.8207742992
13   
From optimize.out: Frame 17 / 54, Energy=    -286.7954280550
C        1.2395923368    0.3458711352    0.0179289207
C        0.7943945600   -1.0469162059   -0.4434795696
C       -0.7030176523   -1.0458334820   -0.4719867480
C       -1.0845288551    0.3554859478    0.0423370242
C       -0.4872110548    1.4876871016   -0.7003853745
N        0.8128764768    1.5024471506   -0.6900256340
H        2.2345964352    0.3772312528    0.4511777972
H        1.3713525736   -1.9237302311   -0.1704367321
H       -1.2600488286   -1.9015159740   -0.0944669494
H       -2.0719208983    0.4214976875    0.4883151144
H       -1.0168938102    2.3580022654   -1.0812537514
C        0.0979787128   -0.2474385611    0.8301136434
H        0.0728300042   -0.6827880869    1.8221622591
13   
From optimize.out: Frame 20 / 54, Energy=    -286.8008414849
C        1.2444899723    0.3346087280    0.0456288280
C        0.7807343760   -1.0458418874   -0.4526839217
C       -0.7364872732   -1.0494907439   -0.5810291801
C       -1.0764578500    0.3395235108    0.0861723721
C       -0.4763974524    1.4830512258   -0.6566469429
N        0.8074958362    1.5079305426   -0.6789084100
H        2.2466249791    0.3585756282    0.4609347693
H        1.3497519675   -1.9239989619   -0.1642765351
H       -1.2680927927   -1.8963510490   -0.1415726065
H       -2.0662216603    0.3979537618    0.5269195919
H       -1.0160809964    2.3218225276   -1.0933965580