
Running Job 1 of 1 optimize.in
qchem optimize.in_62151.0 ./optimize.d/ 1
/home/leeping/opt/qchem/5.0.2-openmp/exe/qcprog.exe_s optimize.in_62151.0 ./optimize.d/
Check license passed

                  Welcome to Q-Chem
     A Quantum Leap Into The Future Of Chemistry


 Q-Chem 5.0, Q-Chem, Inc., Pleasanton, CA (2017)

 Yihan Shao,  Zhengting Gan,  E. Epifanovsky,  A. T. B. Gilbert,  M. Wormit,  
 J. Kussmann,  A. W. Lange,  A. Behn,  Jia Deng,  Xintian Feng,  D. Ghosh,  
 M. Goldey,  P. R. Horn,  L. D. Jacobson,  I. Kaliman,  T. Kus,  A. Landau,  
 Jie Liu,  E. I. Proynov,  R. M. Richard,  R. P. Steele,  E. J. Sundstrom,  
 H. L. Woodcock III,  P. M. Zimmerman,  D. Zuev,  B. Albrecht,  E. Alguire,  
 S. A. Baeppler,  D. Barton,  Z. Benda,  Y. A. Bernard,  E. J. Berquist,  
 K. B. Bravaya,  H. Burton,  D. Casanova,  Chun-Min Chang,  Yunqing Chen,  
 A. Chien,  K. D. Closser,  M. P. Coons,  S. Dasgupta,  A. L. Dempwolff,  
 M. Diedenhofen,  Hainam Do,  R. G. Edgar,  Po-Tung Fang,  S. Fatehi,  
 Qingguo Feng,  J. Fosso-Tande,  Qinghui Ge,  A. Ghysels,  G. Gidofalvi,  
 J. Gomes,  J. Gonthier,  A. Gunina,  M. W. D. Hanson-Heine,  
 P. H. P. Harbach,  A. W. Hauser,  J. E. Herr,  E. G. Hohenstein,  
 Z. C. Holden,  Kerwin Hui,  T.-C. Jagau,  Hyunjun Ji,  B. Kaduk,  
 K. Khistyaev,  Jaehoon Kim,  P. Klunzinger,  K. Koh,  D. Kosenkov,  
 L. Koulias,  T. Kowalczyk,  C. M. Krauter,  A. Kunitsa,  Ka Un Lao,  
 A. Laurent,  K. V. Lawler,  Joonho Lee,  D. Lefrancois,  S. Lehtola,  
 D. S. Levine,  Yi-Pei Li,  You-Sheng Lin,  Fenglai Liu,  E. Livshits,  
 A. Luenser,  P. Manohar,  E. Mansoor,  S. F. Manzer,  Shan-Ping Mao,  
 Yuezhi Mao,  N. Mardirossian,  A. V. Marenich,  T. Markovich,  
 L. A. Martinez-Martinez,  S. A. Maurer,  N. J. Mayhall,  S. C. McKenzie,  
 J.-M. Mewes,  A. F. Morrison,  J. W. Mullinax,  K. Nanda,  
 T. S. Nguyen-Beck,  R. Olivares-Amaya,  J. A. Parkhill,  T. M. Perrine,  
 F. Plasser,  S. Prager,  A. Prociuk,  E. Ramos,  D. R. Rehn,  F. Rob,  
 M. Schneider,  N. Sergueev,  S. M. Sharada,  S. Sharma,  D. W. Small,  
 T. Stauch,  T. Stein,  Yu-Chuan Su,  A. J. W. Thom,  A. Tkatchenko,  
 T. Tsuchimochi,  L. Vogt,  O. Vydrov,  M. A. Watson,  J. Wenzel,  
 M. de Wergifosse,  T. A. Wesolowski,  A. White,  J. Witte,  A. Yamada,  
 Jun Yang,  K. Yao,  S. Yeganeh,  S. R. Yost,  Zhi-Qiang You,  A. Zech,  
 Igor Ying Zhang,  Xing Zhang,  Yan Zhao,  Ying Zhu,  B. R. Brooks,  
 G. K. L. Chan,  C. J. Cramer,  M. S. Gordon,  W. J. Hehre,  A. Klamt,  
 M. W. Schmidt,  C. D. Sherrill,  D. G. Truhlar,  A. Aspuru-Guzik,  R. Baer,  
 A. T. Bell,  N. A. Besley,  Jeng-Da Chai,  R. A. DiStasio Jr.,  A. Dreuw,  
 B. D. Dunietz,  T. R. Furlani,  Chao-Ping Hsu,  Yousung Jung,  Jing Kong,  
 D. S. Lambrecht,  WanZhen Liang,  C. Ochsenfeld,  V. A. Rassolov,  
 L. V. Slipchenko,  J. E. Subotnik,  T. Van Voorhis,  J. M. Herbert,  
 A. I. Krylov,  P. M. W. Gill,  M. Head-Gordon

 Contributors to earlier versions of Q-Chem not listed above: 
 R. D. Adamson,  B. Austin,  J. Baker,  G. J. O. Beran,  K. Brandhorst,  
 S. T. Brown,  E. F. C. Byrd,  A. K. Chakraborty,  C.-L. Cheng,  
 Siu Hung Chien,  D. M. Chipman,  D. L. Crittenden,  H. Dachsel,  
 R. J. Doerksen,  A. D. Dutoi,  L. Fusti-Molnar,  W. A. Goddard III,  
 A. Golubeva-Zadorozhnaya,  S. R. Gwaltney,  G. Hawkins,  A. Heyden,  
 S. Hirata,  G. Kedziora,  F. J. Keil,  C. Kelley,  Jihan Kim,  R. A. King,  
 R. Z. Khaliullin,  P. P. Korambath,  W. Kurlancheek,  A. M. Lee,  M. S. Lee,  
 S. V. Levchenko,  Ching Yeh Lin,  D. Liotard,  R. C. Lochan,  I. Lotan,  
 P. E. Maslen,  N. Nair,  D. P. O'Neill,  D. Neuhauser,  E. Neuscamman,  
 C. M. Oana,  R. Olson,  B. Peters,  R. Peverati,  P. A. Pieniazek,  
 Y. M. Rhee,  J. Ritchie,  M. A. Rohrdanz,  E. Rosta,  N. J. Russ,  
 H. F. Schaefer III,  N. E. Schultz,  N. Shenvi,  A. C. Simmonett,  A. Sodt,  
 D. Stuck,  K. S. Thanthiriwatte,  V. Vanovschi,  Tao Wang,  A. Warshel,  
 C. F. Williams,  Q. Wu,  X. Xu,  W. Zhang

 Please cite Q-Chem as follows:
 Y. Shao et al., Mol. Phys. 113, 184-215 (2015)
 DOI: 10.1080/00268976.2014.952696

 Q-Chem 5.0.2 for Intel X86 EM64T Linux

 Parts of Q-Chem use Armadillo 5.200.1 (Boston Tea Smuggler).
 http://arma.sourceforge.net/

 Q-Chem begins on Thu Mar  3 10:50:28 2022  

Host: 
0

     Scratch files written to ./optimize.d//
 Dec517 15110_ 26548  26544 5633   
Processing $rem in /home/leeping/opt/qchem/5.0.2-openmp/config/preferences.
 MEM_STATIC 2000
 MEM_TOTAL  8000
 SYMMETRY   OFF
 SYM_IGNORE TRUE 

Checking the input file for inconsistencies... 	...done.

--------------------------------------------------------------
User input:
--------------------------------------------------------------
$molecule
0 2
C        1.6830456856    0.4582708299   -0.3395986944
C        1.1436470348   -0.8364130219   -0.4024921417
C       -0.3443638597   -0.7189627821   -0.4459491539
C       -1.2138701825    0.6470516125    0.9266831490
C       -0.5147891376    0.8526342432   -0.4173237838
N        0.8097546779    1.4604556914   -0.3441852550
H        2.7469500807    0.6792510496   -0.2644296995
H        1.7122654691   -1.7597373488   -0.3792063384
H       -0.8317265337   -1.2911808354   -1.2463824331
H       -1.6233119030    1.3576989831    1.6382580500
H       -1.1171114703    1.3180037844   -1.2073662846
C       -1.0838117365   -0.6838856717    0.9011212100
H       -1.3666781248   -1.4831865341    1.5808713754
$end

$rem
method                b3lyp
basis                 6-31g(d)
unrestricted          true
symmetry              off
sym_ignore            true
incdft                false
incfock               0
scf_convergence       8
thresh                14
jobtype               opt
scf_guess             read
scf_algorithm         diis
max_scf_cycles        100
geom_opt_tol_gradient 600
geom_opt_tol_displacement 2400
geom_opt_tol_energy   200
geom_opt_max_cycles   100
$end

--------------------------------------------------------------
 ----------------------------------------------------------------
             Standard Nuclear Orientation (Angstroms)
    I     Atom           X                Y                Z
 ----------------------------------------------------------------
    1      C       1.6830456856     0.4582708299    -0.3395986944
    2      C       1.1436470348    -0.8364130219    -0.4024921417
    3      C      -0.3443638597    -0.7189627821    -0.4459491539
    4      C      -1.2138701825     0.6470516125     0.9266831490
    5      C      -0.5147891376     0.8526342432    -0.4173237838
    6      N       0.8097546779     1.4604556914    -0.3441852550
    7      H       2.7469500807     0.6792510496    -0.2644296995
    8      H       1.7122654691    -1.7597373488    -0.3792063384
    9      H      -0.8317265337    -1.2911808354    -1.2463824331
   10      H      -1.6233119030     1.3576989831     1.6382580500
   11      H      -1.1171114703     1.3180037844    -1.2073662846
   12      C      -1.0838117365    -0.6838856717     0.9011212100
   13      H      -1.3666781248    -1.4831865341     1.5808713754
 ----------------------------------------------------------------
 Nuclear Repulsion Energy =   273.0246405420 hartrees
 There are       25 alpha and       24 beta electrons
 Requested basis set is 6-31G(d)
 There are 40 shells and 117 basis functions

 Total QAlloc Memory Limit   8000 MB
 Mega-Array Size      1956 MB
 MEM_STATIC part      2000 MB
 A cutoff of  1.0D-14 yielded    806 shell pairs
 There are      7078 function pairs
 
 -------------------------------------------------------
 OpenMP Integral Computing Module                       
 Release: version 1.0, May 2013, Q-Chem Inc. Pittsburgh 
 -------------------------------------------------------
 Integral Job Info:
 Integral job number is                      11
 Integral operator is                         1
 short-range coefficients                     0
 long-range coefficients              100000000
 Omega coefficients                           0
 if combine SR and LR in K                    0
 Integral screening is                        0
 Integral computing path is                   2
 max size of driver memory is            800000
 size of driver memory is                593474
 size of scratch memory is              2361544
 max col of scratch BK array               1296
 max len of scratch array in speh3          155
 max len of scratch index in speh4           18
 max int batch size is                      520
 min int batch size is                       52
 fixed nKL is                                52
 max L of basis functions is                  2
 order of int derivative is                   0
 number of shells is                         40
 number of basis is                         117
 number of cartesian basis is               117
 number of contracted shell pairs           806
 number of primitive shell pairs           3534
 maxK2 (contraction) of shell pair           36
 max number of K2 of shell pair               1
 max number of CS2 of shell pair             89
 max number of PS2 of shell pair            396
 mem total for path MDJ                  535308
 -------------------------------------------------------
 Smallest overlap matrix eigenvalue = 9.72E-04

 Scale SEOQF with 1.000000e-01/1.000000e-01/1.000000e-01

 Standard Electronic Orientation quadrupole field applied
 Nucleus-field energy     =     0.0000000030 hartrees
 Guess MOs from SCF MO coefficient file
 Reading MOs from coefficient file
 Reading MOs from coefficient file
 An unrestricted hybrid HF-DFT SCF calculation will be
 performed using Pulay DIIS extrapolation
 Exchange:     0.2000 Hartree-Fock + 0.0800 Slater + 0.7200 B88
 Correlation:  0.1900 VWN1RPA + 0.8100 LYP
 Using SG-1 standard quadrature grid
 SCF converges when DIIS error is below 1.0E-08
Using Q-Chem read-in guess as SCF_GUESS READ specified.

 using 4 threads for integral computing
 -------------------------------------------------------
 OpenMP Integral computing Module                
 Release: version 1.0, May 2013, Q-Chem Inc. Pittsburgh 
 -------------------------------------------------------
 -------------------------------------------------------
 OpenMP BLAS3 based DFT computing Module                
 Release: version 1.0, May 2013, Q-Chem Inc. Pittsburgh 
 -------------------------------------------------------
 ---------------------------------------
  Cycle       Energy         DIIS Error
 ---------------------------------------
    1    -286.8754986296      1.15E-09
    2    -286.8754986296      2.04E-09 Convergence criterion met
 ---------------------------------------
 <S^2> = 0.7770
 SCF time:  CPU 4.86 s  wall 2.02 s
 SCF   energy in the final basis set = -286.87549863
 Total energy in the final basis set = -286.87549863
 
 --------------------------------------------------------------
 
                    Orbital Energies (a.u.)
 --------------------------------------------------------------
 
 Alpha MOs
 -- Occupied --
-14.328 -10.217 -10.216 -10.207 -10.202 -10.200 -10.195  -0.944
 -0.837  -0.752  -0.665  -0.618  -0.554  -0.523  -0.515  -0.481
 -0.428  -0.402  -0.386  -0.355  -0.341  -0.322  -0.270  -0.253
 -0.203
 -- Virtual --
  0.012   0.030   0.114   0.130   0.143   0.147   0.160   0.166
  0.186   0.188   0.216   0.266   0.295   0.363   0.409   0.452
  0.486   0.502   0.531   0.544   0.575   0.593   0.597   0.618
  0.624   0.634   0.654   0.680   0.694   0.747   0.774   0.786
  0.813   0.825   0.839   0.855   0.860   0.876   0.909   0.928
  0.956   0.969   1.018   1.064   1.090   1.170   1.234   1.411
  1.420   1.436   1.471   1.496   1.520   1.572   1.637   1.693
  1.761   1.820   1.882   1.887   1.934   1.948   1.977   2.028
  2.051   2.143   2.174   2.211   2.222   2.265   2.309   2.353
  2.412   2.425   2.521   2.561   2.573   2.606   2.618   2.674
  2.693   2.863   2.907   2.916   2.993   3.909   4.085   4.196
  4.295   4.372   4.448   4.716
 
 Beta MOs
 -- Occupied --
-14.318 -10.219 -10.218 -10.203 -10.199 -10.198 -10.194  -0.932
 -0.831  -0.734  -0.665  -0.610  -0.549  -0.520  -0.512  -0.475
 -0.420  -0.396  -0.381  -0.343  -0.334  -0.301  -0.264  -0.246
 -- Virtual --
 -0.087   0.016   0.054   0.116   0.132   0.147   0.149   0.162
  0.168   0.190   0.193   0.222   0.270   0.297   0.368   0.414
  0.455   0.491   0.509   0.535   0.548   0.579   0.598   0.613
  0.618   0.629   0.634   0.661   0.684   0.707   0.751   0.776
  0.794   0.821   0.831   0.845   0.859   0.863   0.884   0.913
  0.931   0.962   0.975   1.025   1.070   1.094   1.176   1.238
  1.418   1.436   1.441   1.478   1.504   1.524   1.579   1.640
  1.698   1.773   1.828   1.898   1.900   1.938   1.954   1.979
  2.031   2.054   2.148   2.185   2.224   2.234   2.269   2.321
  2.357   2.417   2.431   2.534   2.570   2.584   2.616   2.626
  2.678   2.697   2.866   2.909   2.919   2.996   3.924   4.094
  4.195   4.300   4.375   4.457   4.716
 --------------------------------------------------------------
 
          Ground-State Mulliken Net Atomic Charges

     Atom                 Charge (a.u.)    Spin (a.u.)
  --------------------------------------------------------
      1 C                     0.047919      -0.231009
      2 C                    -0.114683       0.693705
      3 C                    -0.193606      -0.054078
      4 C                    -0.075854       0.031556
      5 C                    -0.061914      -0.027561
      6 N                    -0.351295       0.517046
      7 H                     0.140530       0.007446
      8 H                     0.143480      -0.032163
      9 H                     0.148101       0.025256
     10 H                     0.137410       0.003570
     11 H                     0.151505       0.025403
     12 C                    -0.104830       0.033929
     13 H                     0.133239       0.006900
  --------------------------------------------------------
  Sum of atomic charges =     0.000000
  Sum of spin   charges =     1.000000

 -----------------------------------------------------------------
                    Cartesian Multipole Moments
 -----------------------------------------------------------------
    Charge (ESU x 10^10)
                 0.0000
    Dipole Moment (Debye)
         X      -0.4769      Y      -2.0977      Z       0.0910
       Tot       2.1531
    Quadrupole Moments (Debye-Ang)
        XX     -37.9654     XY      -2.8441     YY     -42.5364
        XZ      -0.4642     YZ       0.6498     ZZ     -39.9038
    Octopole Moments (Debye-Ang^2)
       XXX       3.6784    XXY      -5.8504    XYY      -8.3994
       YYY     -29.9583    XXZ       1.0278    XYZ       0.6867
       YYZ       3.3022    XZZ      -7.2684    YZZ      -5.4838
       ZZZ       3.3288
    Hexadecapole Moments (Debye-Ang^3)
      XXXX    -337.7793   XXXY      -8.6137   XXYY     -96.4229
      XYYY     -25.0712   YYYY    -269.9381   XXXZ      53.2650
      XXYZ       3.0494   XYYZ      16.1740   YYYZ       8.8645
      XXZZ     -82.2830   XYZZ      -4.1324   YYZZ     -62.3145
      XZZZ      53.5287   YZZZ       5.2642   ZZZZ    -150.9011
 -----------------------------------------------------------------
 Calculating analytic gradient of the SCF energy
 Gradient of SCF Energy
            1           2           3           4           5           6
    1  -0.0001982   0.0001668   0.0002648  -0.0000842  -0.0000196  -0.0000565
    2  -0.0002428  -0.0001702  -0.0005774   0.0002401   0.0001347   0.0005108
    3  -0.0000041  -0.0002586   0.0005325   0.0001269   0.0003007  -0.0000351
            7           8           9          10          11          12
    1  -0.0000176   0.0000463  -0.0001056  -0.0000612  -0.0000296   0.0000191
    2   0.0001094  -0.0000596  -0.0000341  -0.0000297   0.0000285   0.0000063
    3   0.0000099  -0.0000236   0.0000006   0.0000127  -0.0000526  -0.0004207
           13
    1   0.0000755
    2   0.0000840
    3  -0.0001886
 Max gradient component =       5.774E-04
 RMS gradient           =       2.044E-04
 Gradient time:  CPU 7.95 s  wall 2.10 s
 Geometry Optimization Parameters
   NAtoms,    NIC,     NZ,  NCons,   NDum,   NFix, NCnnct, MaxDiis
       13     105       0       0       0       0       0       0


** GEOMETRY OPTIMIZATION IN DELOCALIZED INTERNAL COORDINATES **
   Searching for a Minimum

   Optimization Cycle:   1

                       Coordinates (Angstroms)
     ATOM                X               Y               Z
      1  C         1.6830456856    0.4582708299   -0.3395986944
      2  C         1.1436470348   -0.8364130219   -0.4024921417
      3  C        -0.3443638597   -0.7189627821   -0.4459491539
      4  C        -1.2138701825    0.6470516125    0.9266831490
      5  C        -0.5147891376    0.8526342432   -0.4173237838
      6  N         0.8097546779    1.4604556914   -0.3441852550
      7  H         2.7469500807    0.6792510496   -0.2644296995
      8  H         1.7122654691   -1.7597373488   -0.3792063384
      9  H        -0.8317265337   -1.2911808354   -1.2463824331
     10  H        -1.6233119030    1.3576989831    1.6382580500
     11  H        -1.1171114703    1.3180037844   -1.2073662846
     12  C        -1.0838117365   -0.6838856717    0.9011212100
     13  H        -1.3666781248   -1.4831865341    1.5808713754
   Point Group: c1    Number of degrees of freedom:    33


   Energy is   -286.875498630


 Attempting to Generate Delocalized Internal Coordinates

 33 Hessian modes will be used to form the next step
  Hessian Eigenvalues:
     0.006733    0.011666    0.014284    0.017005    0.018261    0.022867
     0.035953    0.041048    0.045177    0.059626    0.065083    0.095579
     0.105545    0.159604    0.159728    0.159903    0.159960    0.172943
     0.190473    0.228915    0.261883    0.291574    0.318729    0.339020
     0.340100    0.349043    0.351947    0.353004    0.354420    0.356160
     0.418737    0.513279    0.556237

 Minimum Search - Taking Simple RFO Step
 Searching for Lamda that Minimizes Along All modes
 Value Taken    Lamda =  -0.00000578
 Step Taken.  Stepsize is  0.009504

                             Maximum     Tolerance    Cnvgd?
         Gradient           0.000584      0.000600     YES
         Displacement       0.004385      0.002400      NO
         Energy change     *********      0.000002      NO


 New Cartesian Coordinates Obtained by Inverse Iteration

 Displacement from previous Coordinates is:  0.010349
 ----------------------------------------------------------------
             Standard Nuclear Orientation (Angstroms)
    I     Atom           X                Y                Z
 ----------------------------------------------------------------
    1      C       1.6831744845     0.4584666459    -0.3394610987
    2      C       1.1428246937    -0.8357097773    -0.4011772374
    3      C      -0.3450695232    -0.7180995470    -0.4470663201
    4      C      -1.2132810110     0.6463782826     0.9264386021
    5      C      -0.5152721217     0.8526160185    -0.4182378068
    6      N       0.8095264866     1.4600089836    -0.3453015787
    7      H       2.7471733894     0.6788654276    -0.2640980294
    8      H       1.7110666255    -1.7590896976    -0.3767308485
    9      H      -0.8311323398    -1.2903924302    -1.2480969475
   10      H      -1.6210547845     1.3571436087     1.6388109526
   11      H      -1.1181280323     1.3182155344    -1.2075969398
   12      C      -1.0839683365    -0.6845122378     0.9009751401
   13      H      -1.3658595308    -1.4838908114     1.5815421122
 ----------------------------------------------------------------
 Nuclear Repulsion Energy =   273.0499346616 hartrees
 There are       25 alpha and       24 beta electrons
 Applying Cartesian multipole field
    Component          Value
    ---------          -----
     (2,0,0)        1.00000E-11
     (0,2,0)        2.00000E-11
     (0,0,2)       -3.00000E-11
 Nucleus-field energy     =     0.0000000030 hartrees
 Requested basis set is 6-31G(d)
 There are 40 shells and 117 basis functions
 A cutoff of  1.0D-14 yielded    806 shell pairs
 There are      7078 function pairs
 Smallest overlap matrix eigenvalue = 9.72E-04
 Guess MOs from SCF MO coefficient file
 Reading MOs from coefficient file
 Reading MOs from coefficient file
 An unrestricted hybrid HF-DFT SCF calculation will be
 performed using Pulay DIIS extrapolation
 Exchange:     0.2000 Hartree-Fock + 0.0800 Slater + 0.7200 B88
 Correlation:  0.1900 VWN1RPA + 0.8100 LYP
 Using SG-1 standard quadrature grid
 SCF converges when DIIS error is below 1.0E-08
 Geometry optimization detected.  Setting ReadMinima to 0
 Setting SaveMinima to 0
Using Q-Chem read-in guess as SCF_GUESS READ specified.

 using 4 threads for integral computing
 -------------------------------------------------------
 OpenMP Integral computing Module                
 Release: version 1.0, May 2013, Q-Chem Inc. Pittsburgh 
 -------------------------------------------------------
 -------------------------------------------------------
 OpenMP BLAS3 based DFT computing Module                
 Release: version 1.0, May 2013, Q-Chem Inc. Pittsburgh 
 -------------------------------------------------------
 ---------------------------------------
  Cycle       Energy         DIIS Error
 ---------------------------------------
    1    -286.8758433341      6.58E-05
    2    -286.8755016266      1.15E-05
    3    -286.8755016888      1.25E-05
    4    -286.8755019388      2.51E-06
    5    -286.8755019477      1.36E-06
    6    -286.8755019518      4.85E-07
    7    -286.8755019529      1.57E-07
    8    -286.8755019531      5.52E-08
    9    -286.8755019532      3.21E-08
   10    -286.8755019532      1.81E-08
   11    -286.8755019532      6.03E-09 Convergence criterion met
 ---------------------------------------
 <S^2> = 0.7770
 SCF time:  CPU 26.92 s  wall 7.76 s
 SCF   energy in the final basis set = -286.87550195
 Total energy in the final basis set = -286.87550195
 
 --------------------------------------------------------------
 
                    Orbital Energies (a.u.)
 --------------------------------------------------------------
 
 Alpha MOs
 -- Occupied --
-14.328 -10.217 -10.216 -10.207 -10.202 -10.200 -10.195  -0.944
 -0.838  -0.752  -0.665  -0.618  -0.554  -0.523  -0.515  -0.481
 -0.428  -0.403  -0.386  -0.355  -0.341  -0.322  -0.270  -0.253
 -0.203
 -- Virtual --
  0.012   0.031   0.114   0.130   0.143   0.147   0.160   0.166
  0.186   0.188   0.216   0.266   0.295   0.363   0.409   0.452
  0.486   0.502   0.531   0.544   0.575   0.593   0.597   0.618
  0.624   0.634   0.654   0.680   0.695   0.747   0.774   0.786
  0.813   0.825   0.839   0.855   0.860   0.876   0.910   0.928
  0.956   0.970   1.018   1.064   1.091   1.170   1.234   1.411
  1.420   1.436   1.471   1.496   1.519   1.572   1.638   1.694
  1.761   1.821   1.882   1.886   1.935   1.948   1.977   2.028
  2.051   2.143   2.175   2.211   2.222   2.265   2.309   2.353
  2.412   2.425   2.522   2.560   2.573   2.606   2.619   2.674
  2.693   2.864   2.907   2.917   2.993   3.909   4.085   4.197
  4.295   4.372   4.448   4.716
 
 Beta MOs
 -- Occupied --
-14.318 -10.219 -10.218 -10.203 -10.199 -10.198 -10.194  -0.932
 -0.831  -0.734  -0.665  -0.610  -0.549  -0.520  -0.512  -0.475
 -0.420  -0.396  -0.381  -0.343  -0.334  -0.301  -0.264  -0.246
 -- Virtual --
 -0.087   0.016   0.054   0.116   0.132   0.147   0.149   0.162
  0.168   0.190   0.193   0.222   0.270   0.297   0.368   0.414
  0.455   0.491   0.509   0.534   0.548   0.579   0.598   0.613
  0.618   0.629   0.634   0.661   0.684   0.707   0.751   0.776
  0.794   0.820   0.831   0.845   0.859   0.863   0.884   0.913
  0.931   0.962   0.975   1.025   1.070   1.094   1.177   1.238
  1.418   1.436   1.441   1.478   1.504   1.524   1.579   1.640
  1.699   1.773   1.828   1.898   1.900   1.938   1.954   1.979
  2.031   2.053   2.148   2.185   2.225   2.234   2.269   2.321
  2.357   2.417   2.432   2.534   2.569   2.585   2.616   2.627
  2.678   2.697   2.867   2.908   2.920   2.996   3.924   4.094
  4.195   4.301   4.375   4.457   4.717
 --------------------------------------------------------------
 
          Ground-State Mulliken Net Atomic Charges

     Atom                 Charge (a.u.)    Spin (a.u.)
  --------------------------------------------------------
      1 C                     0.048146      -0.230831
      2 C                    -0.114804       0.693602
      3 C                    -0.193641      -0.054020
      4 C                    -0.076016       0.031982
      5 C                    -0.061705      -0.027692
      6 N                    -0.351478       0.516910
      7 H                     0.140621       0.007437
      8 H                     0.143351      -0.032160
      9 H                     0.148116       0.025268
     10 H                     0.137344       0.003594
     11 H                     0.151541       0.025322
     12 C                    -0.104804       0.033717
     13 H                     0.133331       0.006871
  --------------------------------------------------------
  Sum of atomic charges =     0.000000
  Sum of spin   charges =     1.000000

 -----------------------------------------------------------------
                    Cartesian Multipole Moments
 -----------------------------------------------------------------
    Charge (ESU x 10^10)
                -0.0000
    Dipole Moment (Debye)
         X      -0.4749      Y      -2.0984      Z       0.0926
       Tot       2.1534
    Quadrupole Moments (Debye-Ang)
        XX     -37.9665     XY      -2.8385     YY     -42.5415
        XZ      -0.4570     YZ       0.6481     ZZ     -39.8969
    Octopole Moments (Debye-Ang^2)
       XXX       3.7355    XXY      -5.8439    XYY      -8.3936
       YYY     -29.9582    XXZ       1.0293    XYZ       0.6959
       YYZ       3.3267    XZZ      -7.2643    YZZ      -5.4928
       ZZZ       3.3560
    Hexadecapole Moments (Debye-Ang^3)
      XXXX    -337.6385   XXXY      -8.6294   XXYY     -96.4106
      XYYY     -25.0976   YYYY    -269.8329   XXXZ      53.2248
      XXYZ       3.0493   XYYZ      16.1739   YYYZ       8.9423
      XXZZ     -82.2808   XYZZ      -4.1354   YYZZ     -62.2978
      XZZZ      53.4533   YZZZ       5.3418   ZZZZ    -150.9105
 -----------------------------------------------------------------
 Calculating analytic gradient of the SCF energy
 Gradient of SCF Energy
            1           2           3           4           5           6
    1   0.0000742  -0.0000156   0.0001283   0.0000076  -0.0000927  -0.0000167
    2  -0.0000328   0.0000670  -0.0001208  -0.0000563   0.0001457  -0.0000503
    3  -0.0000282  -0.0000270   0.0002339   0.0000293   0.0000392   0.0000000
            7           8           9          10          11          12
    1   0.0000145   0.0000284  -0.0000482  -0.0000228  -0.0000359  -0.0000334
    2   0.0000459   0.0000562   0.0000082  -0.0000619  -0.0000238   0.0000974
    3  -0.0000124  -0.0000366   0.0000082  -0.0000093  -0.0000370  -0.0001616
           13
    1   0.0000122
    2  -0.0000745
    3   0.0000014
 Max gradient component =       2.339E-04
 RMS gradient           =       7.111E-05
 Gradient time:  CPU 7.87 s  wall 2.02 s
 Geometry Optimization Parameters
   NAtoms,    NIC,     NZ,  NCons,   NDum,   NFix, NCnnct, MaxDiis
       13     105       0       0       0       0       0       0

 Cartesian Hessian Update
 Hessian Updated using BFGS Update


** GEOMETRY OPTIMIZATION IN DELOCALIZED INTERNAL COORDINATES **
   Searching for a Minimum

   Optimization Cycle:   2

                       Coordinates (Angstroms)
     ATOM                X               Y               Z
      1  C         1.6831744845    0.4584666459   -0.3394610987
      2  C         1.1428246937   -0.8357097773   -0.4011772374
      3  C        -0.3450695232   -0.7180995470   -0.4470663201
      4  C        -1.2132810110    0.6463782826    0.9264386021
      5  C        -0.5152721217    0.8526160185   -0.4182378068
      6  N         0.8095264866    1.4600089836   -0.3453015787
      7  H         2.7471733894    0.6788654276   -0.2640980294
      8  H         1.7110666255   -1.7590896976   -0.3767308485
      9  H        -0.8311323398   -1.2903924302   -1.2480969475
     10  H        -1.6210547845    1.3571436087    1.6388109526
     11  H        -1.1181280323    1.3182155344   -1.2075969398
     12  C        -1.0839683365   -0.6845122378    0.9009751401
     13  H        -1.3658595308   -1.4838908114    1.5815421122
   Point Group: c1    Number of degrees of freedom:    33


   Energy is   -286.875501953

 Hessian Updated using BFGS Update

 33 Hessian modes will be used to form the next step
  Hessian Eigenvalues:
     0.006725    0.011408    0.014238    0.017178    0.018302    0.022920
     0.033979    0.038140    0.045372    0.058636    0.063843    0.092400
     0.101365    0.157273    0.159707    0.159811    0.160469    0.167090
     0.196208    0.252871    0.254702    0.289042    0.318996    0.338780
     0.339795    0.348983    0.352702    0.353897    0.355598    0.363897
     0.420910    0.518175    0.554171

 Minimum Search - Taking Simple RFO Step
 Searching for Lamda that Minimizes Along All modes
 Value Taken    Lamda =  -0.00000100
 Step Taken.  Stepsize is  0.005312

                             Maximum     Tolerance    Cnvgd?
         Gradient           0.000137      0.000600     YES
         Displacement       0.002754      0.002400      NO
         Energy change     -0.000003      0.000002      NO


 New Cartesian Coordinates Obtained by Inverse Iteration

 Displacement from previous Coordinates is:  0.007143
 ----------------------------------------------------------------
             Standard Nuclear Orientation (Angstroms)
    I     Atom           X                Y                Z
 ----------------------------------------------------------------
    1      C       1.6826277168     0.4584932350    -0.3389773121
    2      C       1.1423090016    -0.8357151210    -0.4012870174
    3      C      -0.3455040914    -0.7179304999    -0.4480766079
    4      C      -1.2129405635     0.6462256227     0.9261144559
    5      C      -0.5154837457     0.8524767306    -0.4188621283
    6      N       0.8091340232     1.4600803278    -0.3457614634
    7      H       2.7465402669     0.6787118627    -0.2625437024
    8      H       1.7103188466    -1.7592382884    -0.3757531965
    9      H      -0.8310730138    -1.2904520693    -1.2491929619
   10      H      -1.6197143886     1.3572368208     1.6388917323
   11      H      -1.1185947333     1.3186082842    -1.2076022660
   12      C      -1.0833887501    -0.6846841620     0.9009012223
   13      H      -1.3642305686    -1.4838127432     1.5821492454
 ----------------------------------------------------------------
 Nuclear Repulsion Energy =   273.0661462483 hartrees
 There are       25 alpha and       24 beta electrons
 Applying Cartesian multipole field
    Component          Value
    ---------          -----
     (2,0,0)        1.00000E-11
     (0,2,0)        2.00000E-11
     (0,0,2)       -3.00000E-11
 Nucleus-field energy     =     0.0000000030 hartrees
 Requested basis set is 6-31G(d)
 There are 40 shells and 117 basis functions
 A cutoff of  1.0D-14 yielded    806 shell pairs
 There are      7078 function pairs
 Smallest overlap matrix eigenvalue = 9.72E-04
 Guess MOs from SCF MO coefficient file
 Reading MOs from coefficient file
 Reading MOs from coefficient file
 An unrestricted hybrid HF-DFT SCF calculation will be
 performed using Pulay DIIS extrapolation
 Exchange:     0.2000 Hartree-Fock + 0.0800 Slater + 0.7200 B88
 Correlation:  0.1900 VWN1RPA + 0.8100 LYP
 Using SG-1 standard quadrature grid
 SCF converges when DIIS error is below 1.0E-08
 Geometry optimization detected.  Setting ReadMinima to 0
 Setting SaveMinima to 0
Using Q-Chem read-in guess as SCF_GUESS READ specified.

 using 4 threads for integral computing
 -------------------------------------------------------
 OpenMP Integral computing Module                
 Release: version 1.0, May 2013, Q-Chem Inc. Pittsburgh 
 -------------------------------------------------------
 -------------------------------------------------------
 OpenMP BLAS3 based DFT computing Module                
 Release: version 1.0, May 2013, Q-Chem Inc. Pittsburgh 
 -------------------------------------------------------
 ---------------------------------------
  Cycle       Energy         DIIS Error
 ---------------------------------------
    1    -286.8755367310      3.34E-05
    2    -286.8755023725      5.71E-06
    3    -286.8755023996      6.14E-06
    4    -286.8755024627      1.63E-06
    5    -286.8755024672      7.35E-07
    6    -286.8755024685      2.73E-07
    7    -286.8755024688      1.40E-07
    8    -286.8755024688      4.09E-08
    9    -286.8755024689      1.72E-08
   10    -286.8755024689      8.88E-09 Convergence criterion met
 ---------------------------------------
 <S^2> = 0.7770
 SCF time:  CPU 24.49 s  wall 7.21 s
 SCF   energy in the final basis set = -286.87550247
 Total energy in the final basis set = -286.87550247
 
 --------------------------------------------------------------
 
                    Orbital Energies (a.u.)
 --------------------------------------------------------------
 
 Alpha MOs
 -- Occupied --
-14.328 -10.217 -10.216 -10.207 -10.203 -10.200 -10.195  -0.944
 -0.837  -0.752  -0.665  -0.618  -0.554  -0.523  -0.515  -0.481
 -0.428  -0.403  -0.386  -0.355  -0.341  -0.322  -0.270  -0.253
 -0.203
 -- Virtual --
  0.012   0.031   0.114   0.130   0.143   0.147   0.160   0.166
  0.186   0.188   0.216   0.266   0.295   0.363   0.409   0.452
  0.486   0.502   0.531   0.544   0.575   0.593   0.597   0.618
  0.624   0.634   0.655   0.680   0.695   0.747   0.773   0.786
  0.813   0.825   0.839   0.855   0.860   0.876   0.910   0.927
  0.956   0.970   1.018   1.064   1.091   1.170   1.234   1.411
  1.420   1.436   1.471   1.496   1.519   1.572   1.637   1.694
  1.762   1.821   1.882   1.886   1.935   1.948   1.977   2.028
  2.051   2.143   2.175   2.211   2.222   2.265   2.309   2.353
  2.412   2.425   2.522   2.560   2.574   2.606   2.619   2.674
  2.693   2.864   2.906   2.917   2.993   3.909   4.085   4.197
  4.295   4.373   4.448   4.716
 
 Beta MOs
 -- Occupied --
-14.318 -10.219 -10.218 -10.203 -10.199 -10.198 -10.194  -0.932
 -0.831  -0.734  -0.665  -0.610  -0.549  -0.520  -0.512  -0.475
 -0.420  -0.396  -0.381  -0.343  -0.334  -0.301  -0.264  -0.246
 -- Virtual --
 -0.087   0.016   0.054   0.116   0.132   0.147   0.149   0.162
  0.168   0.190   0.193   0.222   0.270   0.296   0.368   0.414
  0.455   0.491   0.509   0.534   0.548   0.579   0.598   0.613
  0.618   0.629   0.634   0.661   0.684   0.707   0.751   0.776
  0.794   0.820   0.831   0.845   0.859   0.863   0.884   0.913
  0.931   0.962   0.976   1.025   1.070   1.095   1.177   1.238
  1.418   1.436   1.441   1.478   1.504   1.523   1.579   1.640
  1.699   1.774   1.829   1.898   1.900   1.938   1.954   1.979
  2.031   2.053   2.148   2.185   2.225   2.234   2.269   2.322
  2.357   2.417   2.432   2.534   2.569   2.585   2.616   2.627
  2.678   2.697   2.867   2.908   2.920   2.996   3.924   4.094
  4.195   4.301   4.375   4.457   4.717
 --------------------------------------------------------------
 
          Ground-State Mulliken Net Atomic Charges

     Atom                 Charge (a.u.)    Spin (a.u.)
  --------------------------------------------------------
      1 C                     0.048159      -0.230756
      2 C                    -0.114798       0.693613
      3 C                    -0.193670      -0.053988
      4 C                    -0.075996       0.032260
      5 C                    -0.061689      -0.027722
      6 N                    -0.351437       0.516675
      7 H                     0.140585       0.007433
      8 H                     0.143361      -0.032163
      9 H                     0.148138       0.025251
     10 H                     0.137356       0.003603
     11 H                     0.151504       0.025297
     12 C                    -0.104873       0.033628
     13 H                     0.133359       0.006868
  --------------------------------------------------------
  Sum of atomic charges =    -0.000000
  Sum of spin   charges =     1.000000

 -----------------------------------------------------------------
                    Cartesian Multipole Moments
 -----------------------------------------------------------------
    Charge (ESU x 10^10)
                -0.0000
    Dipole Moment (Debye)
         X      -0.4739      Y      -2.0989      Z       0.0946
       Tot       2.1539
    Quadrupole Moments (Debye-Ang)
        XX     -37.9743     XY      -2.8387     YY     -42.5401
        XZ      -0.4509     YZ       0.6494     ZZ     -39.8940
    Octopole Moments (Debye-Ang^2)
       XXX       3.7510    XXY      -5.8404    XYY      -8.3838
       YYY     -29.9561    XXZ       1.0424    XYZ       0.6969
       YYZ       3.3411    XZZ      -7.2611    YZZ      -5.4971
       ZZZ       3.3884
    Hexadecapole Moments (Debye-Ang^3)
      XXXX    -337.4788   XXXY      -8.6295   XXYY     -96.3836
      XYYY     -25.0931   YYYY    -269.8237   XXXZ      53.1992
      XXYZ       3.0527   XYYZ      16.1636   YYYZ       8.9571
      XXZZ     -82.2649   XYZZ      -4.1296   YYZZ     -62.2985
      XZZZ      53.3805   YZZZ       5.3527   ZZZZ    -150.9274
 -----------------------------------------------------------------
 Calculating analytic gradient of the SCF energy
 Gradient of SCF Energy
            1           2           3           4           5           6
    1  -0.0000118  -0.0000552   0.0000395  -0.0000204   0.0000566  -0.0000285
    2   0.0000252   0.0000331   0.0000194  -0.0000484   0.0000075  -0.0000058
    3   0.0000048  -0.0000173   0.0000297  -0.0000255   0.0000113  -0.0000236
            7           8           9          10          11          12
    1  -0.0000191   0.0000263   0.0000148  -0.0000226  -0.0000117   0.0000143
    2   0.0000306   0.0000322  -0.0000040  -0.0000325  -0.0000228   0.0000105
    3  -0.0000044  -0.0000232  -0.0000143   0.0000112   0.0000176   0.0000131
           13
    1   0.0000178
    2  -0.0000450
    3   0.0000206
 Max gradient component =       5.661E-05
 RMS gradient           =       2.593E-05
 Gradient time:  CPU 7.85 s  wall 2.36 s
 Geometry Optimization Parameters
   NAtoms,    NIC,     NZ,  NCons,   NDum,   NFix, NCnnct, MaxDiis
       13     105       0       0       0       0       0       0

 Cartesian Hessian Update
 Hessian Updated using BFGS Update


** GEOMETRY OPTIMIZATION IN DELOCALIZED INTERNAL COORDINATES **
   Searching for a Minimum

   Optimization Cycle:   3

                       Coordinates (Angstroms)
     ATOM                X               Y               Z
      1  C         1.6826277168    0.4584932350   -0.3389773121
      2  C         1.1423090016   -0.8357151210   -0.4012870174
      3  C        -0.3455040914   -0.7179304999   -0.4480766079
      4  C        -1.2129405635    0.6462256227    0.9261144559
      5  C        -0.5154837457    0.8524767306   -0.4188621283
      6  N         0.8091340232    1.4600803278   -0.3457614634
      7  H         2.7465402669    0.6787118627   -0.2625437024
      8  H         1.7103188466   -1.7592382884   -0.3757531965
      9  H        -0.8310730138   -1.2904520693   -1.2491929619
     10  H        -1.6197143886    1.3572368208    1.6388917323
     11  H        -1.1185947333    1.3186082842   -1.2076022660
     12  C        -1.0833887501   -0.6846841620    0.9009012223
     13  H        -1.3642305686   -1.4838127432    1.5821492454
   Point Group: c1    Number of degrees of freedom:    33


   Energy is   -286.875502469

 Hessian Updated using BFGS Update

 33 Hessian modes will be used to form the next step
  Hessian Eigenvalues:
     0.006366    0.011322    0.013977    0.017658    0.018276    0.022970
     0.035024    0.036928    0.045002    0.060410    0.062315    0.087297
     0.102104    0.157853    0.159757    0.160024    0.160437    0.174968
     0.194259    0.251259    0.256655    0.289896    0.323405    0.338711
     0.341279    0.349546    0.353050    0.353908    0.356428    0.365908
     0.421028    0.516622    0.556804

 Minimum Search - Taking Simple RFO Step
 Searching for Lamda that Minimizes Along All modes
 Value Taken    Lamda =   0.00000000
 Step Taken.  Stepsize is  0.003148

                             Maximum     Tolerance    Cnvgd?
         Gradient           0.000056      0.000600     YES
         Displacement       0.002149      0.002400     YES
         Energy change     -0.000001      0.000002     YES


                       Distance Matrix (Angstroms)
             C (  1)   C (  2)   C (  3)   C (  4)   C (  5)   N (  6)
   C (  2)  1.403853
   C (  3)  2.347167  1.493201
   C (  4)  3.165441  3.083074  2.121737
   C (  5)  2.234569  2.366131  1.579850  1.529035
   N (  6)  1.328990  2.320510  2.467263  2.523651  1.459157
   H (  7)  1.089150  2.210497  3.397907  4.134181  3.270387  2.090695
   H (  8)  2.218209  1.084519  2.305637  4.003319  3.431780  3.343209
   H (  9)  3.194682  2.195442  1.097882  2.937432  2.319739  3.327446
   H ( 10)  3.952868  4.074327  3.207081  1.085842  2.389238  3.138269
   H ( 11)  3.056330  3.225359  2.306954  2.239140  1.096874  2.116346
   C ( 12)  3.239599  2.583067  1.537960  1.337438  2.104081  3.120228
   H ( 13)  4.092264  3.261409  2.397122  2.233905  3.191029  4.136044
             H (  7)   H (  8)   H (  9)   H ( 10)   H ( 11)   C ( 12)
   H (  8)  2.651447
   H (  9)  4.201238  2.727880
   H ( 10)  4.810409  4.986014  3.996654
   H ( 11)  4.030121  4.262378  2.625185  2.890526
   C ( 12)  4.228571  3.254123  2.248004  2.236452  2.908644
   H ( 13)  4.997784  3.655420  2.887584  2.853078  3.961895  1.087004

 
 Final energy is   -286.875502468894     


 ******************************
 **  OPTIMIZATION CONVERGED  **
 ******************************

                       Coordinates (Angstroms)
     ATOM                X               Y               Z
      1  C         1.6826277168    0.4584932350   -0.3389773121
      2  C         1.1423090016   -0.8357151210   -0.4012870174
      3  C        -0.3455040914   -0.7179304999   -0.4480766079
      4  C        -1.2129405635    0.6462256227    0.9261144559
      5  C        -0.5154837457    0.8524767306   -0.4188621283
      6  N         0.8091340232    1.4600803278   -0.3457614634
      7  H         2.7465402669    0.6787118627   -0.2625437024
      8  H         1.7103188466   -1.7592382884   -0.3757531965
      9  H        -0.8310730138   -1.2904520693   -1.2491929619
     10  H        -1.6197143886    1.3572368208    1.6388917323
     11  H        -1.1185947333    1.3186082842   -1.2076022660
     12  C        -1.0833887501   -0.6846841620    0.9009012223
     13  H        -1.3642305686   -1.4838127432    1.5821492454

Z-matrix Print:
$molecule
0 2
N 
C  1 1.328990
H  2 1.089150 1 119.341090
C  2 1.403853 1 116.205293 3 178.527017 0
H  4 1.084519 2 125.620772 1 -178.092270 0
C  1 1.459157 2 106.444833 3 -178.455079 0
H  6 1.096874 1 110.990565 2 -130.700648 0
C  4 1.493201 2 108.189746 1 -0.524082 0
H  8 1.097882 4 114.986977 2 129.825578 0
C  6 1.529035 1 115.225750 2 94.826771 0
H  10 1.085842 6 131.296993 1 68.712939 0
C  10 1.337438 6 94.212987 1 -109.157972 0
H  12 1.087004 10 134.006219 6 179.238099 0
$end

 
 --------------------------------------------------------------
 
                    Orbital Energies (a.u.)
 --------------------------------------------------------------
 
 Alpha MOs
 -- Occupied --
-14.328 -10.217 -10.216 -10.207 -10.203 -10.200 -10.195  -0.944
 -0.837  -0.752  -0.665  -0.618  -0.554  -0.523  -0.515  -0.481
 -0.428  -0.403  -0.386  -0.355  -0.341  -0.322  -0.270  -0.253
 -0.203
 -- Virtual --
  0.012   0.031   0.114   0.130   0.143   0.147   0.160   0.166
  0.186   0.188   0.216   0.266   0.295   0.363   0.409   0.452
  0.486   0.502   0.531   0.544   0.575   0.593   0.597   0.618
  0.624   0.634   0.655   0.680   0.695   0.747   0.773   0.786
  0.813   0.825   0.839   0.855   0.860   0.876   0.910   0.927
  0.956   0.970   1.018   1.064   1.091   1.170   1.234   1.411
  1.420   1.436   1.471   1.496   1.519   1.572   1.637   1.694
  1.762   1.821   1.882   1.886   1.935   1.948   1.977   2.028
  2.051   2.143   2.175   2.211   2.222   2.265   2.309   2.353
  2.412   2.425   2.522   2.560   2.574   2.606   2.619   2.674
  2.693   2.864   2.906   2.917   2.993   3.909   4.085   4.197
  4.295   4.373   4.448   4.716
 
 Beta MOs
 -- Occupied --
-14.318 -10.219 -10.218 -10.203 -10.199 -10.198 -10.194  -0.932
 -0.831  -0.734  -0.665  -0.610  -0.549  -0.520  -0.512  -0.475
 -0.420  -0.396  -0.381  -0.343  -0.334  -0.301  -0.264  -0.246
 -- Virtual --
 -0.087   0.016   0.054   0.116   0.132   0.147   0.149   0.162
  0.168   0.190   0.193   0.222   0.270   0.296   0.368   0.414
  0.455   0.491   0.509   0.534   0.548   0.579   0.598   0.613
  0.618   0.629   0.634   0.661   0.684   0.707   0.751   0.776
  0.794   0.820   0.831   0.845   0.859   0.863   0.884   0.913
  0.931   0.962   0.976   1.025   1.070   1.095   1.177   1.238
  1.418   1.436   1.441   1.478   1.504   1.523   1.579   1.640
  1.699   1.774   1.829   1.898   1.900   1.938   1.954   1.979
  2.031   2.053   2.148   2.185   2.225   2.234   2.269   2.322
  2.357   2.417   2.432   2.534   2.569   2.585   2.616   2.627
  2.678   2.697   2.867   2.908   2.920   2.996   3.924   4.094
  4.195   4.301   4.375   4.457   4.717
 --------------------------------------------------------------
 
          Ground-State Mulliken Net Atomic Charges

     Atom                 Charge (a.u.)    Spin (a.u.)
  --------------------------------------------------------
      1 C                     0.048159      -0.230756
      2 C                    -0.114798       0.693613
      3 C                    -0.193670      -0.053988
      4 C                    -0.075996       0.032260
      5 C                    -0.061689      -0.027722
      6 N                    -0.351437       0.516675
      7 H                     0.140585       0.007433
      8 H                     0.143361      -0.032163
      9 H                     0.148138       0.025251
     10 H                     0.137356       0.003603
     11 H                     0.151504       0.025297
     12 C                    -0.104873       0.033628
     13 H                     0.133359       0.006868
  --------------------------------------------------------
  Sum of atomic charges =    -0.000000
  Sum of spin   charges =     1.000000

 -----------------------------------------------------------------
                    Cartesian Multipole Moments
 -----------------------------------------------------------------
    Charge (ESU x 10^10)
                -0.0000
    Dipole Moment (Debye)
         X      -0.4739      Y      -2.0989      Z       0.0946
       Tot       2.1539
    Quadrupole Moments (Debye-Ang)
        XX     -37.9743     XY      -2.8387     YY     -42.5401
        XZ      -0.4509     YZ       0.6494     ZZ     -39.8940
    Octopole Moments (Debye-Ang^2)
       XXX       3.7510    XXY      -5.8404    XYY      -8.3838
       YYY     -29.9561    XXZ       1.0424    XYZ       0.6969
       YYZ       3.3411    XZZ      -7.2611    YZZ      -5.4971
       ZZZ       3.3884
    Hexadecapole Moments (Debye-Ang^3)
      XXXX    -337.4788   XXXY      -8.6295   XXYY     -96.3836
      XYYY     -25.0931   YYYY    -269.8237   XXXZ      53.1992
      XXYZ       3.0527   XYYZ      16.1636   YYYZ       8.9571
      XXZZ     -82.2649   XYZZ      -4.1296   YYZZ     -62.2985
      XZZZ      53.3805   YZZZ       5.3527   ZZZZ    -150.9274
 -----------------------------------------------------------------
Archival summary:
1\1\c8-66\OPT\ProcedureUnspecified\6-31G*\166(2)\hpark21\ThuMar310:50:542022ThuMar310:50:542022\0\\#,OPT,ProcedureUnspecified,6-31G*,\\0,2\N\C,1,1.32899\H,2,1.08915,1,119.341\C,2,1.40385,1,116.205,3,178.527,0\H,4,1.08452,2,125.621,1,-178.092,0\C,1,1.45916,2,106.445,3,-178.455,0\H,6,1.09687,1,110.991,2,-130.701,0\C,4,1.4932,2,108.19,1,-0.524082,0\H,8,1.09788,4,114.987,2,129.826,0\C,6,1.52903,1,115.226,2,94.8268,0\H,10,1.08584,6,131.297,1,68.7129,0\C,10,1.33744,6,94.213,1,-109.158,0\H,12,1.087,10,134.006,6,179.238,0\\\@

 Total job time:  26.03s(wall), 83.52s(cpu) 
 Thu Mar  3 10:50:54 2022

        *************************************************************
        *                                                           *
        *  Thank you very much for using Q-Chem.  Have a nice day.  *
        *                                                           *
        *************************************************************


