13   
From optimize.out: Frame 1 / 3, Energy=    -286.8754986296
C        0.0479190000   -0.2310090000   -0.0000000000
C       -0.1146830000    0.6937050000   -0.0000000000
C       -0.1936060000   -0.0540780000   -0.0000000000
C       -0.0758540000    0.0315560000    0.0000000000
C       -0.0619140000   -0.0275610000   -0.0000000000
N       -0.3512950000    0.5170460000   -0.0000000000
H        0.1405300000    0.0074460000   -0.0000000000
H        0.1434800000   -0.0321630000   -0.0000000000
H        0.1481010000    0.0252560000   -0.0000000000
H        0.1374100000    0.0035700000    0.0000000000
H        0.1515050000    0.0254030000   -0.0000000000
C       -0.1048300000    0.0339290000    0.0000000000
H        0.1332390000    0.0069000000    0.0000000000
13   
From optimize.out: Frame 2 / 3, Energy=    -286.8755019532
C        0.0481460000   -0.2308310000   -0.0000000000
C       -0.1148040000    0.6936020000   -0.0000000000
C       -0.1936410000   -0.0540200000   -0.0000000000
C       -0.0760160000    0.0319820000    0.0000000000
C       -0.0617050000   -0.0276920000   -0.0000000000
N       -0.3514780000    0.5169100000   -0.0000000000
H        0.1406210000    0.0074370000   -0.0000000000
H        0.1433510000   -0.0321600000   -0.0000000000
H        0.1481160000    0.0252680000   -0.0000000000
H        0.1373440000    0.0035940000    0.0000000000
H        0.1515410000    0.0253220000   -0.0000000000
C       -0.1048040000    0.0337170000    0.0000000000
H        0.1333310000    0.0068710000    0.0000000000
