13   
Frame   0 IRC: Energy =  -286.8724810000 ; +0.0000 kcal/mol
C        1.2214628000    0.0608277424   -0.0323574882
C        0.6041937545   -0.8892691539    0.9978613589
C       -0.7100448091   -0.9517040170    0.7314628528
C       -0.9604582558   -0.0438604289   -0.4833593652
C       -0.5641358383    1.3805540591   -0.0205439714
N        0.6842111509    1.4753395300    0.2512287681
H        2.3050788893    0.0692712934   -0.1253073357
H        1.1469894326   -1.3575771368    1.8096238223
H       -1.4846406833   -1.4804139322    1.2733196261
H       -1.9110920790   -0.1470829796   -1.0053105181
H       -1.2477983797    2.2209653928    0.0835624350
C        0.3551212451   -0.3027131347   -1.2232575392
H        0.5611127723   -0.0343372340   -2.2569226456
13   
Frame   1 IRC: Energy =  -286.8724770000 ; +0.0025 kcal/mol
C        1.2214872695    0.0611466574   -0.0323465025
C        0.6040324816   -0.8891180106    0.9977015492
C       -0.7098851874   -0.9515601791    0.7313345289
C       -0.9604731337   -0.0435573936   -0.4834157160
C       -0.5641025836    1.3806745726   -0.0202924654
N        0.6840868094    1.4755622498    0.2514873579
H        2.3050461241    0.0696663763   -0.1252743781
H        1.1470701851   -1.3577138088    1.8093735906
H       -1.4846536757   -1.4805950125    1.2729619874
H       -1.9110567907   -0.1467268193   -1.0053989557
H       -1.2479965920    2.2211034781    0.0842758063
C        0.3551321800   -0.3026828657   -1.2231512408
H        0.5613129135   -0.0361992445   -2.2572555617
13   
Frame   2 IRC: Energy =  -286.8724740000 ; +0.0044 kcal/mol
C        1.2214383983    0.0614252872   -0.0323552833
C        0.6041903545   -0.8890167505    0.9976865717
C       -0.7100516306   -0.9514903648    0.7312194503
C       -0.9604290585   -0.0433205123   -0.4834670876
C       -0.5642555137    1.3809325667   -0.0200717786
N        0.6840665145    1.4757192268    0.2517161906
H        2.3050530061    0.0699977768   -0.1252440484
H        1.1470905579   -1.3577989319    1.8091020928
H       -1.4846060294   -1.4807151489    1.2726254530
H       -1.9110407049   -0.1464230705   -1.0054741790
H       -1.2480921948    2.2211244485    0.0848675428
C        0.3551570258   -0.3026498979   -1.2230786814
H        0.5614792749   -0.0377846291   -2.2575262430
13   
Frame   3 IRC: Energy =  -286.8724700000 ; +0.0069 kcal/mol
C        1.2214652758    0.0617233786   -0.0323185285
C        0.6040148243   -0.8888749171    0.9975265637
C       -0.7098774452   -0.9513554015    0.7310947122
C       -0.9604575204   -0.0430290008   -0.4834958135
C       -0.5642159013    1.3810497107   -0.0198358453
N        0.6839365861    1.4759354218    0.2519618933
H        2.3050263712    0.0703730094   -0.1252188248
H        1.1471673079   -1.3579255897    1.8088597554
H       -1.4846161112   -1.4808832523    1.2722842058
H       -1.9110054516   -0.1460856259   -1.0055622529
H       -1.2482789194    2.2212537322    0.0855430580
C        0.3551688112   -0.3026323036   -1.2229813192
H        0.5616721726   -0.0395491616   -2.2578576040
13   
Frame   4 IRC: Energy =  -286.8724650000 ; +0.0100 kcal/mol
C        1.2214080728    0.0620569534   -0.0324059857
C        0.6041899180   -0.8887282147    0.9975003019
C       -0.7100549707   -0.9512625451    0.7309639250
C       -0.9603615623   -0.0427630791   -0.4836373344
C       -0.5643821971    1.3813449282   -0.0195420772
N        0.6839160036    1.4761146138    0.2522462679
H        2.3050149692    0.0707762880   -0.1251674443
H        1.1471987810   -1.3580453846    1.8085470617
H       -1.4845835912   -1.4810485700    1.2718960600
H       -1.9109829589   -0.1457132142   -1.0056335475
H       -1.2484213918    2.2213157895    0.0862525803
C        0.3551977967   -0.3025680444   -1.2228917021
H        0.5618611307   -0.0414795208   -2.2581281054
13   
Frame   5 IRC: Energy =  -286.8724600000 ; +0.0132 kcal/mol
C        1.2214373016    0.0625338750   -0.0321662403
C        0.6040177895   -0.8886439021    0.9972981310
C       -0.7098856347   -0.9511498058    0.7308176215
C       -0.9605241616   -0.0423588318   -0.4834619851
C       -0.5643268954    1.3815272438   -0.0192189695
N        0.6837914285    1.4765022968    0.2525738947
H        2.3050218539    0.0711631303   -0.1251810860
H        1.1472769347   -1.3581669370    1.8082693254
H       -1.4845813716   -1.4812048694    1.2715003154
H       -1.9109937073   -0.1453712917   -1.0058144394
H       -1.2486008570    2.2214154704    0.0869849966
C        0.3552413029   -0.3028831013   -1.2228651613
H        0.5621260166   -0.0433632774   -2.2587364030
13   
Frame   6 IRC: Energy =  -286.8724510000 ; +0.0188 kcal/mol
C        1.2214013929    0.0629380532   -0.0324080622
C        0.6041593840   -0.8883392935    0.9971679636
C       -0.7100209490   -0.9508776843    0.7305094912
C       -0.9603715269   -0.0418752754   -0.4838381026
C       -0.5645735180    1.3818635765   -0.0189363525
N        0.6836507621    1.4766163323    0.2529347717
H        2.3050027724    0.0720182282   -0.1250403220
H        1.1473767616   -1.3583948140    1.8076585279
H       -1.4844657549   -1.4815074508    1.2706949799
H       -1.9109356815   -0.1446145757   -1.0059176307
H       -1.2488153777    2.2214582617    0.0884314283
C        0.3551635270   -0.3019298439   -1.2224168764
H        0.5624282082   -0.0473555143   -2.2588398160
13   
Frame   7 IRC: Energy =  -286.8724470000 ; +0.0213 kcal/mol
C        1.2214250297    0.0629578740   -0.0327357663
C        0.6039278944   -0.8881664062    0.9970464073
C       -0.7097822119   -0.9507134589    0.7304398751
C       -0.9602214262   -0.0418114816   -0.4841985664
C       -0.5645108870    1.3818478833   -0.0188732082
N        0.6835145778    1.4765213351    0.2529803455
H        2.3049409754    0.0722973291   -0.1249467519
H        1.1474638116   -1.3585228466    1.8075586913
H       -1.4845063885   -1.4816639041    1.2705097697
H       -1.9108831343   -0.1443626277   -1.0058703239
H       -1.2489394669    2.2215551470    0.0888705900
C        0.3551104677   -0.3013182415   -1.2221958950
H        0.5624607582   -0.0486206020   -2.2585851671
13   
Frame   8 IRC: Energy =  -286.8724300000 ; +0.0320 kcal/mol
C        1.2212588449    0.0644896294   -0.0321223154
C        0.6040706540   -0.8877794394    0.9968652071
C       -0.7099792182   -0.9504449491    0.7301282433
C       -0.9602816639   -0.0405939272   -0.4837968569
C       -0.5648206310    1.3830001253   -0.0174986621
N        0.6832373624    1.4777689639    0.2544369288
H        2.3048602444    0.0734993086   -0.1250379414
H        1.1476331903   -1.3589497243    1.8065732021
H       -1.4844895129   -1.4822459637    1.2692901100
H       -1.9106872831   -0.1431767641   -1.0062718962
H       -1.2496746419    2.2221264713    0.0911571839
C        0.3555030578   -0.3031694280   -1.2226226630
H        0.5633695973   -0.0545243029   -2.2611005400
13   
Frame   9 IRC: Energy =  -286.8724240000 ; +0.0358 kcal/mol
C        1.2210655246    0.0647926673   -0.0318095916
C        0.6043647481   -0.8877902935    0.9969358331
C       -0.7102402990   -0.9504787361    0.7300757920
C       -0.9603170174   -0.0404380348   -0.4835435706
C       -0.5650185310    1.3837386020   -0.0171542089
N        0.6830698011    1.4779333764    0.2546331834
H        2.3049937719    0.0736408519   -0.1251082424
H        1.1475943014   -1.3589586976    1.8063461514
H       -1.4844348143   -1.4822837755    1.2690751195
H       -1.9106933575   -0.1430140771   -1.0063929065
H       -1.2495652200    2.2219013173    0.0914426919
C        0.3556399610   -0.3037290284   -1.2228008540
H        0.5635411310   -0.0553141720   -2.2616993975
13   
Frame  10 IRC: Energy =  -286.8723540000 ; +0.0797 kcal/mol
C        1.2212298829    0.0683558558   -0.0323195137
C        0.6041035638   -0.8861576359    0.9954713336
C       -0.7100154605   -0.9490373799    0.7282880344
C       -0.9601956828   -0.0370319833   -0.4846979620
C       -0.5656078238    1.3852129543   -0.0146880891
N        0.6823967696    1.4801348931    0.2572929162
H        2.3048043025    0.0784374873   -0.1244844342
H        1.1482938124   -1.3605058032    1.8028252746
H       -1.4841388539   -1.4841403766    1.2645289040
H       -1.9105421809   -0.1388191180   -1.0073638698
H       -1.2514429157    2.2228885051    0.0997375428
C        0.3554869705   -0.3011889980   -1.2209350142
H        0.5656276160   -0.0781484007   -2.2636551226
13   
Frame  11 IRC: Energy =  -286.8723460000 ; +0.0847 kcal/mol
C        1.2210043404    0.0685922032   -0.0325004064
C        0.6042806446   -0.8859614421    0.9953758900
C       -0.7101187853   -0.9488660284    0.7280772221
C       -0.9600383020   -0.0369981905   -0.4849127171
C       -0.5657812839    1.3861444138   -0.0143056457
N        0.6820436215    1.4799967799    0.2573407500
H        2.3049345305    0.0788011233   -0.1244160356
H        1.1483548270   -1.3606627435    1.8025848103
H       -1.4841640600   -1.4843329814    1.2642155912
H       -1.9105418516   -0.1384610159   -1.0074007782
H       -1.2512715519    2.2225131777    0.1003128404
C        0.3555655317   -0.3007830886   -1.2208090934
H        0.5657323390   -0.0799822075   -2.2635624276
13   
Frame  12 IRC: Energy =  -286.8723040000 ; +0.1111 kcal/mol
C        1.2210901361    0.0706299665   -0.0322003967
C        0.6040663804   -0.8851699929    0.9949909479
C       -0.7100799255   -0.9481486389    0.7275692713
C       -0.9600561018   -0.0349491978   -0.4850300364
C       -0.5661070525    1.3866441557   -0.0129752251
N        0.6818577879    1.4816127239    0.2591892790
H        2.3046224265    0.0813134545   -0.1242071294
H        1.1487310981   -1.3615373784    1.8007712600
H       -1.4839953552   -1.4853334198    1.2619204516
H       -1.9103163992   -0.1362665196   -1.0079212729
H       -1.2525953589    2.2236446371    0.1046141532
C        0.3557473903   -0.3015111853   -1.2206936250
H        0.5670349738   -0.0909286051   -2.2660276775
13   
Frame  13 IRC: Energy =  -286.8722920000 ; +0.1186 kcal/mol
C        1.2214006890    0.0708933339   -0.0321739964
C        0.6040792227   -0.8851146312    0.9949999330
C       -0.7102296408   -0.9481199392    0.7275384793
C       -0.9601469195   -0.0344513794   -0.4850240997
C       -0.5661933846    1.3856172254   -0.0131144573
N        0.6824179188    1.4821450963    0.2596424527
H        2.3043500892    0.0816564703   -0.1241595492
H        1.1487625401   -1.3616156266    1.8005052741
H       -1.4838965931   -1.4854069534    1.2615838690
H       -1.9102609463   -0.1360167827   -1.0079844313
H       -1.2531625231    2.2243708919    0.1052475535
C        0.3556260507   -0.3017038762   -1.2205094293
H        0.5672534968   -0.0922538292   -2.2665515983
13   
Frame  14 IRC: Energy =  -286.8719910000 ; +0.3075 kcal/mol
C        1.2207065547    0.0812185062   -0.0320863554
C        0.6044179576   -0.8819488208    0.9904198706
C       -0.7097189802   -0.9453096692    0.7221732281
C       -0.9597972591   -0.0254022161   -0.4869016630
C       -0.5683784870    1.3935428483   -0.0037426918
N        0.6787421765    1.4880021682    0.2695786722
H        2.3043605639    0.0940234226   -0.1235216133
H        1.1506539078   -1.3656855311    1.7907940901
H       -1.4828416171   -1.4898353612    1.2503473656
H       -1.9096674928   -0.1247240409   -1.0108443377
H       -1.2574116038    2.2264908329    0.1245001951
C        0.3561492232   -0.2959189519   -1.2181115047
H        0.5727850563   -0.1544531868   -2.2726052558
13   
Frame  15 IRC: Energy =  -286.8719700000 ; +0.3207 kcal/mol
C        1.2211084224    0.0815181688   -0.0317573919
C        0.6048277380   -0.8812221083    0.9896009329
C       -0.7098904991   -0.9446353142    0.7212086430
C       -0.9601115438   -0.0250579665   -0.4868432161
C       -0.5683064889    1.3930157003   -0.0035490036
N        0.6788772036    1.4883778332    0.2701276497
H        2.3039774760    0.0945845423   -0.1234647862
H        1.1510467372   -1.3661611710    1.7908313968
H       -1.4832339697   -1.4903650343    1.2501684015
H       -1.9094260465   -0.1242200584   -1.0108649880
H       -1.2579589938    2.2270687120    0.1254514527
C        0.3560515751   -0.2956591827   -1.2180490269
H        0.5730383896   -0.1572441212   -2.2728600639
13   
Frame  16 IRC: Energy =  -286.8718710000 ; +0.3828 kcal/mol
C        1.2205384667    0.0845781903   -0.0321703995
C        0.6044015735   -0.8811832377    0.9890363767
C       -0.7094966840   -0.9446487386    0.7205952516
C       -0.9596518601   -0.0223589959   -0.4875582833
C       -0.5691167137    1.3957216944   -0.0007911772
N        0.6777423132    1.4899897048    0.2729018783
H        2.3043640482    0.0980101860   -0.1233208986
H        1.1511611038   -1.3668740678    1.7875061930
H       -1.4823220333   -1.4910948387    1.2466522507
H       -1.9095325550   -0.1211062160   -1.0118011496
H       -1.2588685043    2.2273299982    0.1306088893
C        0.3563020683   -0.2936358631   -1.2175352204
H        0.5744787766   -0.1747278157   -2.2741237110
13   
Frame  17 IRC: Energy =  -286.8718410000 ; +0.4016 kcal/mol
C        1.2209098709    0.0851389941   -0.0318240458
C        0.6049271713   -0.8803709122    0.9880789822
C       -0.7097441896   -0.9439021500    0.7194243849
C       -0.9599638756   -0.0218064841   -0.4875215406
C       -0.5691512915    1.3954603491   -0.0003490626
N        0.6777907470    1.4904839584    0.2737167465
H        2.3039943205    0.0988876131   -0.1232527091
H        1.1516041401   -1.3674557213    1.7872939349
H       -1.4826841593   -1.4917325702    1.2461951231
H       -1.9092761438   -0.1203093585   -1.0118994687
H       -1.2594881042    2.2279129033    0.1320245731
C        0.3562276277   -0.2931156290   -1.2174492550
H        0.5748538865   -0.1791909926   -2.2744376627
13   
Frame  18 IRC: Energy =  -286.8717780000 ; +0.4411 kcal/mol
C        1.2204357612    0.0869985885   -0.0322454332
C        0.6044148870   -0.8806338000    0.9879756911
C       -0.7093283602   -0.9441761039    0.7193994799
C       -0.9595513669   -0.0201630836   -0.4880663691
C       -0.5696449185    1.3972583710    0.0013563555
N        0.6770218961    1.4914116143    0.2753334524
H        2.3043575385    0.1009164481   -0.1231715957
H        1.1515369639   -1.3677416144    1.7851278903
H       -1.4819525325   -1.4920026521    1.2439981968
H       -1.9094378734   -0.1184741942   -1.0124953637
H       -1.2599220476    2.2279466183    0.1349946153
C        0.3564074197   -0.2917926692   -1.2171880001
H        0.5756626329   -0.1895475227   -2.2750189197
13   
Frame  19 IRC: Energy =  -286.8717240000 ; +0.4750 kcal/mol
C        1.2207663853    0.0881818619   -0.0319170364
C        0.6050183902   -0.8797489062    0.9868111950
C       -0.7096280563   -0.9433587694    0.7179451902
C       -0.9598347524   -0.0190380887   -0.4881282478
C       -0.5698872471    1.3973448809    0.0022914327
N        0.6769675702    1.4922597381    0.2767917206
H        2.3039989762    0.1025443391   -0.1230674900
H        1.1520472632   -1.3685104719    1.7842656378
H       -1.4821559062   -1.4928203627    1.2428396852
H       -1.9091831468   -0.1170079204   -1.0127906359
H       -1.2607915789    2.2286782018    0.1375003275
C        0.3563674846   -0.2907343426   -1.2170816485
H        0.5763146180   -0.1977901600   -2.2754601304
13   
Frame  20 IRC: Energy =  -286.8716800000 ; +0.5026 kcal/mol
C        1.2203294971    0.0893596589   -0.0323483802
C        0.6044576638   -0.8800487439    0.9868564230
C       -0.7091561743   -0.9436421655    0.7181351984
C       -0.9594318765   -0.0179843816   -0.4886444069
C       -0.5701535513    1.3988215287    0.0034984407
N        0.6762010705    1.4927288524    0.2777721122
H        2.3043351609    0.1038966559   -0.1230076040
H        1.1519451677   -1.3686365364    1.7827503689
H       -1.4815790972   -1.4929270184    1.2413460348
H       -1.9093209562   -0.1157818352   -1.0131683793
H       -1.2609463481    2.2285462863    0.1393911676
C        0.3565148553   -0.2897717577   -1.2168669161
H        0.5768045881   -0.2045605434   -2.2757140590
13   
Frame  21 IRC: Energy =  -286.8716200000 ; +0.5403 kcal/mol
C        1.2206747153    0.0907471747   -0.0319340601
C        0.6051233506   -0.8790741790    0.9856176559
C       -0.7094934422   -0.9427485784    0.7165821636
C       -0.9597392756   -0.0167161861   -0.4886427936
C       -0.5704241990    1.3990067812    0.0046358165
N        0.6761732972    1.4937369889    0.2796179206
H        2.3039302329    0.1057015322   -0.1229200646
H        1.1525150864   -1.3694985137    1.7818101537
H       -1.4818079977   -1.4938437720    1.2401055669
H       -1.9090416828   -0.1141514402   -1.0135107356
H       -1.2620243642    2.2295161475    0.1421162714
C        0.3565587389   -0.2891418171   -1.2170081510
H        0.5775555402   -0.2135341380   -2.2764697437
13   
Frame  22 IRC: Energy =  -286.8715910000 ; +0.5585 kcal/mol
C        1.2212032053    0.0909474261   -0.0315881312
C        0.6049004674   -0.8784890756    0.9847981372
C       -0.7090927836   -0.9421221822    0.7158520246
C       -0.9601647266   -0.0163994957   -0.4884768957
C       -0.5696837853    1.3979324483    0.0046750181
N        0.6760334704    1.4941270008    0.2800286241
H        2.3035073034    0.1060587906   -0.1228941618
H        1.1529109424   -1.3699070421    1.7820271655
H       -1.4822381004   -1.4942960766    1.2401288951
H       -1.9088299598   -0.1138533746   -1.0135273076
H       -1.2627355110    2.2303668347    0.1427629490
C        0.3564944421   -0.2890844567   -1.2172559952
H        0.5776950357   -0.2152807970   -2.2765303221
13   
Frame  23 IRC: Energy =  -286.8712140000 ; +0.7951 kcal/mol
C        1.2203728095    0.0997336081   -0.0322683743
C        0.6057849306   -0.8784731028    0.9800516008
C       -0.7084500668   -0.9424293954    0.7106132327
C       -0.9594759576   -0.0085858327   -0.4906334981
C       -0.5726795202    1.4048924414    0.0139846047
N        0.6730352470    1.4986100087    0.2908346063
H        2.3041488258    0.1160787167   -0.1226927326
H        1.1536388765   -1.3719938753    1.7731144868
H       -1.4798853836   -1.4964219050    1.2309364150
H       -1.9087377291   -0.1045495559   -1.0161529137
H       -1.2655653558    2.2319726151    0.1560749882
C        0.3567959849   -0.2760349879   -1.2167892686
H        0.5810173389   -0.2727987352   -2.2770731472
13   
Frame  24 IRC: Energy =  -286.8711800000 ; +0.8164 kcal/mol
C        1.2207036383    0.1003179778   -0.0320377576
C        0.6061285320   -0.8779717591    0.9791674333
C       -0.7085289600   -0.9419049441    0.7094961423
C       -0.9596240024   -0.0079213534   -0.4904465503
C       -0.5726067229    1.4042338917    0.0143871956
N        0.6731374471    1.4991730302    0.2918595821
H        2.3038221411    0.1168734458   -0.1226549287
H        1.1539843720   -1.3724205865    1.7728449831
H       -1.4801115624   -1.4969054226    1.2305265468
H       -1.9086432861   -0.1038465540   -1.0163457008
H       -1.2662843417    2.2327732326    0.1572466878
C        0.3567922122   -0.2750380759   -1.2172273804
H        0.5812305326   -0.2773628827   -2.2768162533
13   
Frame  25 IRC: Energy =  -286.8710390000 ; +0.9049 kcal/mol
C        1.2204142891    0.1033917827   -0.0323755413
C        0.6062351804   -0.8782569294    0.9774101709
C       -0.7080273062   -0.9423608213    0.7077746061
C       -0.9594726423   -0.0052604356   -0.4914797666
C       -0.5735900093    1.4070243126    0.0178831680
N        0.6718363233    1.5005830786    0.2956840744
H        2.3041537545    0.1203105996   -0.1226128815
H        1.1541345165   -1.3730008758    1.7696387517
H       -1.4791263447   -1.4974761339    1.2272738672
H       -1.9085663192   -0.1006126729   -1.0172164275
H       -1.2671123218    2.2331498402    0.1616334163
C        0.3568762402   -0.2694499094   -1.2171511995
H        0.5822446396   -0.2980418354   -2.2764622382
13   
Frame  26 IRC: Energy =  -286.8709950000 ; +0.9325 kcal/mol
C        1.2205124588    0.1042389534   -0.0321809647
C        0.6065870071   -0.8779126261    0.9764666181
C       -0.7080545470   -0.9419720951    0.7065580524
C       -0.9594181540   -0.0043675796   -0.4912651719
C       -0.5737121075    1.4067052163    0.0185947800
N        0.6718590952    1.5012391367    0.2970471594
H        2.3039946706    0.1213539302   -0.1225949631
H        1.1544235966   -1.3733959660    1.7690444187
H       -1.4792011365   -1.4979387397    1.2265912638
H       -1.9085864874   -0.0996788518   -1.0175491927
H       -1.2678183182    2.2339026812    0.1630701837
C        0.3569585500   -0.2678300429   -1.2179508157
H        0.5824553722   -0.3043440166   -2.2758313681
13   
Frame  27 IRC: Energy =  -286.8708970000 ; +0.9940 kcal/mol
C        1.2205180581    0.1063449820   -0.0324737110
C        0.6066849465   -0.8781456456    0.9750766497
C       -0.7076694496   -0.9423809294    0.7052562647
C       -0.9595040901   -0.0025708340   -0.4921662203
C       -0.5743417261    1.4086433266    0.0210965512
N        0.6708946337    1.5021583463    0.2997558693
H        2.3041271971    0.1237044533   -0.1225610090
H        1.1545391889   -1.3737875479    1.7668646906
H       -1.4785060725   -1.4983094349    1.2243604194
H       -1.9084192753   -0.0974391899   -1.0180736625
H       -1.2683779796    2.2341604901    0.1659961901
C        0.3569297670   -0.2633449184   -1.2176496496
H        0.5831248019   -0.3190330984   -2.2754823825
13   
Frame  28 IRC: Energy =  -286.8708520000 ; +1.0222 kcal/mol
C        1.2204269240    0.1072575495   -0.0323037588
C        0.6069579580   -0.8779430768    0.9741567514
C       -0.7075980313   -0.9421298706    0.7041030405
C       -0.9593423661   -0.0016428000   -0.4919535678
C       -0.5744952254    1.4085839710    0.0219476629
N        0.6707928791    1.5027825600    0.3011648910
H        2.3041171133    0.1247759208   -0.1225656112
H        1.1547655763   -1.3741174111    1.7661505527
H       -1.4784837352   -1.4987047893    1.2235958397
H       -1.9085063562   -0.0964724740   -1.0184566153
H       -1.2689922733    2.2347963430    0.1674099046
C        0.3570777393   -0.2614227680   -1.2186882226
H        0.5832797975   -0.3257631544   -2.2745608671
13   
Frame  29 IRC: Energy =  -286.8707820000 ; +1.0661 kcal/mol
C        1.2206035054    0.1087950335   -0.0325642543
C        0.6070810020   -0.8781296350    0.9730292268
C       -0.7073262262   -0.9424742251    0.7030461662
C       -0.9595125855   -0.0003343945   -0.4927247315
C       -0.5749574217    1.4099370502    0.0238080775
N        0.6701051890    1.5034437074    0.3032138969
H        2.3041180939    0.1264945151   -0.1225318181
H        1.1548601179   -1.3744033088    1.7645665289
H       -1.4779694217   -1.4989726969    1.2219651220
H       -1.9083165691   -0.0948207357   -1.0187961285
H       -1.2694244373    2.2350234044    0.1695135558
C        0.3569793321   -0.2577178010   -1.2182790967
H        0.5837594212   -0.3368409136   -2.2742465449
13   
Frame  30 IRC: Energy =  -286.8707370000 ; +1.0944 kcal/mol
C        1.2204203750    0.1097581239   -0.0324208374
C        0.6073127616   -0.8780219380    0.9720979144
C       -0.7071944221   -0.9423333446    0.7019228765
C       -0.9593282322    0.0006136992   -0.4925594017
C       -0.5751385054    1.4100832660    0.0247754821
N        0.6699108918    1.5040394816    0.3046651479
H        2.3041915680    0.1275935307   -0.1225496187
H        1.1550473971   -1.3746925391    1.7637659646
H       -1.4778730192   -1.4993194226    1.2211304423
H       -1.9084176560   -0.0938181331   -1.0191955283
H       -1.2699704618    2.2355687284    0.1709147091
C        0.3571618144   -0.2555061131   -1.2194289752
H        0.5838774887   -0.3439653392   -2.2731181755
13   
Frame  31 IRC: Energy =  -286.8706850000 ; +1.1270 kcal/mol
C        1.2206652498    0.1109101527   -0.0326528441
C        0.6074415603   -0.8781738388    0.9711830709
C       -0.7069972761   -0.9426166599    0.7010548424
C       -0.9595042694    0.0015968409   -0.4932053578
C       -0.5754899868    1.4110390103    0.0261831169
N        0.6694155936    1.5045307847    0.3062455176
H        2.3041265119    0.1288842405   -0.1225170691
H        1.1551233082   -1.3749063915    1.7625791300
H       -1.4774849757   -1.4995217139    1.2199061303
H       -1.9082420396   -0.0925700989   -1.0194270196
H       -1.2703149872    2.2357710860    0.1724749459
C        0.3570287760   -0.2524381468   -1.2189828693
H        0.5842325350   -0.3525052654   -2.2728415942
13   
Frame  32 IRC: Energy =  -286.8706410000 ; +1.1546 kcal/mol
C        1.2204555557    0.1119349401   -0.0325338766
C        0.6076572809   -0.8781329023    0.9702034381
C       -0.7068239921   -0.9425625855    0.6999139796
C       -0.9593377432    0.0025804266   -0.4931027387
C       -0.5756984443    1.4113371117    0.0272631734
N        0.6691526343    1.5051179474    0.3077684202
H        2.3042385325    0.1300328787   -0.1225421970
H        1.1552891865   -1.3751745483    1.7616944094
H       -1.4773276102   -1.4998390077    1.2189926132
H       -1.9083325166   -0.0915107769   -1.0198343492
H       -1.2708263049    2.2362641446    0.1739012191
C        0.3572270118   -0.2498996668   -1.2201997724
H        0.5843264095   -0.3601479615   -2.2715243191
13   
Frame  33 IRC: Energy =  -286.8706040000 ; +1.1778 kcal/mol
C        1.2207064004    0.1128016598   -0.0327424086
C        0.6077807578   -0.8782577571    0.9694681084
C       -0.7066771655   -0.9427901222    0.6992091849
C       -0.9594839686    0.0033242649   -0.4936384418
C       -0.5759674389    1.4120149596    0.0283281570
N        0.6687934463    1.5054820719    0.3089835966
H        2.3041464885    0.1310078445   -0.1225109851
H        1.1553477960   -1.3753348935    1.7607971906
H       -1.4770337699   -1.4999938403    1.2180668540
H       -1.9081862085   -0.0905636466   -1.0199963845
H       -1.2710985786    2.2364356525    0.1750687150
C        0.3570789077   -0.2473825577   -1.2197382581
H        0.5845933331   -0.3667436356   -2.2712953283
13   
Frame  34 IRC: Energy =  -286.8705590000 ; +1.2061 kcal/mol
C        1.2205111479    0.1139052561   -0.0326499526
C        0.6079905010   -0.8782611729    0.9684187026
C       -0.7064762063   -0.9428132432    0.6980144045
C       -0.9593441190    0.0043631168   -0.4936001790
C       -0.5762115741    1.4124392821    0.0295449641
N        0.6684705545    1.5060845168    0.3106179669
H        2.3042723001    0.1322299084   -0.1225438513
H        1.1555038319   -1.3755991618    1.7598176702
H       -1.4768310579   -1.5003045338    1.2170663636
H       -1.9082403435   -0.0894220504   -1.0204054076
H       -1.2716126551    2.2369211385    0.1765576393
C        0.3572916437   -0.2444747158   -1.2210323036
H        0.5846759767   -0.3750683408   -2.2698060169
13   
Frame  35 IRC: Energy =  -286.8705320000 ; +1.2230 kcal/mol
C        1.2207319502    0.1145771076   -0.0328533020
C        0.6081035943   -0.8783434718    0.9678500509
C       -0.7063696546   -0.9430144665    0.6974653446
C       -0.9594300015    0.0049236252   -0.4940458627
C       -0.5764144101    1.4129397982    0.0304078444
N        0.6682201852    1.5063900628    0.3115743782
H        2.3041875276    0.1329609402   -0.1225197572
H        1.1555490131   -1.3757352586    1.7591437680
H       -1.4766466416   -1.5004478589    1.2163875735
H       -1.9081288937   -0.0887060861   -1.0205249961
H       -1.2718525132    2.2370941084    0.1774271815
C        0.3571553208   -0.2424713655   -1.2206071641
H        0.5848945235   -0.3801671349   -2.2697050590
13   
Frame  36 IRC: Energy =  -286.8704880000 ; +1.2506 kcal/mol
C        1.2205985855    0.1157749754   -0.0327317786
C        0.6083561609   -0.8784869643    0.9665377505
C       -0.7060987320   -0.9431175381    0.6960209564
C       -0.9594433852    0.0060373020   -0.4940542980
C       -0.5766506681    1.4133810223    0.0315702457
N        0.6678789457    1.5069702809    0.3131546811
H        2.3043215536    0.1343265838   -0.1225083288
H        1.1556719410   -1.3759227075    1.7580054982
H       -1.4762886205   -1.5006342845    1.2151909545
H       -1.9082490093   -0.0874586071   -1.0209927247
H       -1.2722540668    2.2373998671    0.1790493867
C        0.3572770794   -0.2389272386   -1.2217243133
H        0.5848802161   -0.3893426914   -2.2675180299
13   
Frame  37 IRC: Energy =  -286.8704690000 ; +1.2626 kcal/mol
C        1.2207709283    0.1161156378   -0.0328965566
C        0.6084607047   -0.8785881153    0.9659826164
C       -0.7059649340   -0.9432433905    0.6954264275
C       -0.9595171795    0.0064501222   -0.4944223610
C       -0.5768106349    1.4136155429    0.0319167542
N        0.6676849343    1.5069464542    0.3136318876
H        2.3042453640    0.1349326675   -0.1224352540
H        1.1556574661   -1.3759192408    1.7574146807
H       -1.4759991459   -1.5006093909    1.2145880474
H       -1.9081751224   -0.0869004677   -1.0210476557
H       -1.2723414501    2.2373992835    0.1797411921
C        0.3570541693   -0.2370723037   -1.2210227760
H        0.5849349000   -0.3931267992   -2.2668770027
13   
Frame  38 IRC: Energy =  -286.8704130000 ; +1.2977 kcal/mol
C        1.2206155649    0.1180159195   -0.0329854713
C        0.6087313778   -0.8785424410    0.9646269477
C       -0.7057283845   -0.9433262128    0.6939801851
C       -0.9592768097    0.0080963351   -0.4947669813
C       -0.5773028979    1.4146753812    0.0344112921
N        0.6670168996    1.5079913572    0.3168250579
H        2.3042945243    0.1369314887   -0.1224081760
H        1.1559643273   -1.3765236947    1.7559580195
H       -1.4757684145   -1.5013337758    1.2131382566
H       -1.9081185024   -0.0849912339   -1.0215053832
H       -1.2732591420    2.2384315735    0.1820382517
C        0.3575279531   -0.2325675083   -1.2234705912
H        0.5853035042   -0.4068571888   -2.2658414075
13   