13   
Frame   0 IRC: Energy =  -286.8724810000 ; +0.0000 kcal/mol
C        0.0221620000   -0.0877640000   -0.0000000000
C       -0.1431810000   -0.0043420000    0.0000000000
C       -0.1139830000    0.0376050000    0.0000000000
C        0.0143680000   -0.0798670000   -0.0000000000
C       -0.1281560000    0.0044400000   -0.0000000000
N       -0.1960320000    0.0900490000    0.0000000000
H        0.1277510000    0.0016290000   -0.0000000000
H        0.1361310000   -0.0011460000    0.0000000000
H        0.1361130000   -0.0025280000    0.0000000000
H        0.1237240000    0.0017430000   -0.0000000000
H        0.1391050000    0.0010390000    0.0000000000
C       -0.2558980000    1.0671540000   -0.0000000000
H        0.1378950000   -0.0280120000   -0.0000000000
13   
Frame   1 IRC: Energy =  -286.8724770000 ; +0.0025 kcal/mol
C        0.0222680000   -0.0878340000   -0.0000000000
C       -0.1431600000   -0.0042820000    0.0000000000
C       -0.1139380000    0.0377270000    0.0000000000
C        0.0143980000   -0.0799210000   -0.0000000000
C       -0.1281590000    0.0044010000   -0.0000000000
N       -0.1960660000    0.0898800000    0.0000000000
H        0.1277390000    0.0016270000   -0.0000000000
H        0.1361500000   -0.0011490000    0.0000000000
H        0.1361320000   -0.0025310000    0.0000000000
H        0.1237180000    0.0017400000   -0.0000000000
H        0.1390860000    0.0010360000    0.0000000000
C       -0.2560410000    1.0673810000   -0.0000000000
H        0.1378730000   -0.0280750000   -0.0000000000
13   
Frame   2 IRC: Energy =  -286.8724740000 ; +0.0044 kcal/mol
C        0.0225120000   -0.0878710000   -0.0000000000
C       -0.1432830000   -0.0042580000    0.0000000000
C       -0.1139350000    0.0378920000    0.0000000000
C        0.0144060000   -0.0799560000   -0.0000000000
C       -0.1281280000    0.0043450000   -0.0000000000
N       -0.1961160000    0.0897590000    0.0000000000
H        0.1277340000    0.0016240000   -0.0000000000
H        0.1361490000   -0.0011500000    0.0000000000
H        0.1361300000   -0.0025350000    0.0000000000
H        0.1237100000    0.0017370000   -0.0000000000
H        0.1390930000    0.0010350000    0.0000000000
C       -0.2561350000    1.0675080000   -0.0000000000
H        0.1378630000   -0.0281300000   -0.0000000000
13   
Frame   3 IRC: Energy =  -286.8724700000 ; +0.0069 kcal/mol
C        0.0225910000   -0.0879380000   -0.0000000000
C       -0.1432490000   -0.0041950000    0.0000000000
C       -0.1138870000    0.0379970000    0.0000000000
C        0.0144250000   -0.0800050000   -0.0000000000
C       -0.1281240000    0.0043100000   -0.0000000000
N       -0.1961460000    0.0895910000    0.0000000000
H        0.1277230000    0.0016220000   -0.0000000000
H        0.1361670000   -0.0011540000    0.0000000000
H        0.1361480000   -0.0025380000    0.0000000000
H        0.1237040000    0.0017340000   -0.0000000000
H        0.1390730000    0.0010320000    0.0000000000
C       -0.2562670000    1.0677320000   -0.0000000000
H        0.1378430000   -0.0281870000   -0.0000000000
13   
Frame   4 IRC: Energy =  -286.8724650000 ; +0.0100 kcal/mol
C        0.0229190000   -0.0879830000   -0.0000000000
C       -0.1434180000   -0.0041670000    0.0000000000
C       -0.1138750000    0.0382070000    0.0000000000
C        0.0144390000   -0.0800530000   -0.0000000000
C       -0.1280930000    0.0042570000   -0.0000000000
N       -0.1962140000    0.0894470000    0.0000000000
H        0.1277160000    0.0016200000   -0.0000000000
H        0.1361670000   -0.0011550000    0.0000000000
H        0.1361500000   -0.0025440000    0.0000000000
H        0.1236910000    0.0017300000   -0.0000000000
H        0.1390810000    0.0010300000    0.0000000000
C       -0.2563910000    1.0678710000   -0.0000000000
H        0.1378280000   -0.0282610000   -0.0000000000
13   
Frame   5 IRC: Energy =  -286.8724600000 ; +0.0132 kcal/mol
C        0.0229060000   -0.0880180000   -0.0000000000
C       -0.1433940000   -0.0041010000    0.0000000000
C       -0.1138270000    0.0383370000    0.0000000000
C        0.0144270000   -0.0800850000   -0.0000000000
C       -0.1280510000    0.0041840000   -0.0000000000
N       -0.1962160000    0.0891630000    0.0000000000
H        0.1277030000    0.0016150000   -0.0000000000
H        0.1361870000   -0.0011590000    0.0000000000
H        0.1361700000   -0.0025480000    0.0000000000
H        0.1236970000    0.0017250000   -0.0000000000
H        0.1390540000    0.0010280000    0.0000000000
C       -0.2564700000    1.0681150000   -0.0000000000
H        0.1378140000   -0.0282540000   -0.0000000000
13   
Frame   6 IRC: Energy =  -286.8724510000 ; +0.0188 kcal/mol
C        0.0234000000   -0.0882330000   -0.0000000000
C       -0.1433960000   -0.0040370000    0.0000000000
C       -0.1138430000    0.0386680000    0.0000000000
C        0.0146120000   -0.0802280000   -0.0000000000
C       -0.1281030000    0.0040550000   -0.0000000000
N       -0.1963350000    0.0891300000    0.0000000000
H        0.1276950000    0.0016150000   -0.0000000000
H        0.1361940000   -0.0011610000    0.0000000000
H        0.1361690000   -0.0025540000    0.0000000000
H        0.1236820000    0.0017230000   -0.0000000000
H        0.1390500000    0.0010260000    0.0000000000
C       -0.2568960000    1.0685510000   -0.0000000000
H        0.1377730000   -0.0285540000   -0.0000000000
13   
Frame   7 IRC: Energy =  -286.8724470000 ; +0.0213 kcal/mol
C        0.0235550000   -0.0883460000   -0.0000000000
C       -0.1433050000   -0.0039970000    0.0000000000
C       -0.1137930000    0.0387250000    0.0000000000
C        0.0146580000   -0.0803040000   -0.0000000000
C       -0.1281330000    0.0040940000   -0.0000000000
N       -0.1964010000    0.0891690000    0.0000000000
H        0.1276900000    0.0016170000   -0.0000000000
H        0.1362130000   -0.0011630000    0.0000000000
H        0.1361830000   -0.0025540000    0.0000000000
H        0.1236620000    0.0017250000   -0.0000000000
H        0.1390300000    0.0010210000    0.0000000000
C       -0.2571010000    1.0687230000   -0.0000000000
H        0.1377420000   -0.0287110000   -0.0000000000
13   
Frame   8 IRC: Energy =  -286.8724300000 ; +0.0320 kcal/mol
C        0.0242120000   -0.0882860000   -0.0000000000
C       -0.1439530000   -0.0037800000    0.0000000000
C       -0.1136550000    0.0392660000    0.0000000000
C        0.0143900000   -0.0803470000   -0.0000000000
C       -0.1278250000    0.0039560000   -0.0000000000
N       -0.1965470000    0.0880160000    0.0000000000
H        0.1276370000    0.0015990000   -0.0000000000
H        0.1362470000   -0.0011760000    0.0000000000
H        0.1362320000   -0.0025740000    0.0000000000
H        0.1236070000    0.0017040000   -0.0000000000
H        0.1390400000    0.0010070000    0.0000000000
C       -0.2571290000    1.0691670000   -0.0000000000
H        0.1377450000   -0.0285530000   -0.0000000000
13   
Frame   9 IRC: Energy =  -286.8724240000 ; +0.0358 kcal/mol
C        0.0243880000   -0.0882030000   -0.0000000000
C       -0.1442820000   -0.0037320000    0.0000000000
C       -0.1135250000    0.0393540000    0.0000000000
C        0.0139610000   -0.0803130000   -0.0000000000
C       -0.1273860000    0.0040570000   -0.0000000000
N       -0.1966300000    0.0875810000    0.0000000000
H        0.1276440000    0.0015930000   -0.0000000000
H        0.1362290000   -0.0011780000    0.0000000000
H        0.1362140000   -0.0025790000    0.0000000000
H        0.1235650000    0.0016990000   -0.0000000000
H        0.1390280000    0.0009940000    0.0000000000
C       -0.2569600000    1.0691960000   -0.0000000000
H        0.1377530000   -0.0284690000   -0.0000000000
13   
Frame  10 IRC: Energy =  -286.8723540000 ; +0.0797 kcal/mol
C        0.0262820000   -0.0891820000   -0.0000000000
C       -0.1442010000   -0.0032540000    0.0000000000
C       -0.1134630000    0.0413080000    0.0000000000
C        0.0150430000   -0.0810130000   -0.0000000000
C       -0.1277900000    0.0031300000   -0.0000000000
N       -0.1970150000    0.0865880000    0.0000000000
H        0.1275490000    0.0015790000   -0.0000000000
H        0.1363460000   -0.0011990000    0.0000000000
H        0.1363240000   -0.0026210000    0.0000000000
H        0.1235700000    0.0016740000   -0.0000000000
H        0.1389450000    0.0009890000    0.0000000000
C       -0.2591520000    1.0716270000   -0.0000000000
H        0.1375620000   -0.0296260000   -0.0000000000
13   
Frame  11 IRC: Energy =  -286.8723460000 ; +0.0847 kcal/mol
C        0.0266700000   -0.0892150000   -0.0000000000
C       -0.1445010000   -0.0031910000    0.0000000000
C       -0.1132210000    0.0414720000    0.0000000000
C        0.0144710000   -0.0810510000   -0.0000000000
C       -0.1271950000    0.0033450000   -0.0000000000
N       -0.1972000000    0.0862170000    0.0000000000
H        0.1275650000    0.0015770000   -0.0000000000
H        0.1363500000   -0.0012000000    0.0000000000
H        0.1363200000   -0.0026270000    0.0000000000
H        0.1234910000    0.0016720000   -0.0000000000
H        0.1389010000    0.0009640000    0.0000000000
C       -0.2591790000    1.0717910000   -0.0000000000
H        0.1375270000   -0.0297550000   -0.0000000000
13   
Frame  12 IRC: Energy =  -286.8723040000 ; +0.1111 kcal/mol
C        0.0276460000   -0.0894980000   -0.0000000000
C       -0.1446600000   -0.0028680000    0.0000000000
C       -0.1133560000    0.0423640000    0.0000000000
C        0.0151700000   -0.0813080000   -0.0000000000
C       -0.1276690000    0.0027860000   -0.0000000000
N       -0.1973120000    0.0853660000    0.0000000000
H        0.1274740000    0.0015640000   -0.0000000000
H        0.1364240000   -0.0012160000    0.0000000000
H        0.1363980000   -0.0026480000    0.0000000000
H        0.1235020000    0.0016540000   -0.0000000000
H        0.1389210000    0.0009740000    0.0000000000
C       -0.2600660000    1.0728040000   -0.0000000000
H        0.1375290000   -0.0299730000   -0.0000000000
13   
Frame  13 IRC: Energy =  -286.8722920000 ; +0.1186 kcal/mol
C        0.0276770000   -0.0895950000   -0.0000000000
C       -0.1443930000   -0.0029150000    0.0000000000
C       -0.1137840000    0.0425700000    0.0000000000
C        0.0162740000   -0.0813650000   -0.0000000000
C       -0.1286850000    0.0022590000   -0.0000000000
N       -0.1971310000    0.0858170000    0.0000000000
H        0.1274370000    0.0015660000   -0.0000000000
H        0.1364390000   -0.0012140000    0.0000000000
H        0.1364220000   -0.0026510000    0.0000000000
H        0.1236210000    0.0016510000   -0.0000000000
H        0.1390090000    0.0010130000    0.0000000000
C       -0.2604530000    1.0728420000   -0.0000000000
H        0.1375670000   -0.0299800000   -0.0000000000
13   
Frame  14 IRC: Energy =  -286.8719910000 ; +0.3075 kcal/mol
C        0.0323630000   -0.0916940000   -0.0000000000
C       -0.1455060000   -0.0012610000    0.0000000000
C       -0.1130810000    0.0482990000    0.0000000000
C        0.0164150000   -0.0831360000   -0.0000000000
C       -0.1263220000    0.0005220000   -0.0000000000
N       -0.1985460000    0.0809010000    0.0000000000
H        0.1272380000    0.0015240000   -0.0000000000
H        0.1366960000   -0.0012600000    0.0000000000
H        0.1366440000   -0.0027610000    0.0000000000
H        0.1232620000    0.0015890000   -0.0000000000
H        0.1387100000    0.0008890000    0.0000000000
C       -0.2653310000    1.0792190000   -0.0000000000
H        0.1374580000   -0.0328290000   -0.0000000000
13   
Frame  15 IRC: Energy =  -286.8719700000 ; +0.3207 kcal/mol
C        0.0321510000   -0.0918240000   -0.0000000000
C       -0.1452980000   -0.0013380000    0.0000000000
C       -0.1134900000    0.0487000000    0.0000000000
C        0.0172030000   -0.0831930000   -0.0000000000
C       -0.1269360000    0.0000410000   -0.0000000000
N       -0.1983390000    0.0810250000    0.0000000000
H        0.1272180000    0.0015260000   -0.0000000000
H        0.1368410000   -0.0012590000    0.0000000000
H        0.1368060000   -0.0027710000    0.0000000000
H        0.1233330000    0.0015860000   -0.0000000000
H        0.1387770000    0.0009110000    0.0000000000
C       -0.2657140000    1.0795480000   -0.0000000000
H        0.1374480000   -0.0329520000   -0.0000000000
13   
Frame  16 IRC: Energy =  -286.8718710000 ; +0.3828 kcal/mol
C        0.0337890000   -0.0924260000   -0.0000000000
C       -0.1456720000   -0.0006830000    0.0000000000
C       -0.1130170000    0.0501950000    0.0000000000
C        0.0168020000   -0.0837310000   -0.0000000000
C       -0.1257700000   -0.0002160000   -0.0000000000
N       -0.1989210000    0.0795500000    0.0000000000
H        0.1271640000    0.0015180000   -0.0000000000
H        0.1367460000   -0.0012670000    0.0000000000
H        0.1366780000   -0.0027870000    0.0000000000
H        0.1231820000    0.0015750000   -0.0000000000
H        0.1386360000    0.0008590000    0.0000000000
C       -0.2671490000    1.0812340000   -0.0000000000
H        0.1375320000   -0.0338200000   -0.0000000000
13   
Frame  17 IRC: Energy =  -286.8718410000 ; +0.4016 kcal/mol
C        0.0337110000   -0.0926110000   -0.0000000000
C       -0.1455150000   -0.0007300000    0.0000000000
C       -0.1134360000    0.0507840000    0.0000000000
C        0.0175900000   -0.0838290000   -0.0000000000
C       -0.1262870000   -0.0007650000   -0.0000000000
N       -0.1987430000    0.0795600000    0.0000000000
H        0.1271430000    0.0015200000   -0.0000000000
H        0.1369000000   -0.0012660000    0.0000000000
H        0.1368470000   -0.0027990000    0.0000000000
H        0.1232430000    0.0015720000   -0.0000000000
H        0.1387030000    0.0008770000    0.0000000000
C       -0.2676910000    1.0817220000   -0.0000000000
H        0.1375350000   -0.0340350000   -0.0000000000
13   
Frame  18 IRC: Energy =  -286.8717780000 ; +0.4411 kcal/mol
C        0.0347790000   -0.0929710000   -0.0000000000
C       -0.1457570000   -0.0002550000    0.0000000000
C       -0.1130130000    0.0515970000    0.0000000000
C        0.0171180000   -0.0841630000   -0.0000000000
C       -0.1253660000   -0.0007850000    0.0000000000
N       -0.1991710000    0.0786030000    0.0000000000
H        0.1271120000    0.0015160000   -0.0000000000
H        0.1367860000   -0.0012710000    0.0000000000
H        0.1367060000   -0.0028040000    0.0000000000
H        0.1231280000    0.0015670000   -0.0000000000
H        0.1385860000    0.0008370000    0.0000000000
C       -0.2685170000    1.0826960000   -0.0000000000
H        0.1376090000   -0.0345690000   -0.0000000000
13   
Frame  19 IRC: Energy =  -286.8717240000 ; +0.4750 kcal/mol
C        0.0349800000   -0.0932930000   -0.0000000000
C       -0.1456090000   -0.0002110000    0.0000000000
C       -0.1134870000    0.0525690000    0.0000000000
C        0.0180570000   -0.0843680000   -0.0000000000
C       -0.1258400000   -0.0015350000    0.0000000000
N       -0.1990420000    0.0784340000    0.0000000000
H        0.1270770000    0.0015180000   -0.0000000000
H        0.1369400000   -0.0012670000    0.0000000000
H        0.1368690000   -0.0028180000    0.0000000000
H        0.1231850000    0.0015630000   -0.0000000000
H        0.1386530000    0.0008540000    0.0000000000
C       -0.2694300000    1.0835410000   -0.0000000000
H        0.1376480000   -0.0349870000   -0.0000000000
13   
Frame  20 IRC: Energy =  -286.8716800000 ; +0.5026 kcal/mol
C        0.0357680000   -0.0935290000   -0.0000000000
C       -0.1458190000    0.0001980000    0.0000000000
C       -0.1130420000    0.0530200000    0.0000000000
C        0.0173910000   -0.0845950000   -0.0000000000
C       -0.1248770000   -0.0013390000    0.0000000000
N       -0.1994230000    0.0776350000    0.0000000000
H        0.1270660000    0.0015150000   -0.0000000000
H        0.1368340000   -0.0012730000    0.0000000000
H        0.1367380000   -0.0028180000    0.0000000000
H        0.1230640000    0.0015610000   -0.0000000000
H        0.1385290000    0.0008130000    0.0000000000
C       -0.2699320000    1.0841610000   -0.0000000000
H        0.1377040000   -0.0353500000   -0.0000000000
13   
Frame  21 IRC: Energy =  -286.8716200000 ; +0.5403 kcal/mol
C        0.0360270000   -0.0938080000   -0.0000000000
C       -0.1457680000    0.0002600000    0.0000000000
C       -0.1135750000    0.0540950000    0.0000000000
C        0.0183570000   -0.0847990000   -0.0000000000
C       -0.1253790000   -0.0021430000    0.0000000000
N       -0.1992840000    0.0773100000    0.0000000000
H        0.1270220000    0.0015170000   -0.0000000000
H        0.1370070000   -0.0012690000    0.0000000000
H        0.1369240000   -0.0028350000    0.0000000000
H        0.1231180000    0.0015570000   -0.0000000000
H        0.1386200000    0.0008310000    0.0000000000
C       -0.2708390000    1.0850030000   -0.0000000000
H        0.1377720000   -0.0357180000   -0.0000000000
13   
Frame  22 IRC: Energy =  -286.8715910000 ; +0.5585 kcal/mol
C        0.0353160000   -0.0939220000   -0.0000000000
C       -0.1452500000    0.0002090000    0.0000000000
C       -0.1139130000    0.0542440000    0.0000000000
C        0.0191440000   -0.0848550000   -0.0000000000
C       -0.1259960000   -0.0024920000    0.0000000000
N       -0.1989760000    0.0773400000    0.0000000000
H        0.1269750000    0.0015200000   -0.0000000000
H        0.1371490000   -0.0012710000    0.0000000000
H        0.1370880000   -0.0028370000    0.0000000000
H        0.1231950000    0.0015570000   -0.0000000000
H        0.1386030000    0.0008480000    0.0000000000
C       -0.2710770000    1.0854400000   -0.0000000000
H        0.1377420000   -0.0357820000   -0.0000000000
13   
Frame  23 IRC: Energy =  -286.8712140000 ; +0.7951 kcal/mol
C        0.0386300000   -0.0963770000   -0.0000000000
C       -0.1452890000    0.0019160000    0.0000000000
C       -0.1142640000    0.0600490000    0.0000000000
C        0.0199020000   -0.0865550000   -0.0000000000
C       -0.1231100000   -0.0051420000    0.0000000000
N       -0.1999920000    0.0745280000    0.0000000000
H        0.1268810000    0.0015470000   -0.0000000000
H        0.1370860000   -0.0012180000    0.0000000000
H        0.1369240000   -0.0028270000    0.0000000000
H        0.1229120000    0.0015630000   -0.0000000000
H        0.1384550000    0.0007410000    0.0000000000
C       -0.2766180000    1.0912050000   -0.0000000000
H        0.1384820000   -0.0394280000   -0.0000000000
13   
Frame  24 IRC: Energy =  -286.8711800000 ; +0.8164 kcal/mol
C        0.0383850000   -0.0965780000   -0.0000000000
C       -0.1449540000    0.0018790000    0.0000000000
C       -0.1148040000    0.0605950000    0.0000000000
C        0.0209850000   -0.0866450000   -0.0000000000
C       -0.1237890000   -0.0058350000    0.0000000000
N       -0.1997600000    0.0746780000    0.0000000000
H        0.1268320000    0.0015530000   -0.0000000000
H        0.1372070000   -0.0012080000    0.0000000000
H        0.1370680000   -0.0028240000    0.0000000000
H        0.1230160000    0.0015650000   -0.0000000000
H        0.1385240000    0.0007610000    0.0000000000
C       -0.2772110000    1.0917610000   -0.0000000000
H        0.1385020000   -0.0397010000   -0.0000000000
13   
Frame  25 IRC: Energy =  -286.8710390000 ; +0.9049 kcal/mol
C        0.0393940000   -0.0975070000   -0.0000000000
C       -0.1448630000    0.0026150000    0.0000000000
C       -0.1148810000    0.0626200000    0.0000000000
C        0.0207840000   -0.0871990000   -0.0000000000
C       -0.1222670000   -0.0067050000    0.0000000000
N       -0.2001250000    0.0735860000    0.0000000000
H        0.1268280000    0.0015710000   -0.0000000000
H        0.1371390000   -0.0011780000    0.0000000000
H        0.1369420000   -0.0028010000    0.0000000000
H        0.1228560000    0.0015750000   -0.0000000000
H        0.1384220000    0.0007100000    0.0000000000
C       -0.2791040000    1.0937620000   -0.0000000000
H        0.1388760000   -0.0410500000   -0.0000000000
13   
Frame  26 IRC: Energy =  -286.8709950000 ; +0.9325 kcal/mol
C        0.0393340000   -0.0977480000   -0.0000000000
C       -0.1445920000    0.0026740000    0.0000000000
C       -0.1154010000    0.0632680000    0.0000000000
C        0.0217780000   -0.0872990000   -0.0000000000
C       -0.1227340000   -0.0074800000    0.0000000000
N       -0.1999680000    0.0736280000    0.0000000000
H        0.1267740000    0.0015790000   -0.0000000000
H        0.1372340000   -0.0011640000    0.0000000000
H        0.1370580000   -0.0027910000    0.0000000000
H        0.1229480000    0.0015790000   -0.0000000000
H        0.1384910000    0.0007240000    0.0000000000
C       -0.2798240000    1.0944650000   -0.0000000000
H        0.1389030000   -0.0414350000   -0.0000000000
13   
Frame  27 IRC: Energy =  -286.8708970000 ; +0.9940 kcal/mol
C        0.0398420000   -0.0984640000   -0.0000000000
C       -0.1443980000    0.0032000000    0.0000000000
C       -0.1155480000    0.0647580000    0.0000000000
C        0.0216070000   -0.0876620000   -0.0000000000
C       -0.1216060000   -0.0081560000    0.0000000000
N       -0.2001620000    0.0729360000    0.0000000000
H        0.1267890000    0.0015960000   -0.0000000000
H        0.1371860000   -0.0011350000    0.0000000000
H        0.1369600000   -0.0027650000    0.0000000000
H        0.1228270000    0.0015900000   -0.0000000000
H        0.1384100000    0.0006870000    0.0000000000
C       -0.2811460000    1.0958210000   -0.0000000000
H        0.1392370000   -0.0424070000   -0.0000000000
13   
Frame  28 IRC: Energy =  -286.8708520000 ; +1.0222 kcal/mol
C        0.0398670000   -0.0987000000   -0.0000000000
C       -0.1441840000    0.0033290000    0.0000000000
C       -0.1159800000    0.0653700000    0.0000000000
C        0.0223560000   -0.0877440000   -0.0000000000
C       -0.1218050000   -0.0088780000    0.0000000000
N       -0.2000620000    0.0728600000    0.0000000000
H        0.1267400000    0.0016060000   -0.0000000000
H        0.1372570000   -0.0011200000    0.0000000000
H        0.1370440000   -0.0027490000    0.0000000000
H        0.1228920000    0.0015950000   -0.0000000000
H        0.1384570000    0.0006920000    0.0000000000
C       -0.2818310000    1.0965510000   -0.0000000000
H        0.1392500000   -0.0428130000   -0.0000000000
13   
Frame  29 IRC: Energy =  -286.8707820000 ; +1.0661 kcal/mol
C        0.0400990000   -0.0992710000   -0.0000000000
C       -0.1439390000    0.0037180000    0.0000000000
C       -0.1161970000    0.0665380000    0.0000000000
C        0.0223190000   -0.0879860000   -0.0000000000
C       -0.1210260000   -0.0094710000    0.0000000000
N       -0.2001530000    0.0724420000    0.0000000000
H        0.1267600000    0.0016210000   -0.0000000000
H        0.1372220000   -0.0010910000    0.0000000000
H        0.1369700000   -0.0027230000    0.0000000000
H        0.1228120000    0.0016050000   -0.0000000000
H        0.1384030000    0.0006680000    0.0000000000
C       -0.2828200000    1.0974970000   -0.0000000000
H        0.1395510000   -0.0435450000   -0.0000000000
13   
Frame  30 IRC: Energy =  -286.8707370000 ; +1.0944 kcal/mol
C        0.0401640000   -0.0995130000   -0.0000000000
C       -0.1437510000    0.0039000000    0.0000000000
C       -0.1165770000    0.0671420000    0.0000000000
C        0.0228690000   -0.0880510000   -0.0000000000
C       -0.1210200000   -0.0101660000    0.0000000000
N       -0.2000850000    0.0722850000    0.0000000000
H        0.1267170000    0.0016320000   -0.0000000000
H        0.1372760000   -0.0010740000    0.0000000000
H        0.1370290000   -0.0027020000    0.0000000000
H        0.1228520000    0.0016120000   -0.0000000000
H        0.1384340000    0.0006670000    0.0000000000
C       -0.2834670000    1.0982310000   -0.0000000000
H        0.1395590000   -0.0439620000   -0.0000000000
13   
Frame  31 IRC: Energy =  -286.8706850000 ; +1.1270 kcal/mol
C        0.0402410000   -0.0999690000   -0.0000000000
C       -0.1435000000    0.0041970000    0.0000000000
C       -0.1168240000    0.0680690000    0.0000000000
C        0.0229290000   -0.0882080000   -0.0000000000
C       -0.1204870000   -0.0106860000    0.0000000000
N       -0.2001210000    0.0720360000    0.0000000000
H        0.1267380000    0.0016450000   -0.0000000000
H        0.1372490000   -0.0010480000    0.0000000000
H        0.1369740000   -0.0026770000    0.0000000000
H        0.1228030000    0.0016210000   -0.0000000000
H        0.1383990000    0.0006500000    0.0000000000
C       -0.2842280000    1.0988890000   -0.0000000000
H        0.1398280000   -0.0445200000   -0.0000000000
13   
Frame  32 IRC: Energy =  -286.8706410000 ; +1.1546 kcal/mol
C        0.0403060000   -0.1002290000   -0.0000000000
C       -0.1433060000    0.0044240000    0.0000000000
C       -0.1171900000    0.0686930000    0.0000000000
C        0.0233440000   -0.0882540000   -0.0000000000
C       -0.1203330000   -0.0113920000    0.0000000000
N       -0.2000650000    0.0718260000    0.0000000000
H        0.1267020000    0.0016580000   -0.0000000000
H        0.1372910000   -0.0010270000    0.0000000000
H        0.1370140000   -0.0026510000    0.0000000000
H        0.1228260000    0.0016290000   -0.0000000000
H        0.1384190000    0.0006460000    0.0000000000
C       -0.2848450000    1.0996260000   -0.0000000000
H        0.1398370000   -0.0449490000   -0.0000000000
13   
Frame  33 IRC: Energy =  -286.8706040000 ; +1.1778 kcal/mol
C        0.0403070000   -0.1005890000   -0.0000000000
C       -0.1430780000    0.0046550000    0.0000000000
C       -0.1174380000    0.0694290000    0.0000000000
C        0.0234630000   -0.0883510000   -0.0000000000
C       -0.1199720000   -0.0118350000    0.0000000000
N       -0.2000720000    0.0716860000    0.0000000000
H        0.1267230000    0.0016690000   -0.0000000000
H        0.1372690000   -0.0010040000    0.0000000000
H        0.1369720000   -0.0026290000    0.0000000000
H        0.1227980000    0.0016370000   -0.0000000000
H        0.1383960000    0.0006340000    0.0000000000
C       -0.2854420000    1.1000670000   -0.0000000000
H        0.1400740000   -0.0453700000   -0.0000000000
13   
Frame  34 IRC: Energy =  -286.8705590000 ; +1.2061 kcal/mol
C        0.0403500000   -0.1008710000   -0.0000000000
C       -0.1428680000    0.0049300000    0.0000000000
C       -0.1178130000    0.0700890000    0.0000000000
C        0.0237790000   -0.0883730000   -0.0000000000
C       -0.1197030000   -0.0125810000    0.0000000000
N       -0.2000180000    0.0714300000    0.0000000000
H        0.1266910000    0.0016840000   -0.0000000000
H        0.1373030000   -0.0009800000    0.0000000000
H        0.1369990000   -0.0025960000    0.0000000000
H        0.1228060000    0.0016470000   -0.0000000000
H        0.1384100000    0.0006260000    0.0000000000
C       -0.2860270000    1.1008060000   -0.0000000000
H        0.1400910000   -0.0458130000   -0.0000000000
13   
Frame  35 IRC: Energy =  -286.8705320000 ; +1.2230 kcal/mol
C        0.0403430000   -0.1011450000   -0.0000000000
C       -0.1427290000    0.0051120000    0.0000000000
C       -0.1180260000    0.0706780000    0.0000000000
C        0.0239120000   -0.0884290000   -0.0000000000
C       -0.1194610000   -0.0129390000    0.0000000000
N       -0.2000180000    0.0713430000    0.0000000000
H        0.1267130000    0.0016940000   -0.0000000000
H        0.1372870000   -0.0009600000    0.0000000000
H        0.1369730000   -0.0025770000    0.0000000000
H        0.1227930000    0.0016540000   -0.0000000000
H        0.1383970000    0.0006180000    0.0000000000
C       -0.2864920000    1.1010760000   -0.0000000000
H        0.1403070000   -0.0461240000   -0.0000000000
13   
Frame  36 IRC: Energy =  -286.8704880000 ; +1.2506 kcal/mol
C        0.0402210000   -0.1014840000   -0.0000000000
C       -0.1422930000    0.0054210000    0.0000000000
C       -0.1184780000    0.0714160000    0.0000000000
C        0.0242780000   -0.0884100000   -0.0000000000
C       -0.1191250000   -0.0138210000    0.0000000000
N       -0.1999060000    0.0711260000    0.0000000000
H        0.1266930000    0.0017120000   -0.0000000000
H        0.1373080000   -0.0009280000    0.0000000000
H        0.1369720000   -0.0025330000    0.0000000000
H        0.1228160000    0.0016660000   -0.0000000000
H        0.1383910000    0.0006110000    0.0000000000
C       -0.2871600000    1.1018200000   -0.0000000000
H        0.1402840000   -0.0465940000   -0.0000000000
13   
Frame  37 IRC: Energy =  -286.8704690000 ; +1.2626 kcal/mol
C        0.0401900000   -0.1017280000   -0.0000000000
C       -0.1419810000    0.0055870000    0.0000000000
C       -0.1187170000    0.0718390000    0.0000000000
C        0.0245140000   -0.0884130000   -0.0000000000
C       -0.1189970000   -0.0141570000    0.0000000000
N       -0.1998930000    0.0711810000    0.0000000000
H        0.1267250000    0.0017200000   -0.0000000000
H        0.1372840000   -0.0009100000    0.0000000000
H        0.1369300000   -0.0025120000    0.0000000000
H        0.1228270000    0.0016710000   -0.0000000000
H        0.1383800000    0.0006070000    0.0000000000
C       -0.2876730000    1.1019570000   -0.0000000000
H        0.1404100000   -0.0468410000   -0.0000000000
13   
Frame  38 IRC: Energy =  -286.8704130000 ; +1.2977 kcal/mol
C        0.0403160000   -0.1021000000   -0.0000000000
C       -0.1420040000    0.0061030000    0.0000000000
C       -0.1193210000    0.0729100000    0.0000000000
C        0.0245650000   -0.0884020000   -0.0000000000
C       -0.1183720000   -0.0151900000    0.0000000000
N       -0.1998890000    0.0705150000    0.0000000000
H        0.1266780000    0.0017450000   -0.0000000000
H        0.1373360000   -0.0008690000    0.0000000000
H        0.1369750000   -0.0024600000    0.0000000000
H        0.1227650000    0.0016900000   -0.0000000000
H        0.1384030000    0.0005850000    0.0000000000
C       -0.2880960000    1.1028890000   -0.0000000000
H        0.1406450000   -0.0474170000   -0.0000000000
13   