
Running Job 1 of 1 irc_transition.in
qchem irc_transition.in_9487.0 ./irc_transition.d/ 1
/home/leeping/opt/qchem/5.0.2-openmp/exe/qcprog.exe_s irc_transition.in_9487.0 ./irc_transition.d/
Check license passed

                  Welcome to Q-Chem
     A Quantum Leap Into The Future Of Chemistry


 Q-Chem 5.0, Q-Chem, Inc., Pleasanton, CA (2017)

 Yihan Shao,  Zhengting Gan,  E. Epifanovsky,  A. T. B. Gilbert,  M. Wormit,  
 J. Kussmann,  A. W. Lange,  A. Behn,  Jia Deng,  Xintian Feng,  D. Ghosh,  
 M. Goldey,  P. R. Horn,  L. D. Jacobson,  I. Kaliman,  T. Kus,  A. Landau,  
 Jie Liu,  E. I. Proynov,  R. M. Richard,  R. P. Steele,  E. J. Sundstrom,  
 H. L. Woodcock III,  P. M. Zimmerman,  D. Zuev,  B. Albrecht,  E. Alguire,  
 S. A. Baeppler,  D. Barton,  Z. Benda,  Y. A. Bernard,  E. J. Berquist,  
 K. B. Bravaya,  H. Burton,  D. Casanova,  Chun-Min Chang,  Yunqing Chen,  
 A. Chien,  K. D. Closser,  M. P. Coons,  S. Dasgupta,  A. L. Dempwolff,  
 M. Diedenhofen,  Hainam Do,  R. G. Edgar,  Po-Tung Fang,  S. Fatehi,  
 Qingguo Feng,  J. Fosso-Tande,  Qinghui Ge,  A. Ghysels,  G. Gidofalvi,  
 J. Gomes,  J. Gonthier,  A. Gunina,  M. W. D. Hanson-Heine,  
 P. H. P. Harbach,  A. W. Hauser,  J. E. Herr,  E. G. Hohenstein,  
 Z. C. Holden,  Kerwin Hui,  T.-C. Jagau,  Hyunjun Ji,  B. Kaduk,  
 K. Khistyaev,  Jaehoon Kim,  P. Klunzinger,  K. Koh,  D. Kosenkov,  
 L. Koulias,  T. Kowalczyk,  C. M. Krauter,  A. Kunitsa,  Ka Un Lao,  
 A. Laurent,  K. V. Lawler,  Joonho Lee,  D. Lefrancois,  S. Lehtola,  
 D. S. Levine,  Yi-Pei Li,  You-Sheng Lin,  Fenglai Liu,  E. Livshits,  
 A. Luenser,  P. Manohar,  E. Mansoor,  S. F. Manzer,  Shan-Ping Mao,  
 Yuezhi Mao,  N. Mardirossian,  A. V. Marenich,  T. Markovich,  
 L. A. Martinez-Martinez,  S. A. Maurer,  N. J. Mayhall,  S. C. McKenzie,  
 J.-M. Mewes,  A. F. Morrison,  J. W. Mullinax,  K. Nanda,  
 T. S. Nguyen-Beck,  R. Olivares-Amaya,  J. A. Parkhill,  T. M. Perrine,  
 F. Plasser,  S. Prager,  A. Prociuk,  E. Ramos,  D. R. Rehn,  F. Rob,  
 M. Schneider,  N. Sergueev,  S. M. Sharada,  S. Sharma,  D. W. Small,  
 T. Stauch,  T. Stein,  Yu-Chuan Su,  A. J. W. Thom,  A. Tkatchenko,  
 T. Tsuchimochi,  L. Vogt,  O. Vydrov,  M. A. Watson,  J. Wenzel,  
 M. de Wergifosse,  T. A. Wesolowski,  A. White,  J. Witte,  A. Yamada,  
 Jun Yang,  K. Yao,  S. Yeganeh,  S. R. Yost,  Zhi-Qiang You,  A. Zech,  
 Igor Ying Zhang,  Xing Zhang,  Yan Zhao,  Ying Zhu,  B. R. Brooks,  
 G. K. L. Chan,  C. J. Cramer,  M. S. Gordon,  W. J. Hehre,  A. Klamt,  
 M. W. Schmidt,  C. D. Sherrill,  D. G. Truhlar,  A. Aspuru-Guzik,  R. Baer,  
 A. T. Bell,  N. A. Besley,  Jeng-Da Chai,  R. A. DiStasio Jr.,  A. Dreuw,  
 B. D. Dunietz,  T. R. Furlani,  Chao-Ping Hsu,  Yousung Jung,  Jing Kong,  
 D. S. Lambrecht,  WanZhen Liang,  C. Ochsenfeld,  V. A. Rassolov,  
 L. V. Slipchenko,  J. E. Subotnik,  T. Van Voorhis,  J. M. Herbert,  
 A. I. Krylov,  P. M. W. Gill,  M. Head-Gordon

 Contributors to earlier versions of Q-Chem not listed above: 
 R. D. Adamson,  B. Austin,  J. Baker,  G. J. O. Beran,  K. Brandhorst,  
 S. T. Brown,  E. F. C. Byrd,  A. K. Chakraborty,  C.-L. Cheng,  
 Siu Hung Chien,  D. M. Chipman,  D. L. Crittenden,  H. Dachsel,  
 R. J. Doerksen,  A. D. Dutoi,  L. Fusti-Molnar,  W. A. Goddard III,  
 A. Golubeva-Zadorozhnaya,  S. R. Gwaltney,  G. Hawkins,  A. Heyden,  
 S. Hirata,  G. Kedziora,  F. J. Keil,  C. Kelley,  Jihan Kim,  R. A. King,  
 R. Z. Khaliullin,  P. P. Korambath,  W. Kurlancheek,  A. M. Lee,  M. S. Lee,  
 S. V. Levchenko,  Ching Yeh Lin,  D. Liotard,  R. C. Lochan,  I. Lotan,  
 P. E. Maslen,  N. Nair,  D. P. O'Neill,  D. Neuhauser,  E. Neuscamman,  
 C. M. Oana,  R. Olson,  B. Peters,  R. Peverati,  P. A. Pieniazek,  
 Y. M. Rhee,  J. Ritchie,  M. A. Rohrdanz,  E. Rosta,  N. J. Russ,  
 H. F. Schaefer III,  N. E. Schultz,  N. Shenvi,  A. C. Simmonett,  A. Sodt,  
 D. Stuck,  K. S. Thanthiriwatte,  V. Vanovschi,  Tao Wang,  A. Warshel,  
 C. F. Williams,  Q. Wu,  X. Xu,  W. Zhang

 Please cite Q-Chem as follows:
 Y. Shao et al., Mol. Phys. 113, 184-215 (2015)
 DOI: 10.1080/00268976.2014.952696

 Q-Chem 5.0.2 for Intel X86 EM64T Linux

 Parts of Q-Chem use Armadillo 5.200.1 (Boston Tea Smuggler).
 http://arma.sourceforge.net/

 Q-Chem begins on Wed Mar  2 21:31:27 2022  

Host: 
0

     Scratch files written to ./irc_transition.d//
 Dec517 15110_ 26548  26544 5633   
Processing $rem in /home/leeping/opt/qchem/5.0.2-openmp/config/preferences.
 MEM_STATIC 2000
 MEM_TOTAL  8000
 SYMMETRY   OFF
 SYM_IGNORE TRUE 

Checking the input file for inconsistencies... 	...done.

--------------------------------------------------------------
User input:
--------------------------------------------------------------
$molecule
0 2
C        1.2179149434    0.1247694157   -0.0301907497
C        0.6084177021   -0.8814384173    0.9592241678
C       -0.7058703275   -0.9479663074    0.6877230016
C       -0.9620341025    0.0121806728   -0.4937019328
C       -0.5832635571    1.4158531267    0.0461801660
N        0.6603167127    1.5098625044    0.3312483434
H        2.3015806614    0.1451485149   -0.1192448897
H        1.1548541111   -1.3789023180    1.7516600165
H       -1.4749383105   -1.5064084993    1.2081794482
H       -1.9104884951   -0.0808782790   -1.0210528782
H       -1.2807257797    2.2379662972    0.1934312263
C        0.3552925298   -0.2065778260   -1.2257351744
H        0.5830981467   -0.4769559645   -2.2467667382
$end

$rem
method                b3lyp
basis                 6-31+g(d,p)
unrestricted          true
symmetry              off
sym_ignore            true
incdft                false
incfock               0
scf_convergence       8
thresh                14
jobtype               sp
scf_guess             core
scf_guess_mix         5
scf_algorithm         diis
max_scf_cycles        100
$end

--------------------------------------------------------------
 ----------------------------------------------------------------
             Standard Nuclear Orientation (Angstroms)
    I     Atom           X                Y                Z
 ----------------------------------------------------------------
    1      C       1.2179149434     0.1247694157    -0.0301907497
    2      C       0.6084177021    -0.8814384173     0.9592241678
    3      C      -0.7058703275    -0.9479663074     0.6877230016
    4      C      -0.9620341025     0.0121806728    -0.4937019328
    5      C      -0.5832635571     1.4158531267     0.0461801660
    6      N       0.6603167127     1.5098625044     0.3312483434
    7      H       2.3015806614     0.1451485149    -0.1192448897
    8      H       1.1548541111    -1.3789023180     1.7516600165
    9      H      -1.4749383105    -1.5064084993     1.2081794482
   10      H      -1.9104884951    -0.0808782790    -1.0210528782
   11      H      -1.2807257797     2.2379662972     0.1934312263
   12      C       0.3552925298    -0.2065778260    -1.2257351744
   13      H       0.5830981467    -0.4769559645    -2.2467667382
 ----------------------------------------------------------------
 Nuclear Repulsion Energy =   278.6746634156 hartrees
 There are       25 alpha and       24 beta electrons
 Requested basis set is 6-31+G(d,p)
 There are 53 shells and 163 basis functions

 Total QAlloc Memory Limit   8000 MB
 Mega-Array Size      1956 MB
 MEM_STATIC part      2000 MB

                       Distance Matrix (Angstroms)
             C (  1)   C (  2)   C (  3)   C (  4)   C (  5)   N (  6)
   C (  2)  1.537167
   C (  3)  2.316703  1.343686
   C (  4)  2.231523  2.318592  1.543783
   C (  5)  2.217425  2.744322  2.452397  1.550882
   N (  6)  1.536241  2.472927  2.834513  2.357035  1.279294
   H (  7)  1.087510  2.254723  3.300130  3.287717  3.156641  2.181544
   H (  8)  2.332380  1.083521  2.186313  3.384963  3.706801  3.256854
   H (  9)  3.383158  2.189278  1.083604  2.337859  3.268783  3.798185
   H ( 10)  3.288010  3.302617  2.263374  1.089185  2.267315  3.311829
   H ( 11)  3.280063  3.726391  3.274897  2.351135  1.088121  2.077685
   C ( 12)  1.511038  2.300773  2.310205  1.522852  2.265157  2.337393
   H ( 13)  2.382913  3.231505  3.239525  2.387451  3.193858  3.255698
             H (  7)   H (  8)   H (  9)   H ( 10)   H ( 11)   C ( 12)
   H (  8)  2.671703
   H (  9)  4.330334  2.688389
   H ( 10)  4.313452  4.332335  2.681663
   H ( 11)  4.160598  4.630536  3.884299  2.692325
   C ( 12)  2.266290  3.298261  3.311079  2.278477  3.265943
   H ( 13)  2.804736  4.138578  4.151137  2.806640  4.098684  1.080512

 
 A cutoff of  1.0D-14 yielded   1410 shell pairs
 There are     13522 function pairs
 
 -------------------------------------------------------
 OpenMP Integral Computing Module                       
 Release: version 1.0, May 2013, Q-Chem Inc. Pittsburgh 
 -------------------------------------------------------
 Integral Job Info:
 Integral job number is                      11
 Integral operator is                         1
 short-range coefficients                     0
 long-range coefficients              100000000
 Omega coefficients                           0
 if combine SR and LR in K                    0
 Integral screening is                        0
 Integral computing path is                   2
 max size of driver memory is            800000
 size of driver memory is                593474
 size of scratch memory is              2361544
 max col of scratch BK array               1296
 max len of scratch array in speh3          155
 max len of scratch index in speh4           18
 max int batch size is                      520
 min int batch size is                       52
 fixed nKL is                                52
 max L of basis functions is                  2
 order of int derivative is                   0
 number of shells is                         53
 number of basis is                         163
 number of cartesian basis is               163
 number of contracted shell pairs          1410
 number of primitive shell pairs           4804
 maxK2 (contraction) of shell pair           36
 max number of K2 of shell pair               1
 max number of CS2 of shell pair            127
 max number of PS2 of shell pair            672
 mem total for path MDJ                  535308
 -------------------------------------------------------
 Smallest overlap matrix eigenvalue = 2.22E-05

 Scale SEOQF with 1.000000e-01/1.000000e-01/1.000000e-01

 Standard Electronic Orientation quadrupole field applied
 Nucleus-field energy     =     0.0000000016 hartrees
 Guess MOs from core Hamiltonian diagonalization
 Mixing HOMO and LUMO in initial guess
 Adding  50% of the LUMO to the HOMO
 An unrestricted hybrid HF-DFT SCF calculation will be
 performed using Pulay DIIS extrapolation
 Exchange:     0.2000 Hartree-Fock + 0.0800 Slater + 0.7200 B88
 Correlation:  0.1900 VWN1RPA + 0.8100 LYP
 Using SG-1 standard quadrature grid
 SCF converges when DIIS error is below 1.0E-08
 using 4 threads for integral computing
 -------------------------------------------------------
 OpenMP Integral computing Module                
 Release: version 1.0, May 2013, Q-Chem Inc. Pittsburgh 
 -------------------------------------------------------
 -------------------------------------------------------
 OpenMP BLAS3 based DFT computing Module                
 Release: version 1.0, May 2013, Q-Chem Inc. Pittsburgh 
 -------------------------------------------------------
 ---------------------------------------
  Cycle       Energy         DIIS Error
 ---------------------------------------
    1    -235.0571484205      1.00E-01
    2    -215.4672001566      7.08E-02
    3    -253.1970357940      7.85E-02
    4    -280.8812486329      3.75E-02
    5    -280.5249631862      3.41E-02
    6    -286.1081478214      1.36E-02
    7    -286.2441645802      1.29E-02
    8    -286.7826961775      5.12E-03
    9    -286.8456397966      2.79E-03
   10    -286.8676466381      8.81E-04
   11    -286.8699681975      2.95E-04
   12    -286.8702541481      6.73E-05
   13    -286.8702716511      2.33E-05
   14    -286.8702738056      6.57E-06
   15    -286.8702741076      1.89E-06
   16    -286.8702741744      9.21E-07
   17    -286.8702741965      3.26E-07
   18    -286.8702742053      1.01E-07
   19    -286.8702742085      5.62E-08
   20    -286.8702742111      2.62E-08
   21    -286.8702742120      8.51E-09 Convergence criterion met
 ---------------------------------------
 <S^2> = 0.7555
 SCF time:  CPU 106.36 s  wall 29.70 s
 SCF   energy in the final basis set = -286.87027421
 Total energy in the final basis set = -286.87027421
 
 --------------------------------------------------------------
 
                    Orbital Energies (a.u.)
 --------------------------------------------------------------
 
 Alpha MOs
 -- Occupied --
-14.337 -10.235 -10.230 -10.220 -10.211 -10.207 -10.204  -0.963
 -0.828  -0.734  -0.716  -0.585  -0.581  -0.540  -0.521  -0.475
 -0.435  -0.420  -0.391  -0.380  -0.359  -0.304  -0.277  -0.268
 -0.194
 -- Virtual --
 -0.040   0.003   0.006   0.021   0.024   0.033   0.048   0.048
  0.067   0.073   0.073   0.085   0.105   0.107   0.108   0.122
  0.124   0.131   0.138   0.149   0.171   0.172   0.186   0.190
  0.194   0.200   0.207   0.214   0.229   0.235   0.241   0.247
  0.253   0.258   0.276   0.280   0.309   0.328   0.334   0.348
  0.366   0.395   0.423   0.452   0.621   0.683   0.693   0.710
  0.714   0.722   0.734   0.738   0.751   0.774   0.786   0.800
  0.814   0.840   0.857   0.869   0.899   0.944   0.952   0.972
  1.009   1.018   1.032   1.069   1.072   1.093   1.121   1.154
  1.216   1.274   1.283   1.345   1.364   1.407   1.439   1.486
  1.552   1.613   1.633   1.680   1.747   1.770   1.812   1.830
  1.847   1.896   1.941   1.970   2.037   2.058   2.088   2.146
  2.155   2.194   2.220   2.228   2.303   2.336   2.372   2.385
  2.402   2.440   2.450   2.482   2.499   2.502   2.521   2.525
  2.576   2.635   2.642   2.658   2.669   2.731   2.778   2.796
  2.835   2.871   2.938   3.055   3.120   3.280   3.324   3.336
  3.490   3.616   3.722   4.139   4.395   4.477   4.565   4.609
  4.762   4.857
 
 Beta MOs
 -- Occupied --
-14.335 -10.235 -10.231 -10.221 -10.206 -10.203 -10.197  -0.958
 -0.822  -0.733  -0.700  -0.583  -0.566  -0.537  -0.519  -0.465
 -0.431  -0.417  -0.389  -0.378  -0.354  -0.298  -0.271  -0.261
 -- Virtual --
 -0.055  -0.034   0.003   0.007   0.022   0.025   0.034   0.048
  0.049   0.071   0.073   0.074   0.087   0.106   0.107   0.109
  0.122   0.130   0.132   0.139   0.150   0.171   0.173   0.187
  0.192   0.198   0.202   0.209   0.220   0.232   0.239   0.242
  0.249   0.257   0.260   0.277   0.283   0.311   0.330   0.336
  0.350   0.373   0.398   0.424   0.454   0.624   0.684   0.712
  0.714   0.722   0.733   0.739   0.749   0.753   0.784   0.791
  0.803   0.820   0.843   0.860   0.877   0.901   0.946   0.953
  0.975   1.010   1.027   1.034   1.071   1.081   1.095   1.124
  1.157   1.218   1.280   1.286   1.348   1.367   1.408   1.441
  1.490   1.561   1.622   1.654   1.687   1.752   1.776   1.816
  1.841   1.853   1.901   1.945   1.971   2.051   2.061   2.091
  2.154   2.163   2.202   2.230   2.241   2.307   2.339   2.380
  2.387   2.409   2.441   2.457   2.484   2.500   2.506   2.522
  2.528   2.579   2.638   2.654   2.668   2.674   2.733   2.781
  2.798   2.839   2.874   2.942   3.057   3.122   3.281   3.326
  3.337   3.491   3.621   3.723   4.142   4.403   4.479   4.577
  4.619   4.766   4.858
 --------------------------------------------------------------
 
          Ground-State Mulliken Net Atomic Charges

     Atom                 Charge (a.u.)    Spin (a.u.)
  --------------------------------------------------------
      1 C                     0.038550      -0.104151
      2 C                    -0.139557       0.009045
      3 C                    -0.123068       0.078078
      4 C                     0.026200      -0.087064
      5 C                    -0.115370      -0.021511
      6 N                    -0.199220       0.068826
      7 H                     0.126773       0.001899
      8 H                     0.137338      -0.000573
      9 H                     0.136850      -0.002045
     10 H                     0.122852       0.001800
     11 H                     0.138385       0.000507
     12 C                    -0.290862       1.104602
     13 H                     0.141129      -0.049412
  --------------------------------------------------------
  Sum of atomic charges =    -0.000000
  Sum of spin   charges =     1.000000

 -----------------------------------------------------------------
                    Cartesian Multipole Moments
 -----------------------------------------------------------------
    Charge (ESU x 10^10)
                -0.0000
    Dipole Moment (Debye)
         X      -1.4442      Y      -1.5866      Z      -0.6182
       Tot       2.2328
    Quadrupole Moments (Debye-Ang)
        XX     -37.8011     XY      -3.8191     YY     -45.9835
        XZ      -0.3312     YZ      -2.2421     ZZ     -40.7082
    Octopole Moments (Debye-Ang^2)
       XXX      -9.0962    XXY      -7.6837    XYY     -13.6779
       YYY     -18.9321    XXZ      -1.1591    XYZ      -1.6393
       YYZ      -0.3643    XZZ      -1.9423    YZZ     -11.0125
       ZZZ      -7.9530
    Hexadecapole Moments (Debye-Ang^3)
      XXXX    -222.0107   XXXY      -5.7739   XXYY     -87.6811
      XYYY     -23.4023   YYYY    -309.8821   XXXZ      -4.5292
      XXYZ       0.5010   XYYZ      -5.8420   YYYZ       7.6334
      XXZZ     -69.2123   XYZZ      -4.5468   YYZZ     -82.4796
      XZZZ      -5.2506   YZZZ      14.3211   ZZZZ    -191.7652
 -----------------------------------------------------------------
Archival summary:
1\1\c8-72\SP\ProcedureUnspecified\6-31+G**\166(2)\hpark21\WedMar221:31:582022WedMar221:31:582022\0\\#,ProcedureUnspecified,6-31+G**,\\0,2\N\C,1,1.27929\H,2,1.08812,1,122.507\C,1,1.53624,2,103.541,3,179.58,0\H,4,1.08751,1,111.349,2,163.133,0\C,4,1.51104,1,100.175,2,34.4882,0\H,6,1.08051,4,133.013,1,124.144,0\C,6,1.52285,4,94.7036,1,-54.3973,0\H,8,1.08919,6,120.548,4,177.166,0\C,4,1.53717,1,107.147,2,-67.257,0\H,10,1.08352,4,124.842,1,-109.09,0\C,10,1.34369,4,106.869,1,67.6045,0\H,12,1.0836,10,128.511,4,-176.261,0\\\@

 Total job time:  31.23s(wall), 107.99s(cpu) 
 Wed Mar  2 21:31:58 2022

        *************************************************************
        *                                                           *
        *  Thank you very much for using Q-Chem.  Have a nice day.  *
        *                                                           *
        *************************************************************


