
Running Job 1 of 1 irc_product.in
qchem irc_product.in_9240.0 ./irc_product.d/ 1
/home/leeping/opt/qchem/5.0.2-openmp/exe/qcprog.exe_s irc_product.in_9240.0 ./irc_product.d/
Check license passed

                  Welcome to Q-Chem
     A Quantum Leap Into The Future Of Chemistry


 Q-Chem 5.0, Q-Chem, Inc., Pleasanton, CA (2017)

 Yihan Shao,  Zhengting Gan,  E. Epifanovsky,  A. T. B. Gilbert,  M. Wormit,  
 J. Kussmann,  A. W. Lange,  A. Behn,  Jia Deng,  Xintian Feng,  D. Ghosh,  
 M. Goldey,  P. R. Horn,  L. D. Jacobson,  I. Kaliman,  T. Kus,  A. Landau,  
 Jie Liu,  E. I. Proynov,  R. M. Richard,  R. P. Steele,  E. J. Sundstrom,  
 H. L. Woodcock III,  P. M. Zimmerman,  D. Zuev,  B. Albrecht,  E. Alguire,  
 S. A. Baeppler,  D. Barton,  Z. Benda,  Y. A. Bernard,  E. J. Berquist,  
 K. B. Bravaya,  H. Burton,  D. Casanova,  Chun-Min Chang,  Yunqing Chen,  
 A. Chien,  K. D. Closser,  M. P. Coons,  S. Dasgupta,  A. L. Dempwolff,  
 M. Diedenhofen,  Hainam Do,  R. G. Edgar,  Po-Tung Fang,  S. Fatehi,  
 Qingguo Feng,  J. Fosso-Tande,  Qinghui Ge,  A. Ghysels,  G. Gidofalvi,  
 J. Gomes,  J. Gonthier,  A. Gunina,  M. W. D. Hanson-Heine,  
 P. H. P. Harbach,  A. W. Hauser,  J. E. Herr,  E. G. Hohenstein,  
 Z. C. Holden,  Kerwin Hui,  T.-C. Jagau,  Hyunjun Ji,  B. Kaduk,  
 K. Khistyaev,  Jaehoon Kim,  P. Klunzinger,  K. Koh,  D. Kosenkov,  
 L. Koulias,  T. Kowalczyk,  C. M. Krauter,  A. Kunitsa,  Ka Un Lao,  
 A. Laurent,  K. V. Lawler,  Joonho Lee,  D. Lefrancois,  S. Lehtola,  
 D. S. Levine,  Yi-Pei Li,  You-Sheng Lin,  Fenglai Liu,  E. Livshits,  
 A. Luenser,  P. Manohar,  E. Mansoor,  S. F. Manzer,  Shan-Ping Mao,  
 Yuezhi Mao,  N. Mardirossian,  A. V. Marenich,  T. Markovich,  
 L. A. Martinez-Martinez,  S. A. Maurer,  N. J. Mayhall,  S. C. McKenzie,  
 J.-M. Mewes,  A. F. Morrison,  J. W. Mullinax,  K. Nanda,  
 T. S. Nguyen-Beck,  R. Olivares-Amaya,  J. A. Parkhill,  T. M. Perrine,  
 F. Plasser,  S. Prager,  A. Prociuk,  E. Ramos,  D. R. Rehn,  F. Rob,  
 M. Schneider,  N. Sergueev,  S. M. Sharada,  S. Sharma,  D. W. Small,  
 T. Stauch,  T. Stein,  Yu-Chuan Su,  A. J. W. Thom,  A. Tkatchenko,  
 T. Tsuchimochi,  L. Vogt,  O. Vydrov,  M. A. Watson,  J. Wenzel,  
 M. de Wergifosse,  T. A. Wesolowski,  A. White,  J. Witte,  A. Yamada,  
 Jun Yang,  K. Yao,  S. Yeganeh,  S. R. Yost,  Zhi-Qiang You,  A. Zech,  
 Igor Ying Zhang,  Xing Zhang,  Yan Zhao,  Ying Zhu,  B. R. Brooks,  
 G. K. L. Chan,  C. J. Cramer,  M. S. Gordon,  W. J. Hehre,  A. Klamt,  
 M. W. Schmidt,  C. D. Sherrill,  D. G. Truhlar,  A. Aspuru-Guzik,  R. Baer,  
 A. T. Bell,  N. A. Besley,  Jeng-Da Chai,  R. A. DiStasio Jr.,  A. Dreuw,  
 B. D. Dunietz,  T. R. Furlani,  Chao-Ping Hsu,  Yousung Jung,  Jing Kong,  
 D. S. Lambrecht,  WanZhen Liang,  C. Ochsenfeld,  V. A. Rassolov,  
 L. V. Slipchenko,  J. E. Subotnik,  T. Van Voorhis,  J. M. Herbert,  
 A. I. Krylov,  P. M. W. Gill,  M. Head-Gordon

 Contributors to earlier versions of Q-Chem not listed above: 
 R. D. Adamson,  B. Austin,  J. Baker,  G. J. O. Beran,  K. Brandhorst,  
 S. T. Brown,  E. F. C. Byrd,  A. K. Chakraborty,  C.-L. Cheng,  
 Siu Hung Chien,  D. M. Chipman,  D. L. Crittenden,  H. Dachsel,  
 R. J. Doerksen,  A. D. Dutoi,  L. Fusti-Molnar,  W. A. Goddard III,  
 A. Golubeva-Zadorozhnaya,  S. R. Gwaltney,  G. Hawkins,  A. Heyden,  
 S. Hirata,  G. Kedziora,  F. J. Keil,  C. Kelley,  Jihan Kim,  R. A. King,  
 R. Z. Khaliullin,  P. P. Korambath,  W. Kurlancheek,  A. M. Lee,  M. S. Lee,  
 S. V. Levchenko,  Ching Yeh Lin,  D. Liotard,  R. C. Lochan,  I. Lotan,  
 P. E. Maslen,  N. Nair,  D. P. O'Neill,  D. Neuhauser,  E. Neuscamman,  
 C. M. Oana,  R. Olson,  B. Peters,  R. Peverati,  P. A. Pieniazek,  
 Y. M. Rhee,  J. Ritchie,  M. A. Rohrdanz,  E. Rosta,  N. J. Russ,  
 H. F. Schaefer III,  N. E. Schultz,  N. Shenvi,  A. C. Simmonett,  A. Sodt,  
 D. Stuck,  K. S. Thanthiriwatte,  V. Vanovschi,  Tao Wang,  A. Warshel,  
 C. F. Williams,  Q. Wu,  X. Xu,  W. Zhang

 Please cite Q-Chem as follows:
 Y. Shao et al., Mol. Phys. 113, 184-215 (2015)
 DOI: 10.1080/00268976.2014.952696

 Q-Chem 5.0.2 for Intel X86 EM64T Linux

 Parts of Q-Chem use Armadillo 5.200.1 (Boston Tea Smuggler).
 http://arma.sourceforge.net/

 Q-Chem begins on Wed Mar  2 21:26:38 2022  

Host: 
0

     Scratch files written to ./irc_product.d//
 Dec517 15110_ 26548  26544 5633   
Processing $rem in /home/leeping/opt/qchem/5.0.2-openmp/config/preferences.
 MEM_STATIC 2000
 MEM_TOTAL  8000
 SYMMETRY   OFF
 SYM_IGNORE TRUE 

Checking the input file for inconsistencies... 	...done.

--------------------------------------------------------------
User input:
--------------------------------------------------------------
$molecule
0 2
C        1.2200208590    0.2021307065   -0.0427257222
C        0.6251242694   -0.8655384578    0.8880243588
C       -0.6898767842   -0.9348101996    0.6091423496
C       -0.9584593657    0.0871177841   -0.5145908733
C       -0.5911206233    1.4621958467    0.0804508068
N        0.6511026457    1.5514332993    0.3671480094
H        2.3037575172    0.2321697063   -0.1300456364
H        1.1778668061   -1.4132523075    1.6436468416
H       -1.4477267316   -1.5467440418    1.0868727038
H       -1.9062384350    0.0051128684   -1.0448870829
H       -1.2946692225    2.2708487463    0.2662445315
C        0.3636754105   -0.1115510051   -1.2633594307
H        0.5465436545   -0.9391129459   -1.9459208559
$end

$rem
method                b3lyp
basis                 6-31+g(d,p)
unrestricted          true
symmetry              off
sym_ignore            true
incdft                false
incfock               0
scf_convergence       8
thresh                14
jobtype               sp
scf_guess             core
scf_guess_mix         5
scf_algorithm         diis
max_scf_cycles        100
$end

--------------------------------------------------------------
 ----------------------------------------------------------------
             Standard Nuclear Orientation (Angstroms)
    I     Atom           X                Y                Z
 ----------------------------------------------------------------
    1      C       1.2200208590     0.2021307065    -0.0427257222
    2      C       0.6251242694    -0.8655384578     0.8880243588
    3      C      -0.6898767842    -0.9348101996     0.6091423496
    4      C      -0.9584593657     0.0871177841    -0.5145908733
    5      C      -0.5911206233     1.4621958467     0.0804508068
    6      N       0.6511026457     1.5514332993     0.3671480094
    7      H       2.3037575172     0.2321697063    -0.1300456364
    8      H       1.1778668061    -1.4132523075     1.6436468416
    9      H      -1.4477267316    -1.5467440418     1.0868727038
   10      H      -1.9062384350     0.0051128684    -1.0448870829
   11      H      -1.2946692225     2.2708487463     0.2662445315
   12      C       0.3636754105    -0.1115510051    -1.2633594307
   13      H       0.5465436545    -0.9391129459    -1.9459208559
 ----------------------------------------------------------------
 Nuclear Repulsion Energy =   278.9856039076 hartrees
 There are       25 alpha and       24 beta electrons
 Requested basis set is 6-31+G(d,p)
 There are 53 shells and 163 basis functions

 Total QAlloc Memory Limit   8000 MB
 Mega-Array Size      1956 MB
 MEM_STATIC part      2000 MB

                       Distance Matrix (Angstroms)
             C (  1)   C (  2)   C (  3)   C (  4)   C (  5)   N (  6)
   C (  2)  1.536267
   C (  3)  2.316306  1.346032
   C (  4)  2.231963  2.320048  1.542482
   C (  5)  2.209790  2.747685  2.456604  1.542677
   N (  6)  1.520619  2.472598  2.835171  2.347844  1.277997
   H (  7)  1.087664  2.249275  3.296982  3.288005  3.152395  2.172309
   H (  8)  2.335614  1.084657  2.188052  3.387180  3.720363  3.270518
   H (  9)  3.383997  2.190957  1.084908  2.339567  3.286393  3.810747
   H ( 10)  3.288866  3.301814  2.258053  1.089139  2.262523  3.305290
   H ( 11)  3.270890  3.729496  3.280183  2.343378  1.087851  2.076961
   C ( 12)  1.523703  2.294625  2.300867  1.532372  2.279066  2.346633
   H ( 13)  2.319086  2.835989  2.838503  2.316655  3.341668  3.400594
             H (  7)   H (  8)   H (  9)   H ( 10)   H ( 11)   C ( 12)
   H (  8)  2.668526
   H (  9)  4.326553  2.687296
   H ( 10)  4.314227  4.330321  2.676358
   H ( 11)  4.154748  4.645780  3.907796  2.688241
   C ( 12)  2.272985  3.287555  3.296141  2.283386  3.281101
   H ( 13)  2.785158  3.675374  3.680240  2.778410  4.311333  1.088205

 
 A cutoff of  1.0D-14 yielded   1410 shell pairs
 There are     13528 function pairs
 
 -------------------------------------------------------
 OpenMP Integral Computing Module                       
 Release: version 1.0, May 2013, Q-Chem Inc. Pittsburgh 
 -------------------------------------------------------
 Integral Job Info:
 Integral job number is                      11
 Integral operator is                         1
 short-range coefficients                     0
 long-range coefficients              100000000
 Omega coefficients                           0
 if combine SR and LR in K                    0
 Integral screening is                        0
 Integral computing path is                   2
 max size of driver memory is            800000
 size of driver memory is                593474
 size of scratch memory is              2361544
 max col of scratch BK array               1296
 max len of scratch array in speh3          155
 max len of scratch index in speh4           18
 max int batch size is                      520
 min int batch size is                       52
 fixed nKL is                                52
 max L of basis functions is                  2
 order of int derivative is                   0
 number of shells is                         53
 number of basis is                         163
 number of cartesian basis is               163
 number of contracted shell pairs          1410
 number of primitive shell pairs           4815
 maxK2 (contraction) of shell pair           36
 max number of K2 of shell pair               1
 max number of CS2 of shell pair            127
 max number of PS2 of shell pair            684
 mem total for path MDJ                  535308
 -------------------------------------------------------
 Smallest overlap matrix eigenvalue = 2.22E-05

 Scale SEOQF with 1.000000e-01/1.000000e-01/1.000000e-01

 Standard Electronic Orientation quadrupole field applied
 Nucleus-field energy     =     0.0000000020 hartrees
 Guess MOs from core Hamiltonian diagonalization
 Mixing HOMO and LUMO in initial guess
 Adding  50% of the LUMO to the HOMO
 An unrestricted hybrid HF-DFT SCF calculation will be
 performed using Pulay DIIS extrapolation
 Exchange:     0.2000 Hartree-Fock + 0.0800 Slater + 0.7200 B88
 Correlation:  0.1900 VWN1RPA + 0.8100 LYP
 Using SG-1 standard quadrature grid
 SCF converges when DIIS error is below 1.0E-08
 using 4 threads for integral computing
 -------------------------------------------------------
 OpenMP Integral computing Module                
 Release: version 1.0, May 2013, Q-Chem Inc. Pittsburgh 
 -------------------------------------------------------
 -------------------------------------------------------
 OpenMP BLAS3 based DFT computing Module                
 Release: version 1.0, May 2013, Q-Chem Inc. Pittsburgh 
 -------------------------------------------------------
 ---------------------------------------
  Cycle       Energy         DIIS Error
 ---------------------------------------
    1    -234.6901586960      1.00E-01
    2    -215.3093663711      7.14E-02
    3    -253.7963434756      7.78E-02
    4    -280.8628893306      3.80E-02
    5    -279.7798813617      3.57E-02
    6    -286.0849957621      1.37E-02
    7    -286.2208376788      1.31E-02
    8    -286.7789274967      5.25E-03
    9    -286.8456719425      2.99E-03
   10    -286.8705126185      9.50E-04
   11    -286.8731137293      3.14E-04
   12    -286.8734594170      4.97E-05
   13    -286.8734717586      1.57E-05
   14    -286.8734732570      6.06E-06
   15    -286.8734737735      2.06E-06
   16    -286.8734740066      4.79E-07
   17    -286.8734740674      2.56E-07
   18    -286.8734740846      1.06E-07
   19    -286.8734740972      4.57E-08
   20    -286.8734741087      1.87E-08
   21    -286.8734741107      5.53E-09 Convergence criterion met
 ---------------------------------------
 <S^2> = 0.7539
 SCF time:  CPU 106.74 s  wall 31.12 s
 SCF   energy in the final basis set = -286.87347411
 Total energy in the final basis set = -286.87347411
 
 --------------------------------------------------------------
 
                    Orbital Energies (a.u.)
 --------------------------------------------------------------
 
 Alpha MOs
 -- Occupied --
-14.337 -10.235 -10.231 -10.221 -10.216 -10.213 -10.209  -0.965
 -0.832  -0.737  -0.715  -0.588  -0.583  -0.539  -0.520  -0.481
 -0.429  -0.421  -0.391  -0.382  -0.358  -0.304  -0.282  -0.271
 -0.206
 -- Virtual --
 -0.041   0.002   0.003   0.020   0.026   0.032   0.048   0.049
  0.065   0.072   0.075   0.093   0.105   0.106   0.108   0.120
  0.121   0.131   0.138   0.149   0.170   0.171   0.185   0.190
  0.194   0.199   0.204   0.219   0.230   0.234   0.239   0.248
  0.257   0.267   0.280   0.285   0.303   0.324   0.336   0.343
  0.354   0.392   0.421   0.454   0.616   0.670   0.682   0.701
  0.707   0.717   0.728   0.737   0.747   0.764   0.778   0.789
  0.806   0.832   0.859   0.891   0.897   0.951   0.958   0.993
  1.011   1.026   1.053   1.071   1.083   1.106   1.120   1.147
  1.211   1.285   1.309   1.334   1.362   1.406   1.423   1.481
  1.498   1.575   1.622   1.685   1.744   1.755   1.807   1.833
  1.890   1.900   1.970   1.986   2.031   2.048   2.093   2.114
  2.121   2.172   2.215   2.267   2.292   2.323   2.354   2.395
  2.402   2.449   2.453   2.479   2.495   2.512   2.515   2.557
  2.590   2.603   2.627   2.634   2.684   2.743   2.777   2.790
  2.817   2.868   2.915   3.043   3.109   3.284   3.330   3.385
  3.450   3.542   3.715   4.140   4.375   4.472   4.555   4.612
  4.763   4.827
 
 Beta MOs
 -- Occupied --
-14.336 -10.235 -10.231 -10.221 -10.211 -10.208 -10.202  -0.961
 -0.826  -0.735  -0.700  -0.587  -0.570  -0.536  -0.518  -0.472
 -0.425  -0.417  -0.389  -0.379  -0.352  -0.298  -0.273  -0.268
 -- Virtual --
 -0.064  -0.036   0.003   0.004   0.021   0.028   0.033   0.048
  0.050   0.068   0.073   0.076   0.093   0.105   0.107   0.109
  0.120   0.127   0.132   0.140   0.152   0.170   0.171   0.185
  0.191   0.197   0.200   0.208   0.223   0.233   0.238   0.241
  0.250   0.260   0.269   0.280   0.290   0.308   0.327   0.339
  0.345   0.362   0.393   0.422   0.456   0.620   0.683   0.688
  0.710   0.714   0.725   0.732   0.740   0.751   0.769   0.791
  0.795   0.808   0.835   0.861   0.898   0.904   0.953   0.966
  0.998   1.013   1.029   1.058   1.077   1.084   1.108   1.124
  1.150   1.213   1.289   1.312   1.339   1.365   1.409   1.428
  1.486   1.508   1.584   1.629   1.692   1.748   1.761   1.815
  1.842   1.895   1.911   1.973   1.989   2.047   2.055   2.097
  2.125   2.130   2.174   2.222   2.273   2.307   2.325   2.359
  2.397   2.406   2.453   2.456   2.480   2.497   2.515   2.520
  2.564   2.603   2.607   2.635   2.638   2.688   2.746   2.779
  2.795   2.821   2.872   2.917   3.045   3.111   3.285   3.330
  3.393   3.453   3.543   3.716   4.142   4.385   4.476   4.570
  4.620   4.766   4.828
 --------------------------------------------------------------
 
          Ground-State Mulliken Net Atomic Charges

     Atom                 Charge (a.u.)    Spin (a.u.)
  --------------------------------------------------------
      1 C                     0.025362      -0.089729
      2 C                    -0.147983       0.044587
      3 C                    -0.126610       0.092970
      4 C                     0.009665      -0.061643
      5 C                    -0.093416      -0.031732
      6 N                    -0.203288       0.027085
      7 H                     0.129239       0.003502
      8 H                     0.138838       0.000740
      9 H                     0.138347       0.000274
     10 H                     0.124672       0.003382
     11 H                     0.137484      -0.000096
     12 C                    -0.270986       1.037553
     13 H                     0.138675      -0.026891
  --------------------------------------------------------
  Sum of atomic charges =    -0.000000
  Sum of spin   charges =     1.000000

 -----------------------------------------------------------------
                    Cartesian Multipole Moments
 -----------------------------------------------------------------
    Charge (ESU x 10^10)
                -0.0000
    Dipole Moment (Debye)
         X      -1.5005      Y      -2.0749      Z      -0.2320
       Tot       2.5711
    Quadrupole Moments (Debye-Ang)
        XX     -37.7694     XY      -4.0693     YY     -45.0459
        XZ      -0.0659     YZ      -1.5147     ZZ     -42.6223
    Octopole Moments (Debye-Ang^2)
       XXX      -9.5269    XXY      -9.2162    XYY     -13.6987
       YYY     -26.0700    XXZ      -0.2673    XYZ      -1.5842
       YYZ      -0.7845    XZZ      -3.4835    YZZ     -14.0103
       ZZZ      -0.7139
    Hexadecapole Moments (Debye-Ang^3)
      XXXX    -221.5730   XXXY      -5.2179   XXYY     -88.2779
      XYYY     -24.1372   YYYY    -317.9869   XXXZ      -4.9333
      XXYZ      -0.5318   XYYZ      -7.3981   YYYZ       4.7215
      XXZZ     -69.0064   XYZZ      -5.5356   YYZZ     -80.9297
      XZZZ      -2.7452   YZZZ      13.2343   ZZZZ    -199.0969
 -----------------------------------------------------------------
Archival summary:
1\1\c8-72\SP\ProcedureUnspecified\6-31+G**\166(2)\hpark21\WedMar221:27:122022WedMar221:27:122022\0\\#,ProcedureUnspecified,6-31+G**,\\0,2\N\C,1,1.278\H,2,1.08785,1,122.575\C,1,1.52062,2,103.96,3,179.216,0\H,4,1.08766,1,111.711,2,163.208,0\C,4,1.5237,1,100.856,2,34.4649,0\H,6,1.0882,4,124.374,1,170.907,0\C,6,1.53237,4,93.8288,1,-53.554,0\H,8,1.08914,6,120.208,4,176.915,0\C,4,1.53627,1,107.969,2,-66.8155,0\H,10,1.08466,4,125.146,1,-110.577,0\C,10,1.34603,4,106.771,1,67.1946,0\H,12,1.08491,10,128.333,4,-177.447,0\\\@

 Total job time:  33.35s(wall), 108.61s(cpu) 
 Wed Mar  2 21:27:12 2022

        *************************************************************
        *                                                           *
        *  Thank you very much for using Q-Chem.  Have a nice day.  *
        *                                                           *
        *************************************************************


