
Running Job 1 of 1 qcirc.in
qchem qcirc.in_62989.0 ./qcirc.d/ 1
/home/leeping/opt/qchem/5.0.2-openmp/exe/qcprog.exe_s qcirc.in_62989.0 ./qcirc.d/
Check license passed

                  Welcome to Q-Chem
     A Quantum Leap Into The Future Of Chemistry


 Q-Chem 5.0, Q-Chem, Inc., Pleasanton, CA (2017)

 Yihan Shao,  Zhengting Gan,  E. Epifanovsky,  A. T. B. Gilbert,  M. Wormit,  
 J. Kussmann,  A. W. Lange,  A. Behn,  Jia Deng,  Xintian Feng,  D. Ghosh,  
 M. Goldey,  P. R. Horn,  L. D. Jacobson,  I. Kaliman,  T. Kus,  A. Landau,  
 Jie Liu,  E. I. Proynov,  R. M. Richard,  R. P. Steele,  E. J. Sundstrom,  
 H. L. Woodcock III,  P. M. Zimmerman,  D. Zuev,  B. Albrecht,  E. Alguire,  
 S. A. Baeppler,  D. Barton,  Z. Benda,  Y. A. Bernard,  E. J. Berquist,  
 K. B. Bravaya,  H. Burton,  D. Casanova,  Chun-Min Chang,  Yunqing Chen,  
 A. Chien,  K. D. Closser,  M. P. Coons,  S. Dasgupta,  A. L. Dempwolff,  
 M. Diedenhofen,  Hainam Do,  R. G. Edgar,  Po-Tung Fang,  S. Fatehi,  
 Qingguo Feng,  J. Fosso-Tande,  Qinghui Ge,  A. Ghysels,  G. Gidofalvi,  
 J. Gomes,  J. Gonthier,  A. Gunina,  M. W. D. Hanson-Heine,  
 P. H. P. Harbach,  A. W. Hauser,  J. E. Herr,  E. G. Hohenstein,  
 Z. C. Holden,  Kerwin Hui,  T.-C. Jagau,  Hyunjun Ji,  B. Kaduk,  
 K. Khistyaev,  Jaehoon Kim,  P. Klunzinger,  K. Koh,  D. Kosenkov,  
 L. Koulias,  T. Kowalczyk,  C. M. Krauter,  A. Kunitsa,  Ka Un Lao,  
 A. Laurent,  K. V. Lawler,  Joonho Lee,  D. Lefrancois,  S. Lehtola,  
 D. S. Levine,  Yi-Pei Li,  You-Sheng Lin,  Fenglai Liu,  E. Livshits,  
 A. Luenser,  P. Manohar,  E. Mansoor,  S. F. Manzer,  Shan-Ping Mao,  
 Yuezhi Mao,  N. Mardirossian,  A. V. Marenich,  T. Markovich,  
 L. A. Martinez-Martinez,  S. A. Maurer,  N. J. Mayhall,  S. C. McKenzie,  
 J.-M. Mewes,  A. F. Morrison,  J. W. Mullinax,  K. Nanda,  
 T. S. Nguyen-Beck,  R. Olivares-Amaya,  J. A. Parkhill,  T. M. Perrine,  
 F. Plasser,  S. Prager,  A. Prociuk,  E. Ramos,  D. R. Rehn,  F. Rob,  
 M. Schneider,  N. Sergueev,  S. M. Sharada,  S. Sharma,  D. W. Small,  
 T. Stauch,  T. Stein,  Yu-Chuan Su,  A. J. W. Thom,  A. Tkatchenko,  
 T. Tsuchimochi,  L. Vogt,  O. Vydrov,  M. A. Watson,  J. Wenzel,  
 M. de Wergifosse,  T. A. Wesolowski,  A. White,  J. Witte,  A. Yamada,  
 Jun Yang,  K. Yao,  S. Yeganeh,  S. R. Yost,  Zhi-Qiang You,  A. Zech,  
 Igor Ying Zhang,  Xing Zhang,  Yan Zhao,  Ying Zhu,  B. R. Brooks,  
 G. K. L. Chan,  C. J. Cramer,  M. S. Gordon,  W. J. Hehre,  A. Klamt,  
 M. W. Schmidt,  C. D. Sherrill,  D. G. Truhlar,  A. Aspuru-Guzik,  R. Baer,  
 A. T. Bell,  N. A. Besley,  Jeng-Da Chai,  R. A. DiStasio Jr.,  A. Dreuw,  
 B. D. Dunietz,  T. R. Furlani,  Chao-Ping Hsu,  Yousung Jung,  Jing Kong,  
 D. S. Lambrecht,  WanZhen Liang,  C. Ochsenfeld,  V. A. Rassolov,  
 L. V. Slipchenko,  J. E. Subotnik,  T. Van Voorhis,  J. M. Herbert,  
 A. I. Krylov,  P. M. W. Gill,  M. Head-Gordon

 Contributors to earlier versions of Q-Chem not listed above: 
 R. D. Adamson,  B. Austin,  J. Baker,  G. J. O. Beran,  K. Brandhorst,  
 S. T. Brown,  E. F. C. Byrd,  A. K. Chakraborty,  C.-L. Cheng,  
 Siu Hung Chien,  D. M. Chipman,  D. L. Crittenden,  H. Dachsel,  
 R. J. Doerksen,  A. D. Dutoi,  L. Fusti-Molnar,  W. A. Goddard III,  
 A. Golubeva-Zadorozhnaya,  S. R. Gwaltney,  G. Hawkins,  A. Heyden,  
 S. Hirata,  G. Kedziora,  F. J. Keil,  C. Kelley,  Jihan Kim,  R. A. King,  
 R. Z. Khaliullin,  P. P. Korambath,  W. Kurlancheek,  A. M. Lee,  M. S. Lee,  
 S. V. Levchenko,  Ching Yeh Lin,  D. Liotard,  R. C. Lochan,  I. Lotan,  
 P. E. Maslen,  N. Nair,  D. P. O'Neill,  D. Neuhauser,  E. Neuscamman,  
 C. M. Oana,  R. Olson,  B. Peters,  R. Peverati,  P. A. Pieniazek,  
 Y. M. Rhee,  J. Ritchie,  M. A. Rohrdanz,  E. Rosta,  N. J. Russ,  
 H. F. Schaefer III,  N. E. Schultz,  N. Shenvi,  A. C. Simmonett,  A. Sodt,  
 D. Stuck,  K. S. Thanthiriwatte,  V. Vanovschi,  Tao Wang,  A. Warshel,  
 C. F. Williams,  Q. Wu,  X. Xu,  W. Zhang

 Please cite Q-Chem as follows:
 Y. Shao et al., Mol. Phys. 113, 184-215 (2015)
 DOI: 10.1080/00268976.2014.952696

 Q-Chem 5.0.2 for Intel X86 EM64T Linux

 Parts of Q-Chem use Armadillo 5.200.1 (Boston Tea Smuggler).
 http://arma.sourceforge.net/

 Q-Chem begins on Wed Mar  2 18:04:23 2022  

Host: 
0

     Scratch files written to ./qcirc.d//
 Dec517 15110_ 26548  26544 5633   
Processing $rem in /home/leeping/opt/qchem/5.0.2-openmp/config/preferences.
 MEM_STATIC 2000
 MEM_TOTAL  8000
 SYMMETRY   OFF
 SYM_IGNORE TRUE 

Checking the input file for inconsistencies... 	...done.

--------------------------------------------------------------
User input:
--------------------------------------------------------------
$molecule
0 2
C        1.2179149434    0.1247694157   -0.0301907497
C        0.6084177021   -0.8814384173    0.9592241678
C       -0.7058703275   -0.9479663074    0.6877230016
C       -0.9620341025    0.0121806728   -0.4937019328
C       -0.5832635571    1.4158531267    0.0461801660
N        0.6603167127    1.5098625044    0.3312483434
H        2.3015806614    0.1451485149   -0.1192448897
H        1.1548541111   -1.3789023180    1.7516600165
H       -1.4749383105   -1.5064084993    1.2081794482
H       -1.9104884951   -0.0808782790   -1.0210528782
H       -1.2807257797    2.2379662972    0.1934312263
C        0.3552925298   -0.2065778260   -1.2257351744
H        0.5830981467   -0.4769559645   -2.2467667382
$end

$rem
method                b3lyp
basis                 6-31+g(d,p)
unrestricted          true
symmetry              off
sym_ignore            true
incdft                false
incfock               0
scf_convergence       8
thresh                14
jobtype               rpath
scf_guess             core
scf_guess_mix         5
scf_algorithm         diis
max_scf_cycles        100
rpath_direction       1
rpath_tol_displacement 1000
rpath_max_cycles      50
geom_opt_max_cycles   300
geom_opt_hessian      read
$end

--------------------------------------------------------------
 ----------------------------------------------------------------
             Standard Nuclear Orientation (Angstroms)
    I     Atom           X                Y                Z
 ----------------------------------------------------------------
    1      C       1.2179149434     0.1247694157    -0.0301907497
    2      C       0.6084177021    -0.8814384173     0.9592241678
    3      C      -0.7058703275    -0.9479663074     0.6877230016
    4      C      -0.9620341025     0.0121806728    -0.4937019328
    5      C      -0.5832635571     1.4158531267     0.0461801660
    6      N       0.6603167127     1.5098625044     0.3312483434
    7      H       2.3015806614     0.1451485149    -0.1192448897
    8      H       1.1548541111    -1.3789023180     1.7516600165
    9      H      -1.4749383105    -1.5064084993     1.2081794482
   10      H      -1.9104884951    -0.0808782790    -1.0210528782
   11      H      -1.2807257797     2.2379662972     0.1934312263
   12      C       0.3552925298    -0.2065778260    -1.2257351744
   13      H       0.5830981467    -0.4769559645    -2.2467667382
 ----------------------------------------------------------------
 Nuclear Repulsion Energy =   278.6746634156 hartrees
 There are       25 alpha and       24 beta electrons
 Requested basis set is 6-31+G(d,p)
 There are 53 shells and 163 basis functions

 Total QAlloc Memory Limit   8000 MB
 Mega-Array Size      1956 MB
 MEM_STATIC part      2000 MB
 Starting direction for rxn path = 1

                       Distance Matrix (Angstroms)
             C (  1)   C (  2)   C (  3)   C (  4)   C (  5)   N (  6)
   C (  2)  1.537167
   C (  3)  2.316703  1.343686
   C (  4)  2.231523  2.318592  1.543783
   C (  5)  2.217425  2.744322  2.452397  1.550882
   N (  6)  1.536241  2.472927  2.834513  2.357035  1.279294
   H (  7)  1.087510  2.254723  3.300130  3.287717  3.156641  2.181544
   H (  8)  2.332380  1.083521  2.186313  3.384963  3.706801  3.256854
   H (  9)  3.383158  2.189278  1.083604  2.337859  3.268783  3.798185
   H ( 10)  3.288010  3.302617  2.263374  1.089185  2.267315  3.311829
   H ( 11)  3.280063  3.726391  3.274897  2.351135  1.088121  2.077685
   C ( 12)  1.511038  2.300773  2.310205  1.522852  2.265157  2.337393
   H ( 13)  2.382913  3.231505  3.239525  2.387451  3.193858  3.255698
             H (  7)   H (  8)   H (  9)   H ( 10)   H ( 11)   C ( 12)
   H (  8)  2.671703
   H (  9)  4.330334  2.688389
   H ( 10)  4.313452  4.332335  2.681663
   H ( 11)  4.160598  4.630536  3.884299  2.692325
   C ( 12)  2.266290  3.298261  3.311079  2.278477  3.265943
   H ( 13)  2.804736  4.138578  4.151137  2.806640  4.098684  1.080512

 
 A cutoff of  1.0D-14 yielded   1410 shell pairs
 There are     13522 function pairs
 
 -------------------------------------------------------
 OpenMP Integral Computing Module                       
 Release: version 1.0, May 2013, Q-Chem Inc. Pittsburgh 
 -------------------------------------------------------
 Integral Job Info:
 Integral job number is                      11
 Integral operator is                         1
 short-range coefficients                     0
 long-range coefficients              100000000
 Omega coefficients                           0
 if combine SR and LR in K                    0
 Integral screening is                        0
 Integral computing path is                   2
 max size of driver memory is            800000
 size of driver memory is                593474
 size of scratch memory is              2361544
 max col of scratch BK array               1296
 max len of scratch array in speh3          155
 max len of scratch index in speh4           18
 max int batch size is                      520
 min int batch size is                       52
 fixed nKL is                                52
 max L of basis functions is                  2
 order of int derivative is                   0
 number of shells is                         53
 number of basis is                         163
 number of cartesian basis is               163
 number of contracted shell pairs          1410
 number of primitive shell pairs           4804
 maxK2 (contraction) of shell pair           36
 max number of K2 of shell pair               1
 max number of CS2 of shell pair            127
 max number of PS2 of shell pair            672
 mem total for path MDJ                  535308
 -------------------------------------------------------
 Smallest overlap matrix eigenvalue = 2.22E-05

 Scale SEOQF with 1.000000e-01/1.000000e-01/1.000000e-01

 Standard Electronic Orientation quadrupole field applied
 Nucleus-field energy     =     0.0000000016 hartrees
 Guess MOs from core Hamiltonian diagonalization
 Mixing HOMO and LUMO in initial guess
 Adding  50% of the LUMO to the HOMO
 An unrestricted hybrid HF-DFT SCF calculation will be
 performed using Pulay DIIS extrapolation
 Exchange:     0.2000 Hartree-Fock + 0.0800 Slater + 0.7200 B88
 Correlation:  0.1900 VWN1RPA + 0.8100 LYP
 Using SG-1 standard quadrature grid
 SCF converges when DIIS error is below 1.0E-08
 using 4 threads for integral computing
 -------------------------------------------------------
 OpenMP Integral computing Module                
 Release: version 1.0, May 2013, Q-Chem Inc. Pittsburgh 
 -------------------------------------------------------
 -------------------------------------------------------
 OpenMP BLAS3 based DFT computing Module                
 Release: version 1.0, May 2013, Q-Chem Inc. Pittsburgh 
 -------------------------------------------------------
 ---------------------------------------
  Cycle       Energy         DIIS Error
 ---------------------------------------
    1    -235.0571484205      1.00E-01
    2    -215.4672001490      7.08E-02
    3    -253.1970358003      7.85E-02
    4    -280.8812486343      3.75E-02
    5    -280.5249631872      3.41E-02
    6    -286.1081478226      1.36E-02
    7    -286.2441645805      1.29E-02
    8    -286.7826961777      5.12E-03
    9    -286.8456397967      2.79E-03
   10    -286.8676466381      8.81E-04
   11    -286.8699681975      2.95E-04
   12    -286.8702541481      6.73E-05
   13    -286.8702716511      2.33E-05
   14    -286.8702738056      6.57E-06
   15    -286.8702741076      1.89E-06
   16    -286.8702741744      9.21E-07
   17    -286.8702741965      3.26E-07
   18    -286.8702742053      1.01E-07
   19    -286.8702742085      5.62E-08
   20    -286.8702742111      2.62E-08
   21    -286.8702742120      8.51E-09 Convergence criterion met
 ---------------------------------------
 <S^2> = 0.7555
 SCF time:  CPU 107.50 s  wall 35.49 s
 SCF   energy in the final basis set = -286.87027421
 Total energy in the final basis set = -286.87027421
 
 --------------------------------------------------------------
 
                    Orbital Energies (a.u.)
 --------------------------------------------------------------
 
 Alpha MOs
 -- Occupied --
-14.337 -10.235 -10.230 -10.220 -10.211 -10.207 -10.204  -0.963
 -0.828  -0.734  -0.716  -0.585  -0.581  -0.540  -0.521  -0.475
 -0.435  -0.420  -0.391  -0.380  -0.359  -0.304  -0.277  -0.268
 -0.194
 -- Virtual --
 -0.040   0.003   0.006   0.021   0.024   0.033   0.048   0.048
  0.067   0.073   0.073   0.085   0.105   0.107   0.108   0.122
  0.124   0.131   0.138   0.149   0.171   0.172   0.186   0.190
  0.194   0.200   0.207   0.214   0.229   0.235   0.241   0.247
  0.253   0.258   0.276   0.280   0.309   0.328   0.334   0.348
  0.366   0.395   0.423   0.452   0.621   0.683   0.693   0.710
  0.714   0.722   0.734   0.738   0.751   0.774   0.786   0.800
  0.814   0.840   0.857   0.869   0.899   0.944   0.952   0.972
  1.009   1.018   1.032   1.069   1.072   1.093   1.121   1.154
  1.216   1.274   1.283   1.345   1.364   1.407   1.439   1.486
  1.552   1.613   1.633   1.680   1.747   1.770   1.812   1.830
  1.847   1.896   1.941   1.970   2.037   2.058   2.088   2.146
  2.155   2.194   2.220   2.228   2.303   2.336   2.372   2.385
  2.402   2.440   2.450   2.482   2.499   2.502   2.521   2.525
  2.576   2.635   2.642   2.658   2.669   2.731   2.778   2.796
  2.835   2.871   2.938   3.055   3.120   3.280   3.324   3.336
  3.490   3.616   3.722   4.139   4.395   4.477   4.565   4.609
  4.762   4.857
 
 Beta MOs
 -- Occupied --
-14.335 -10.235 -10.231 -10.221 -10.206 -10.203 -10.197  -0.958
 -0.822  -0.733  -0.700  -0.583  -0.566  -0.537  -0.519  -0.465
 -0.431  -0.417  -0.389  -0.378  -0.354  -0.298  -0.271  -0.261
 -- Virtual --
 -0.055  -0.034   0.003   0.007   0.022   0.025   0.034   0.048
  0.049   0.071   0.073   0.074   0.087   0.106   0.107   0.109
  0.122   0.130   0.132   0.139   0.150   0.171   0.173   0.187
  0.192   0.198   0.202   0.209   0.220   0.232   0.239   0.242
  0.249   0.257   0.260   0.277   0.283   0.311   0.330   0.336
  0.350   0.373   0.398   0.424   0.454   0.624   0.684   0.712
  0.714   0.722   0.733   0.739   0.749   0.753   0.784   0.791
  0.803   0.820   0.843   0.860   0.877   0.901   0.946   0.953
  0.975   1.010   1.027   1.034   1.071   1.081   1.095   1.124
  1.157   1.218   1.280   1.286   1.348   1.367   1.408   1.441
  1.490   1.561   1.622   1.654   1.687   1.752   1.776   1.816
  1.841   1.853   1.901   1.945   1.971   2.051   2.061   2.091
  2.154   2.163   2.202   2.230   2.241   2.307   2.339   2.380
  2.387   2.409   2.441   2.457   2.484   2.500   2.506   2.522
  2.528   2.579   2.638   2.654   2.668   2.674   2.733   2.781
  2.798   2.839   2.874   2.942   3.057   3.122   3.281   3.326
  3.337   3.491   3.621   3.723   4.142   4.403   4.479   4.577
  4.619   4.766   4.858
 --------------------------------------------------------------
 
          Ground-State Mulliken Net Atomic Charges

     Atom                 Charge (a.u.)    Spin (a.u.)
  --------------------------------------------------------
      1 C                     0.038550      -0.104151
      2 C                    -0.139557       0.009045
      3 C                    -0.123068       0.078078
      4 C                     0.026200      -0.087064
      5 C                    -0.115370      -0.021511
      6 N                    -0.199220       0.068826
      7 H                     0.126773       0.001899
      8 H                     0.137338      -0.000573
      9 H                     0.136850      -0.002045
     10 H                     0.122852       0.001800
     11 H                     0.138385       0.000507
     12 C                    -0.290862       1.104602
     13 H                     0.141129      -0.049412
  --------------------------------------------------------
  Sum of atomic charges =    -0.000000
  Sum of spin   charges =     1.000000

 -----------------------------------------------------------------
                    Cartesian Multipole Moments
 -----------------------------------------------------------------
    Charge (ESU x 10^10)
                -0.0000
    Dipole Moment (Debye)
         X      -1.4442      Y      -1.5866      Z      -0.6182
       Tot       2.2328
    Quadrupole Moments (Debye-Ang)
        XX     -37.8011     XY      -3.8191     YY     -45.9835
        XZ      -0.3312     YZ      -2.2421     ZZ     -40.7082
    Octopole Moments (Debye-Ang^2)
       XXX      -9.0962    XXY      -7.6837    XYY     -13.6779
       YYY     -18.9321    XXZ      -1.1591    XYZ      -1.6393
       YYZ      -0.3643    XZZ      -1.9423    YZZ     -11.0125
       ZZZ      -7.9530
    Hexadecapole Moments (Debye-Ang^3)
      XXXX    -222.0107   XXXY      -5.7739   XXYY     -87.6811
      XYYY     -23.4023   YYYY    -309.8821   XXXZ      -4.5292
      XXYZ       0.5010   XYYZ      -5.8420   YYYZ       7.6334
      XXZZ     -69.2123   XYZZ      -4.5468   YYZZ     -82.4796
      XZZZ      -5.2506   YZZZ      14.3211   ZZZZ    -191.7652
 -----------------------------------------------------------------
 Calculating analytic gradient of the SCF energy
 Gradient of SCF Energy
            1           2           3           4           5           6
    1  -0.0000002   0.0000025   0.0000023  -0.0000008  -0.0000017  -0.0000013
    2   0.0000013   0.0000088   0.0000048  -0.0000055  -0.0000006   0.0000038
    3  -0.0000029   0.0000062   0.0000091   0.0000014  -0.0000110  -0.0000134
            7           8           9          10          11          12
    1  -0.0000004   0.0000045   0.0000038  -0.0000015  -0.0000026  -0.0000017
    2   0.0000020   0.0000160   0.0000081  -0.0000110  -0.0000001  -0.0000097
    3  -0.0000048   0.0000096   0.0000148   0.0000036  -0.0000166   0.0000012
           13
    1  -0.0000029
    2  -0.0000179
    3   0.0000030
 Max gradient component =       1.789E-05
 RMS gradient           =       7.416E-06
 Gradient time:  CPU 17.38 s  wall 4.61 s
rPathMan2.  file_steps = 951
 ------------------------------------------------------------------------
 Reaction path following.  The coordinates are cartesian              
 Step   1 E=    -286.870274 |G|=  0.000046 S_lin= 0.0000 S_tot= 0.0000
 ------------------------------------------------------------------------
 IRC -- neg. force constant =  -1.239781001076656E-002
 IRC -- max trans/rot const =   8.996674743260477E-005
 In first_irc_step: ISign =            1
 ----------------------------------------------------------------
             Standard Nuclear Orientation (Angstroms)
    I     Atom           X                Y                Z
 ----------------------------------------------------------------
    1      C       1.2178752718     0.1165573557    -0.0296438216
    2      C       0.6064499846    -0.8799866463     0.9684656942
    3      C      -0.7079554153    -0.9458766491     0.6977627546
    4      C      -0.9621428071     0.0047544221    -0.4916308376
    5      C      -0.5810654021     1.4120293975     0.0367908277
    6      N       0.6631103053     1.5065013424     0.3194365971
    7      H       2.3014859715     0.1360405762    -0.1191814560
    8      H       1.1539634325    -1.3769770395     1.7601284342
    9      H      -1.4776309468    -1.5039747789     1.2171398507
   10      H      -1.9106978678    -0.0893938409    -1.0186239062
   11      H      -1.2776269567     2.2352991859     0.1835590460
   12      C       0.3548034603    -0.2352478851    -1.2188664313
   13      H       0.5835852052    -0.4130725193    -2.2643827443
 ----------------------------------------------------------------
 Nuclear Repulsion Energy =   278.6444991373 hartrees
 There are       25 alpha and       24 beta electrons

                       Distance Matrix (Angstroms)
             C (  1)   C (  2)   C (  3)   C (  4)   C (  5)   N (  6)
   C (  2)  1.537258
   C (  3)  2.316616  1.343608
   C (  4)  2.231235  2.318433  1.543686
   C (  5)  2.217848  2.744367  2.452082  1.550765
   N (  6)  1.536739  2.473818  2.834980  2.356803  1.279370
   H (  7)  1.087478  2.255756  3.300709  3.287435  3.156197  2.180556
   H (  8)  2.331955  1.083282  2.186598  3.384894  3.709282  3.260518
   H (  9)  3.383245  2.189656  1.083340  2.337068  3.271106  3.801527
   H ( 10)  3.287623  3.302968  2.264097  1.089193  2.266295  3.310857
   H ( 11)  3.280557  3.724356  3.272432  2.351753  1.088353  2.077515
   C ( 12)  1.510930  2.294218  2.303892  1.523424  2.272894  2.344167
   H ( 13)  2.382622  3.266472  3.275097  2.388829  3.159558  3.219815
             H (  7)   H (  8)   H (  9)   H ( 10)   H ( 11)   C ( 12)
   H (  8)  2.671673
   H (  9)  4.330950  2.690029
   H ( 10)  4.313040  4.332607  2.680900
   H ( 11)  4.160359  4.631063  3.884644  2.692623
   C ( 12)  2.266437  3.288862  3.301759  2.279006  3.276466
   H ( 13)  2.802605  4.177455  4.190427  2.806801  4.058374  1.084927

 
 Applying Cartesian multipole field
    Component          Value
    ---------          -----
     (2,0,0)        1.00000E-11
     (0,2,0)        2.00000E-11
     (0,0,2)       -3.00000E-11
 Nucleus-field energy     =     0.0000000016 hartrees
 Requested basis set is 6-31+G(d,p)
 There are 53 shells and 163 basis functions
 A cutoff of  1.0D-14 yielded   1410 shell pairs
 There are     13522 function pairs
 Smallest overlap matrix eigenvalue = 2.22E-05
 Guess MOs from core Hamiltonian diagonalization
 Mixing HOMO and LUMO in initial guess
 Adding  50% of the LUMO to the HOMO
 An unrestricted hybrid HF-DFT SCF calculation will be
 performed using Pulay DIIS extrapolation
 Exchange:     0.2000 Hartree-Fock + 0.0800 Slater + 0.7200 B88
 Correlation:  0.1900 VWN1RPA + 0.8100 LYP
 Using SG-1 standard quadrature grid
 SCF converges when DIIS error is below 1.0E-08
 using 4 threads for integral computing
 -------------------------------------------------------
 OpenMP Integral computing Module                
 Release: version 1.0, May 2013, Q-Chem Inc. Pittsburgh 
 -------------------------------------------------------
 -------------------------------------------------------
 OpenMP BLAS3 based DFT computing Module                
 Release: version 1.0, May 2013, Q-Chem Inc. Pittsburgh 
 -------------------------------------------------------
 ---------------------------------------
  Cycle       Energy         DIIS Error
 ---------------------------------------
    1    -235.1015410059      1.00E-01
    2    -215.6367413207      7.07E-02
    3    -253.4139156729      7.84E-02
    4    -280.8437085303      3.77E-02
    5    -280.4512266138      3.43E-02
    6    -286.1102757067      1.35E-02
    7    -286.2383541031      1.30E-02
    8    -286.7808046887      5.16E-03
    9    -286.8453418918      2.81E-03
   10    -286.8675776258      9.13E-04
   11    -286.8700640462      3.06E-04
   12    -286.8703763918      6.55E-05
   13    -286.8703933247      2.34E-05
   14    -286.8703955418      6.55E-06
   15    -286.8703958911      1.96E-06
   16    -286.8703959834      9.89E-07
   17    -286.8703960188      3.50E-07
   18    -286.8703960338      1.29E-07
   19    -286.8703960398      7.48E-08
   20    -286.8703960447      2.80E-08
   21    -286.8703960456      7.95E-09 Convergence criterion met
 ---------------------------------------
 <S^2> = 0.7554
 SCF time:  CPU 107.29 s  wall 31.03 s
 SCF   energy in the final basis set = -286.87039605
 Total energy in the final basis set = -286.87039605
 
 --------------------------------------------------------------
 
                    Orbital Energies (a.u.)
 --------------------------------------------------------------
 
 Alpha MOs
 -- Occupied --
-14.337 -10.236 -10.230 -10.220 -10.212 -10.207 -10.204  -0.963
 -0.829  -0.734  -0.715  -0.585  -0.580  -0.540  -0.521  -0.475
 -0.436  -0.419  -0.391  -0.381  -0.358  -0.304  -0.277  -0.268
 -0.194
 -- Virtual --
 -0.040   0.003   0.006   0.021   0.024   0.033   0.048   0.048
  0.067   0.072   0.073   0.086   0.105   0.107   0.108   0.122
  0.124   0.131   0.138   0.149   0.171   0.172   0.186   0.190
  0.194   0.200   0.207   0.213   0.229   0.235   0.241   0.246
  0.254   0.259   0.276   0.279   0.308   0.329   0.334   0.347
  0.364   0.396   0.422   0.453   0.621   0.683   0.692   0.709
  0.714   0.723   0.735   0.737   0.750   0.772   0.786   0.801
  0.806   0.839   0.856   0.873   0.900   0.943   0.953   0.972
  1.009   1.019   1.032   1.070   1.072   1.095   1.124   1.153
  1.216   1.275   1.284   1.346   1.363   1.405   1.442   1.489
  1.551   1.611   1.628   1.682   1.741   1.769   1.802   1.842
  1.856   1.894   1.938   1.969   2.036   2.060   2.087   2.143
  2.153   2.205   2.217   2.220   2.302   2.336   2.372   2.386
  2.405   2.438   2.444   2.480   2.496   2.508   2.522   2.523
  2.579   2.632   2.639   2.653   2.671   2.728   2.781   2.796
  2.839   2.865   2.941   3.052   3.119   3.277   3.323   3.336
  3.487   3.610   3.724   4.139   4.394   4.479   4.567   4.608
  4.761   4.856
 
 Beta MOs
 -- Occupied --
-14.336 -10.235 -10.231 -10.221 -10.206 -10.203 -10.198  -0.958
 -0.822  -0.733  -0.700  -0.583  -0.565  -0.537  -0.519  -0.464
 -0.432  -0.416  -0.389  -0.378  -0.353  -0.298  -0.271  -0.261
 -- Virtual --
 -0.055  -0.034   0.003   0.007   0.022   0.025   0.035   0.048
  0.049   0.071   0.073   0.074   0.087   0.106   0.107   0.109
  0.123   0.130   0.132   0.139   0.150   0.171   0.174   0.187
  0.192   0.197   0.202   0.209   0.219   0.232   0.239   0.242
  0.248   0.258   0.260   0.277   0.283   0.311   0.330   0.336
  0.350   0.372   0.398   0.424   0.454   0.623   0.684   0.712
  0.715   0.722   0.733   0.739   0.749   0.753   0.780   0.791
  0.807   0.812   0.842   0.859   0.882   0.902   0.945   0.954
  0.975   1.010   1.027   1.034   1.072   1.081   1.097   1.126
  1.155   1.218   1.281   1.287   1.349   1.366   1.406   1.444
  1.493   1.561   1.621   1.647   1.689   1.748   1.775   1.805
  1.849   1.864   1.899   1.943   1.970   2.050   2.064   2.091
  2.153   2.158   2.211   2.226   2.236   2.306   2.339   2.379
  2.387   2.413   2.439   2.450   2.483   2.497   2.512   2.524
  2.526   2.583   2.638   2.647   2.666   2.675   2.730   2.783
  2.798   2.843   2.868   2.944   3.055   3.121   3.279   3.325
  3.337   3.489   3.615   3.724   4.142   4.402   4.481   4.579
  4.619   4.765   4.857
 --------------------------------------------------------------
 
          Ground-State Mulliken Net Atomic Charges

     Atom                 Charge (a.u.)    Spin (a.u.)
  --------------------------------------------------------
      1 C                     0.040341      -0.102303
      2 C                    -0.142102       0.006129
      3 C                    -0.119556       0.073278
      4 C                     0.024978      -0.088474
      5 C                    -0.118506      -0.015371
      6 N                    -0.199854       0.070605
      7 H                     0.126738       0.001749
      8 H                     0.137330      -0.000858
      9 H                     0.136968      -0.002455
     10 H                     0.122825       0.001692
     11 H                     0.138391       0.000586
     12 C                    -0.288712       1.103008
     13 H                     0.141159      -0.047585
  --------------------------------------------------------
  Sum of atomic charges =     0.000000
  Sum of spin   charges =     1.000000

 -----------------------------------------------------------------
                    Cartesian Multipole Moments
 -----------------------------------------------------------------
    Charge (ESU x 10^10)
                 0.0000
    Dipole Moment (Debye)
         X      -1.4465      Y      -1.5023      Z      -0.6209
       Tot       2.1760
    Quadrupole Moments (Debye-Ang)
        XX     -37.8136     XY      -3.7588     YY     -46.0719
        XZ      -0.3176     YZ      -2.4396     ZZ     -40.5945
    Octopole Moments (Debye-Ang^2)
       XXX      -9.1225    XXY      -7.4959    XYY     -13.7297
       YYY     -18.1176    XXZ      -1.1680    XYZ      -1.7156
       YYZ      -0.1321    XZZ      -1.8576    YZZ     -10.2811
       ZZZ      -8.3038
    Hexadecapole Moments (Debye-Ang^3)
      XXXX    -222.0797   XXXY      -5.7847   XXYY     -87.6445
      XYYY     -23.2836   YYYY    -309.2058   XXXZ      -4.4105
      XXYZ       0.5412   XYYZ      -5.5842   YYYZ       7.8940
      XXZZ     -69.2399   XYZZ      -4.2139   YYZZ     -82.6719
      XZZZ      -5.2742   YZZZ      13.6347   ZZZZ    -191.3354
 -----------------------------------------------------------------
 Calculating analytic gradient of the SCF energy
 Gradient of SCF Energy
            1           2           3           4           5           6
    1   0.0000449   0.0000082   0.0000350   0.0000277  -0.0000396  -0.0000848
    2   0.0001737  -0.0000462  -0.0000725   0.0001245   0.0001391   0.0001775
    3  -0.0002326  -0.0001623  -0.0001413  -0.0002257   0.0002486   0.0003518
            7           8           9          10          11          12
    1   0.0000045   0.0000264   0.0000640  -0.0000026  -0.0000766  -0.0005790
    2   0.0002130  -0.0000239  -0.0000390   0.0001908   0.0000638   0.0009836
    3  -0.0000013  -0.0001855  -0.0001867  -0.0000497   0.0002184   0.0027040
           13
    1   0.0005719
    2  -0.0018844
    3  -0.0023376
 Max gradient component =       2.704E-03
 RMS gradient           =       6.911E-04
 Gradient time:  CPU 17.20 s  wall 4.45 s
rPathMan2.  file_steps = 951
 IRC --- Status = 2.  Assess steepest descent step
 IRC --- Previous SD length =   0.150000
 IRC --- Point 1 E =     -286.870274 |G| =   0.000046 G.D1 =   0.000000
 IRC --- Point 2 E =     -286.870396 |G| =   0.004316 G.D1 =  -0.001414
 IRC --- Angle(G1/G2) =   70.88 Deg.  Curvature =  -0.0094
 IRC --- Corrector step required
 IRC --- equal length displacement: B_eq =   0.173956
 IRC --- chosen bisector length  : B_len =   0.086978
 ----------------------------------------------------------------
             Standard Nuclear Orientation (Angstroms)
    I     Atom           X                Y                Z
 ----------------------------------------------------------------
    1      C       1.2174820510     0.1190660218    -0.0277781721
    2      C       0.6073581981    -0.8802876985     0.9653376099
    3      C      -0.7072344052    -0.9462543944     0.6940426130
    4      C      -0.9623432237     0.0073228207    -0.4905905403
    5      C      -0.5818004546     1.4126624021     0.0391992491
    6      N       0.6624932849     1.5065501731     0.3221072372
    7      H       2.3014923761     0.1386357555    -0.1192012874
    8      H       1.1541659932    -1.3777199517     1.7575996384
    9      H      -1.4768728357    -1.5048331905     1.2143767499
   10      H      -1.9105695950    -0.0868905919    -1.0193817459
   11      H      -1.2784720189     2.2360458162     0.1864873036
   12      C       0.3603723083    -0.2299576052    -1.2471653197
   13      H       0.5780825568    -0.4276866368    -2.2340793287
 ----------------------------------------------------------------
 Nuclear Repulsion Energy =   278.2961008725 hartrees
 There are       25 alpha and       24 beta electrons

                       Distance Matrix (Angstroms)
             C (  1)   C (  2)   C (  3)   C (  4)   C (  5)   N (  6)
   C (  2)  1.535330
   C (  3)  2.315268  1.343915
   C (  4)  2.231215  2.317659  1.541994
   C (  5)  2.217046  2.743984  2.451335  1.549345
   N (  6)  1.534778  2.472606  2.833856  2.355473  1.279499
   H (  7)  1.088035  2.254888  3.300120  3.287521  3.156202  2.179968
   H (  8)  2.330655  1.083567  2.186808  3.384127  3.708465  3.259048
   H (  9)  3.382240  2.189999  1.084021  2.336294  3.270165  3.800192
   H ( 10)  3.287918  3.302809  2.263260  1.089784  2.266027  3.310483
   H ( 11)  3.279832  3.724849  3.272760  2.350655  1.088579  2.077956
   C ( 12)  1.530804  2.319289  2.328337  1.542169  2.289241  2.359948
   H ( 13)  2.361257  3.231404  3.239576  2.366833  3.146428  3.206632
             H (  7)   H (  8)   H (  9)   H ( 10)   H ( 11)   C ( 12)
   H (  8)  2.671717
   H (  9)  4.330758  2.689538
   H ( 10)  4.313079  4.332490  2.681106
   H ( 11)  4.160375  4.630921  3.884597  2.692527
   C ( 12)  2.275107  3.313017  3.325653  2.286817  3.289733
   H ( 13)  2.786319  4.143421  4.156313  2.790165  4.049865  1.029803

 
 Applying Cartesian multipole field
    Component          Value
    ---------          -----
     (2,0,0)        1.00000E-11
     (0,2,0)        2.00000E-11
     (0,0,2)       -3.00000E-11
 Nucleus-field energy     =     0.0000000015 hartrees
 Requested basis set is 6-31+G(d,p)
 There are 53 shells and 163 basis functions
 A cutoff of  1.0D-14 yielded   1410 shell pairs
 There are     13522 function pairs
 Smallest overlap matrix eigenvalue = 2.23E-05
 Guess MOs from core Hamiltonian diagonalization
 Mixing HOMO and LUMO in initial guess
 Adding  50% of the LUMO to the HOMO
 An unrestricted hybrid HF-DFT SCF calculation will be
 performed using Pulay DIIS extrapolation
 Exchange:     0.2000 Hartree-Fock + 0.0800 Slater + 0.7200 B88
 Correlation:  0.1900 VWN1RPA + 0.8100 LYP
 Using SG-1 standard quadrature grid
 SCF converges when DIIS error is below 1.0E-08
 using 4 threads for integral computing
 -------------------------------------------------------
 OpenMP Integral computing Module                
 Release: version 1.0, May 2013, Q-Chem Inc. Pittsburgh 
 -------------------------------------------------------
 -------------------------------------------------------
 OpenMP BLAS3 based DFT computing Module                
 Release: version 1.0, May 2013, Q-Chem Inc. Pittsburgh 
 -------------------------------------------------------
 ---------------------------------------
  Cycle       Energy         DIIS Error
 ---------------------------------------
    1    -234.4141443867      1.01E-01
    2    -216.5834271380      7.09E-02
    3    -255.1958254129      7.66E-02
    4    -280.7354727888      3.90E-02
    5    -277.6782070843      4.21E-02
    6    -285.6071280047      1.64E-02
    7    -286.2471007585      1.16E-02
    8    -286.3463401280      1.00E-02
    9    -286.8045363372      3.89E-03
   10    -286.8582395002      1.40E-03
   11    -286.8658128280      6.57E-04
   12    -286.8674773133      2.38E-04
   13    -286.8678141185      1.41E-04
   14    -286.8679293198      3.72E-05
   15    -286.8679569496      9.37E-06
   16    -286.8679617085      5.48E-06
   17    -286.8679641642      1.87E-06
   18    -286.8679655545      8.77E-07
   19    -286.8679660828      4.02E-07
   20    -286.8679662865      1.29E-07
   21    -286.8679663069      4.19E-08
   22    -286.8679663082      7.99E-09 Convergence criterion met
 ---------------------------------------
 <S^2> = 0.7553
 SCF time:  CPU 111.81 s  wall 32.95 s
 SCF   energy in the final basis set = -286.86796631
 Total energy in the final basis set = -286.86796631
 
 --------------------------------------------------------------
 
                    Orbital Energies (a.u.)
 --------------------------------------------------------------
 
 Alpha MOs
 -- Occupied --
-14.337 -10.236 -10.231 -10.221 -10.210 -10.207 -10.203  -0.961
 -0.827  -0.733  -0.716  -0.587  -0.585  -0.540  -0.520  -0.473
 -0.441  -0.420  -0.390  -0.378  -0.355  -0.305  -0.277  -0.268
 -0.197
 -- Virtual --
 -0.040   0.003   0.006   0.022   0.024   0.033   0.048   0.049
  0.068   0.073   0.073   0.087   0.105   0.107   0.108   0.122
  0.124   0.132   0.138   0.148   0.171   0.173   0.186   0.190
  0.196   0.200   0.207   0.212   0.228   0.233   0.241   0.248
  0.252   0.261   0.276   0.279   0.310   0.329   0.333   0.347
  0.363   0.395   0.422   0.453   0.620   0.681   0.692   0.706
  0.716   0.724   0.732   0.737   0.749   0.772   0.784   0.803
  0.809   0.839   0.853   0.871   0.900   0.944   0.954   0.983
  1.006   1.013   1.036   1.069   1.083   1.094   1.125   1.154
  1.216   1.274   1.284   1.346   1.364   1.406   1.441   1.489
  1.552   1.614   1.631   1.679   1.732   1.752   1.807   1.838
  1.854   1.895   1.938   1.969   2.029   2.057   2.086   2.136
  2.154   2.196   2.210   2.224   2.308   2.342   2.376   2.393
  2.418   2.440   2.454   2.485   2.493   2.512   2.522   2.529
  2.583   2.633   2.648   2.657   2.673   2.730   2.781   2.796
  2.840   2.875   2.947   3.059   3.122   3.284   3.333   3.377
  3.499   3.657   3.724   4.140   4.393   4.476   4.559   4.607
  4.763   4.854
 
 Beta MOs
 -- Occupied --
-14.336 -10.235 -10.232 -10.222 -10.206 -10.203 -10.196  -0.956
 -0.821  -0.732  -0.699  -0.583  -0.572  -0.538  -0.518  -0.463
 -0.436  -0.418  -0.389  -0.376  -0.350  -0.299  -0.271  -0.261
 -- Virtual --
 -0.056  -0.034   0.004   0.007   0.022   0.025   0.034   0.048
  0.049   0.072   0.073   0.074   0.088   0.106   0.107   0.109
  0.123   0.131   0.132   0.139   0.149   0.171   0.174   0.187
  0.192   0.198   0.202   0.209   0.219   0.231   0.238   0.242
  0.249   0.255   0.263   0.277   0.283   0.313   0.331   0.335
  0.350   0.370   0.398   0.423   0.455   0.623   0.683   0.708
  0.715   0.723   0.732   0.738   0.750   0.752   0.782   0.789
  0.808   0.814   0.841   0.857   0.879   0.902   0.946   0.955
  0.987   1.009   1.021   1.038   1.071   1.091   1.096   1.127
  1.157   1.218   1.280   1.287   1.349   1.367   1.407   1.443
  1.494   1.562   1.624   1.651   1.686   1.736   1.762   1.812
  1.846   1.861   1.900   1.942   1.970   2.046   2.061   2.089
  2.147   2.158   2.202   2.224   2.230   2.311   2.344   2.384
  2.395   2.424   2.441   2.460   2.489   2.493   2.515   2.524
  2.533   2.587   2.636   2.662   2.667   2.676   2.733   2.784
  2.798   2.845   2.878   2.950   3.062   3.124   3.285   3.333
  3.379   3.501   3.663   3.725   4.142   4.401   4.478   4.572
  4.616   4.768   4.854
 --------------------------------------------------------------
 
          Ground-State Mulliken Net Atomic Charges

     Atom                 Charge (a.u.)    Spin (a.u.)
  --------------------------------------------------------
      1 C                     0.036539      -0.100999
      2 C                    -0.139340       0.007242
      3 C                    -0.118221       0.070711
      4 C                     0.018339      -0.087513
      5 C                    -0.113896      -0.016669
      6 N                    -0.199473       0.066554
      7 H                     0.125699       0.001793
      8 H                     0.137491      -0.000866
      9 H                     0.137097      -0.002319
     10 H                     0.121860       0.001737
     11 H                     0.138574       0.000519
     12 C                    -0.276471       1.106666
     13 H                     0.131802      -0.046858
  --------------------------------------------------------
  Sum of atomic charges =    -0.000000
  Sum of spin   charges =     1.000000

 -----------------------------------------------------------------
                    Cartesian Multipole Moments
 -----------------------------------------------------------------
    Charge (ESU x 10^10)
                 0.0000
    Dipole Moment (Debye)
         X      -1.4412      Y      -1.5293      Z      -0.6384
       Tot       2.1962
    Quadrupole Moments (Debye-Ang)
        XX     -37.8830     XY      -3.7830     YY     -45.9971
        XZ      -0.3611     YZ      -2.3654     ZZ     -40.5432
    Octopole Moments (Debye-Ang^2)
       XXX      -9.1549    XXY      -7.5635    XYY     -13.7129
       YYY     -18.3138    XXZ      -1.1172    XYZ      -1.6848
       YYZ      -0.1561    XZZ      -1.8709    YZZ     -10.5037
       ZZZ      -8.0975
    Hexadecapole Moments (Debye-Ang^3)
      XXXX    -222.9430   XXXY      -5.8102   XXYY     -87.6587
      XYYY     -23.3109   YYYY    -309.0114   XXXZ      -4.6158
      XXYZ       0.5371   XYYZ      -5.6813   YYYZ       7.9069
      XXZZ     -69.2940   XYZZ      -4.2781   YYZZ     -82.5130
      XZZZ      -5.2415   YZZZ      13.7240   ZZZZ    -191.7308
 -----------------------------------------------------------------
 Calculating analytic gradient of the SCF energy
 Gradient of SCF Energy
            1           2           3           4           5           6
    1   0.0003464   0.0006294  -0.0009011  -0.0028568  -0.0006246   0.0000013
    2   0.0014876   0.0000165   0.0000686   0.0014541   0.0009419   0.0012057
    3   0.0073892   0.0011327   0.0008136   0.0061749   0.0009508   0.0010559
            7           8           9          10          11          12
    1   0.0000440   0.0000154  -0.0001779   0.0003563  -0.0001398   0.0120572
    2  -0.0000792  -0.0001646  -0.0002669  -0.0001209   0.0002355  -0.0118549
    3  -0.0008614   0.0000386   0.0002129  -0.0008692   0.0002450  -0.0564699
           13
    1  -0.0087497
    2   0.0070765
    3   0.0401868
 Max gradient component =       5.647E-02
 RMS gradient           =       1.169E-02
 Gradient time:  CPU 17.19 s  wall 4.65 s
rPathMan2.  file_steps = 951
 IRC --- Status = 3.  Assess initial corrector step
 IRC --- bisector search: b =  0.000000 E =     -286.870396 G.B =  -0.002503
 IRC --- bisector search: b =  0.086978 E =     -286.867966 G.B =   0.060691
 IRC --- performed gradient/energy interpolation
 IRC --- bisector search:  estimate b(min) =   3.575801534739287E-003
 ----------------------------------------------------------------
             Standard Nuclear Orientation (Angstroms)
    I     Atom           X                Y                Z
 ----------------------------------------------------------------
    1      C       1.2178591059     0.1166604912    -0.0295671217
    2      C       0.6064873228    -0.8799990230     0.9683370935
    3      C      -0.7079257734    -0.9458921788     0.6976098134
    4      C      -0.9621510466     0.0048600133    -0.4915880692
    5      C      -0.5810956214     1.4120554213     0.0368898419
    6      N       0.6630849386     1.5065033499     0.3195463916
    7      H       2.3014862348     0.1361472683    -0.1191822713
    8      H       1.1539717601    -1.3770075818     1.7600244712
    9      H      -1.4775997796    -1.5040100696     1.2170262550
   10      H      -1.9106925942    -0.0892909282    -1.0186550623
   11      H      -1.2776616986     2.2353298811     0.1836794315
   12      C       0.3550324048    -0.2350303929    -1.2200298454
   13      H       0.5833589822    -0.4136733299    -2.2631369207
 ----------------------------------------------------------------
 Nuclear Repulsion Energy =   278.6298180279 hartrees
 There are       25 alpha and       24 beta electrons

                       Distance Matrix (Angstroms)
             C (  1)   C (  2)   C (  3)   C (  4)   C (  5)   N (  6)
   C (  2)  1.537179
   C (  3)  2.316560  1.343621
   C (  4)  2.231234  2.318401  1.543616
   C (  5)  2.217815  2.744351  2.452051  1.550707
   N (  6)  1.536658  2.473768  2.834933  2.356749  1.279375
   H (  7)  1.087501  2.255720  3.300685  3.287438  3.156197  2.180531
   H (  8)  2.331901  1.083294  2.186606  3.384862  3.709248  3.260457
   H (  9)  3.383204  2.189670  1.083368  2.337036  3.271067  3.801472
   H ( 10)  3.287635  3.302961  2.264062  1.089218  2.266284  3.310842
   H ( 11)  3.280527  3.724376  3.272445  2.351708  1.088362  2.077534
   C ( 12)  1.511740  2.295248  2.304896  1.524187  2.273560  2.344809
   H ( 13)  2.381739  3.265030  3.273636  2.387919  3.159013  3.219268
             H (  7)   H (  8)   H (  9)   H ( 10)   H ( 11)   C ( 12)
   H (  8)  2.671675
   H (  9)  4.330942  2.690008
   H ( 10)  4.313041  4.332602  2.680909
   H ( 11)  4.160360  4.631057  3.884642  2.692619
   C ( 12)  2.266786  3.289854  3.302740  2.279320  3.277006
   H ( 13)  2.801929  4.176055  4.189024  2.806110  4.058020  1.082644

 
 Applying Cartesian multipole field
    Component          Value
    ---------          -----
     (2,0,0)        1.00000E-11
     (0,2,0)        2.00000E-11
     (0,0,2)       -3.00000E-11
 Nucleus-field energy     =     0.0000000016 hartrees
 Requested basis set is 6-31+G(d,p)
 There are 53 shells and 163 basis functions
 A cutoff of  1.0D-14 yielded   1410 shell pairs
 There are     13522 function pairs
 Smallest overlap matrix eigenvalue = 2.22E-05
 Guess MOs from core Hamiltonian diagonalization
 Mixing HOMO and LUMO in initial guess
 Adding  50% of the LUMO to the HOMO
 An unrestricted hybrid HF-DFT SCF calculation will be
 performed using Pulay DIIS extrapolation
 Exchange:     0.2000 Hartree-Fock + 0.0800 Slater + 0.7200 B88
 Correlation:  0.1900 VWN1RPA + 0.8100 LYP
 Using SG-1 standard quadrature grid
 SCF converges when DIIS error is below 1.0E-08
 using 4 threads for integral computing
 -------------------------------------------------------
 OpenMP Integral computing Module                
 Release: version 1.0, May 2013, Q-Chem Inc. Pittsburgh 
 -------------------------------------------------------
 -------------------------------------------------------
 OpenMP BLAS3 based DFT computing Module                
 Release: version 1.0, May 2013, Q-Chem Inc. Pittsburgh 
 -------------------------------------------------------
 ---------------------------------------
  Cycle       Energy         DIIS Error
 ---------------------------------------
    1    -235.0625772543      1.00E-01
    2    -215.6848725300      7.07E-02
    3    -253.4866249448      7.83E-02
    4    -280.8339166368      3.78E-02
    5    -280.3623114237      3.45E-02
    6    -286.1130913926      1.35E-02
    7    -286.2360544110      1.30E-02
    8    -286.7797606263      5.19E-03
    9    -286.8454298980      2.80E-03
   10    -286.8675453781      9.20E-04
   11    -286.8700652036      3.06E-04
   12    -286.8703819696      6.33E-05
   13    -286.8703981805      2.20E-05
   14    -286.8704002268      6.65E-06
   15    -286.8704006246      1.99E-06
   16    -286.8704007446      1.01E-06
   17    -286.8704007937      3.72E-07
   18    -286.8704008153      1.47E-07
   19    -286.8704008244      8.50E-08
   20    -286.8704008315      2.72E-08
   21    -286.8704008324      7.68E-09 Convergence criterion met
 ---------------------------------------
 <S^2> = 0.7554
 SCF time:  CPU 106.91 s  wall 29.87 s
 SCF   energy in the final basis set = -286.87040083
 Total energy in the final basis set = -286.87040083
 
 --------------------------------------------------------------
 
                    Orbital Energies (a.u.)
 --------------------------------------------------------------
 
 Alpha MOs
 -- Occupied --
-14.337 -10.236 -10.230 -10.220 -10.212 -10.207 -10.204  -0.963
 -0.828  -0.734  -0.715  -0.585  -0.580  -0.540  -0.521  -0.474
 -0.436  -0.419  -0.391  -0.381  -0.358  -0.304  -0.277  -0.268
 -0.195
 -- Virtual --
 -0.040   0.003   0.006   0.021   0.024   0.033   0.048   0.048
  0.067   0.072   0.073   0.086   0.105   0.107   0.108   0.122
  0.124   0.131   0.138   0.149   0.171   0.172   0.186   0.190
  0.194   0.200   0.207   0.213   0.229   0.235   0.241   0.246
  0.254   0.259   0.276   0.279   0.309   0.329   0.334   0.347
  0.364   0.396   0.422   0.453   0.621   0.683   0.692   0.709
  0.714   0.723   0.734   0.737   0.750   0.772   0.786   0.801
  0.806   0.839   0.856   0.873   0.900   0.943   0.953   0.972
  1.009   1.018   1.032   1.069   1.072   1.095   1.124   1.153
  1.216   1.275   1.284   1.346   1.363   1.405   1.442   1.489
  1.551   1.611   1.628   1.682   1.741   1.768   1.802   1.842
  1.856   1.894   1.938   1.969   2.036   2.060   2.087   2.142
  2.153   2.204   2.217   2.220   2.302   2.337   2.372   2.386
  2.406   2.438   2.444   2.480   2.496   2.508   2.522   2.523
  2.579   2.633   2.640   2.653   2.671   2.728   2.781   2.796
  2.839   2.865   2.941   3.053   3.119   3.278   3.324   3.337
  3.488   3.611   3.724   4.139   4.394   4.479   4.567   4.608
  4.761   4.856
 
 Beta MOs
 -- Occupied --
-14.336 -10.235 -10.231 -10.221 -10.206 -10.203 -10.198  -0.958
 -0.822  -0.733  -0.700  -0.583  -0.566  -0.537  -0.519  -0.464
 -0.432  -0.416  -0.389  -0.378  -0.353  -0.298  -0.271  -0.261
 -- Virtual --
 -0.055  -0.034   0.003   0.007   0.022   0.025   0.035   0.048
  0.049   0.071   0.073   0.074   0.087   0.106   0.107   0.109
  0.123   0.130   0.132   0.139   0.150   0.171   0.174   0.187
  0.192   0.197   0.202   0.209   0.219   0.232   0.239   0.242
  0.248   0.258   0.260   0.277   0.283   0.311   0.330   0.336
  0.350   0.372   0.398   0.424   0.454   0.623   0.684   0.712
  0.715   0.722   0.733   0.739   0.749   0.753   0.780   0.791
  0.807   0.812   0.842   0.859   0.882   0.902   0.945   0.954
  0.976   1.010   1.027   1.034   1.072   1.081   1.097   1.126
  1.155   1.218   1.281   1.287   1.349   1.366   1.406   1.444
  1.493   1.561   1.621   1.647   1.688   1.748   1.774   1.806
  1.849   1.864   1.899   1.943   1.970   2.050   2.063   2.091
  2.152   2.158   2.210   2.226   2.236   2.306   2.339   2.380
  2.387   2.414   2.439   2.451   2.483   2.497   2.512   2.524
  2.526   2.583   2.638   2.647   2.666   2.675   2.730   2.783
  2.798   2.843   2.869   2.944   3.055   3.121   3.279   3.326
  3.338   3.489   3.616   3.724   4.142   4.402   4.480   4.579
  4.619   4.765   4.857
 --------------------------------------------------------------
 
          Ground-State Mulliken Net Atomic Charges

     Atom                 Charge (a.u.)    Spin (a.u.)
  --------------------------------------------------------
      1 C                     0.040213      -0.102243
      2 C                    -0.141993       0.006174
      3 C                    -0.119502       0.073169
      4 C                     0.024724      -0.088433
      5 C                    -0.118327      -0.015427
      6 N                    -0.199841       0.070439
      7 H                     0.126692       0.001751
      8 H                     0.137335      -0.000859
      9 H                     0.136972      -0.002449
     10 H                     0.122782       0.001694
     11 H                     0.138398       0.000583
     12 C                    -0.288352       1.103162
     13 H                     0.140901      -0.047561
  --------------------------------------------------------
  Sum of atomic charges =     0.000000
  Sum of spin   charges =     1.000000

 -----------------------------------------------------------------
                    Cartesian Multipole Moments
 -----------------------------------------------------------------
    Charge (ESU x 10^10)
                 0.0000
    Dipole Moment (Debye)
         X      -1.4462      Y      -1.5034      Z      -0.6220
       Tot       2.1768
    Quadrupole Moments (Debye-Ang)
        XX     -37.8167     XY      -3.7598     YY     -46.0690
        XZ      -0.3197     YZ      -2.4365     ZZ     -40.5917
    Octopole Moments (Debye-Ang^2)
       XXX      -9.1238    XXY      -7.4985    XYY     -13.7291
       YYY     -18.1253    XXZ      -1.1661    XYZ      -1.7143
       YYZ      -0.1331    XZZ      -1.8576    YZZ     -10.2902
       ZZZ      -8.2979
    Hexadecapole Moments (Debye-Ang^3)
      XXXX    -222.1166   XXXY      -5.7856   XXYY     -87.6455
      XYYY     -23.2846   YYYY    -309.1995   XXXZ      -4.4196
      XXYZ       0.5409   XYYZ      -5.5883   YYYZ       7.8937
      XXZZ     -69.2414   XYZZ      -4.2165   YYZZ     -82.6651
      XZZZ      -5.2746   YZZZ      13.6383   ZZZZ    -191.3433
 -----------------------------------------------------------------
 Calculating analytic gradient of the SCF energy
 Gradient of SCF Energy
            1           2           3           4           5           6
    1   0.0000683   0.0000338  -0.0000045  -0.0001032  -0.0000635  -0.0000816
    2   0.0002340  -0.0000439  -0.0000668   0.0001832   0.0001732   0.0002203
    3   0.0000924  -0.0001078  -0.0001007   0.0000419   0.0002777   0.0003804
            7           8           9          10          11          12
    1   0.0000055   0.0000261   0.0000539   0.0000129  -0.0000792  -0.0001119
    2   0.0002006  -0.0000299  -0.0000486   0.0001776   0.0000708   0.0005378
    3  -0.0000371  -0.0001765  -0.0001705  -0.0000835   0.0002194   0.0004924
           13
    1   0.0002433
    2  -0.0016084
    3  -0.0008281
 Max gradient component =       1.608E-03
 RMS gradient           =       3.411E-04
 Gradient time:  CPU 17.35 s  wall 4.71 s
rPathMan2.  file_steps = 951
 IRC --- Status = 4.  Checking bisector search.
 IRC --- Bisector search finished successfully.
 ------------------------------------------------------------------------
 Reaction path following.  The coordinates are cartesian              
 Step   2 E=    -286.870401 |G|=  0.002130 S_lin= 0.1480 S_tot= 0.1480
 ------------------------------------------------------------------------
  IRC -- SD step length =   0.150000000000000     
 ----------------------------------------------------------------
             Standard Nuclear Orientation (Angstroms)
    I     Atom           X                Y                Z
 ----------------------------------------------------------------
    1      C       1.2153142403     0.1079400632    -0.0330112095
    2      C       0.6052281504    -0.8783647429     0.9723547229
    3      C      -0.7077582257    -0.9434032073     0.7013635755
    4      C      -0.9583044389    -0.0019682694    -0.4931509985
    5      C      -0.5787306147     1.4056015765     0.0265424618
    6      N       0.6661251868     1.4982950836     0.3053724848
    7      H       2.3012822412     0.1286717704    -0.1178006278
    8      H       1.1529980566    -1.3758933035     1.7666001592
    9      H      -1.4796101729    -1.5022003633     1.2233805049
   10      H      -1.9111726312    -0.0959087236    -1.0155446422
   11      H      -1.2747116473     2.2326911109     0.1755053498
   12      C       0.3592024102    -0.2550712556    -1.2383807096
   13      H       0.5742916811    -0.3537368174    -2.2322770644
 ----------------------------------------------------------------
 Nuclear Repulsion Energy =   278.7682808806 hartrees
 There are       25 alpha and       24 beta electrons

                       Distance Matrix (Angstroms)
             C (  1)   C (  2)   C (  3)   C (  4)   C (  5)   N (  6)
   C (  2)  1.534849
   C (  3)  2.311458  1.342237
   C (  4)  2.224506  2.315256  1.541408
   C (  5)  2.214965  2.740953  2.447418  1.547711
   N (  6)  1.532710  2.469228  2.829533  2.351000  1.279064
   H (  7)  1.089470  2.253699  3.297681  3.283727  3.153706  2.174553
   H (  8)  2.333291  1.085547  2.187279  3.384042  3.709905  3.260857
   H (  9)  3.381374  2.190602  1.086513  2.338576  3.270981  3.801301
   H ( 10)  3.283572  3.300947  2.261466  1.090723  2.261831  3.305869
   H ( 11)  3.279981  3.721265  3.268874  2.353915  1.091172  2.079195
   C ( 12)  1.522373  2.310059  2.318364  1.534683  2.288577  2.356198
   H ( 13)  2.336841  3.247438  3.255396  2.344600  3.086583  3.142948
             H (  7)   H (  8)   H (  9)   H ( 10)   H ( 11)   C ( 12)
   H (  8)  2.670812
   H (  9)  4.330549  2.691035
   H ( 10)  4.312906  4.332186  2.678934
   H ( 11)  4.159406  4.631116  3.884513  2.691851
   C ( 12)  2.274782  3.303977  3.316147  2.286830  3.295104
   H ( 13)  2.772404  4.167820  4.180795  2.779289  3.988212  1.021679

 
 Applying Cartesian multipole field
    Component          Value
    ---------          -----
     (2,0,0)        1.00000E-11
     (0,2,0)        2.00000E-11
     (0,0,2)       -3.00000E-11
 Nucleus-field energy     =     0.0000000015 hartrees
 Requested basis set is 6-31+G(d,p)
 There are 53 shells and 163 basis functions
 A cutoff of  1.0D-14 yielded   1411 shell pairs
 There are     13525 function pairs
 Smallest overlap matrix eigenvalue = 2.21E-05
 Guess MOs from core Hamiltonian diagonalization
 Mixing HOMO and LUMO in initial guess
 Adding  50% of the LUMO to the HOMO
 An unrestricted hybrid HF-DFT SCF calculation will be
 performed using Pulay DIIS extrapolation
 Exchange:     0.2000 Hartree-Fock + 0.0800 Slater + 0.7200 B88
 Correlation:  0.1900 VWN1RPA + 0.8100 LYP
 Using SG-1 standard quadrature grid
 SCF converges when DIIS error is below 1.0E-08
 using 4 threads for integral computing
 -------------------------------------------------------
 OpenMP Integral computing Module                
 Release: version 1.0, May 2013, Q-Chem Inc. Pittsburgh 
 -------------------------------------------------------
 -------------------------------------------------------
 OpenMP BLAS3 based DFT computing Module                
 Release: version 1.0, May 2013, Q-Chem Inc. Pittsburgh 
 -------------------------------------------------------
 ---------------------------------------
  Cycle       Energy         DIIS Error
 ---------------------------------------
    1    -234.5043073872      1.00E-01
    2    -216.4596185019      7.07E-02
    3    -254.8099764237      7.74E-02
    4    -280.7945566697      3.85E-02
    5    -277.9760705683      4.16E-02
    6    -285.7931782814      1.55E-02
    7    -286.4923300553      8.62E-03
    8    -286.5926554455      8.09E-03
    9    -286.8278809063      3.36E-03
   10    -286.8622030104      1.06E-03
   11    -286.8663429396      4.94E-04
   12    -286.8674402843      1.76E-04
   13    -286.8676599781      7.75E-05
   14    -286.8677129197      2.96E-05
   15    -286.8677411340      9.08E-06
   16    -286.8677491409      5.58E-06
   17    -286.8677544635      2.03E-06
   18    -286.8677574901      1.02E-06
   19    -286.8677584115      3.83E-07
   20    -286.8677586426      8.29E-08
   21    -286.8677586488      2.18E-08
   22    -286.8677586490      5.10E-09 Convergence criterion met
 ---------------------------------------
 <S^2> = 0.7551
 SCF time:  CPU 112.21 s  wall 34.06 s
 SCF   energy in the final basis set = -286.86775865
 Total energy in the final basis set = -286.86775865
 
 --------------------------------------------------------------
 
                    Orbital Energies (a.u.)
 --------------------------------------------------------------
 
 Alpha MOs
 -- Occupied --
-14.337 -10.236 -10.230 -10.221 -10.209 -10.207 -10.203  -0.963
 -0.828  -0.734  -0.717  -0.588  -0.585  -0.541  -0.520  -0.473
 -0.442  -0.420  -0.390  -0.379  -0.357  -0.305  -0.277  -0.268
 -0.198
 -- Virtual --
 -0.040   0.003   0.006   0.022   0.024   0.033   0.048   0.049
  0.067   0.073   0.074   0.088   0.105   0.107   0.108   0.122
  0.124   0.132   0.138   0.148   0.171   0.173   0.186   0.190
  0.196   0.201   0.208   0.212   0.229   0.235   0.240   0.247
  0.254   0.262   0.276   0.280   0.311   0.330   0.333   0.347
  0.363   0.396   0.423   0.453   0.620   0.682   0.691   0.706
  0.716   0.724   0.733   0.738   0.750   0.765   0.786   0.797
  0.808   0.840   0.854   0.878   0.899   0.943   0.954   0.987
  1.006   1.015   1.035   1.070   1.084   1.097   1.126   1.154
  1.218   1.279   1.287   1.348   1.365   1.405   1.445   1.490
  1.546   1.608   1.628   1.683   1.733   1.752   1.799   1.844
  1.879   1.897   1.937   1.972   2.031   2.062   2.086   2.133
  2.159   2.207   2.208   2.227   2.309   2.344   2.376   2.393
  2.424   2.442   2.452   2.481   2.491   2.520   2.521   2.532
  2.591   2.632   2.647   2.650   2.677   2.729   2.787   2.797
  2.846   2.875   2.956   3.059   3.121   3.280   3.331   3.383
  3.499   3.669   3.722   4.142   4.392   4.478   4.568   4.608
  4.766   4.856
 
 Beta MOs
 -- Occupied --
-14.336 -10.236 -10.231 -10.221 -10.206 -10.203 -10.195  -0.958
 -0.822  -0.732  -0.701  -0.583  -0.573  -0.539  -0.518  -0.463
 -0.437  -0.417  -0.388  -0.377  -0.351  -0.299  -0.271  -0.261
 -- Virtual --
 -0.058  -0.034   0.003   0.008   0.022   0.025   0.035   0.048
  0.049   0.072   0.073   0.075   0.089   0.106   0.107   0.109
  0.123   0.130   0.132   0.139   0.149   0.171   0.174   0.187
  0.192   0.198   0.203   0.210   0.219   0.232   0.239   0.241
  0.249   0.258   0.264   0.277   0.285   0.314   0.331   0.335
  0.350   0.370   0.399   0.424   0.455   0.623   0.684   0.708
  0.716   0.722   0.731   0.738   0.749   0.753   0.771   0.790
  0.805   0.815   0.842   0.857   0.887   0.901   0.945   0.955
  0.990   1.008   1.022   1.038   1.072   1.093   1.099   1.129
  1.157   1.220   1.284   1.290   1.351   1.367   1.405   1.447
  1.495   1.558   1.619   1.643   1.689   1.740   1.761   1.803
  1.851   1.888   1.901   1.942   1.973   2.047   2.066   2.090
  2.143   2.164   2.212   2.219   2.237   2.312   2.347   2.383
  2.394   2.430   2.445   2.458   2.484   2.491   2.521   2.524
  2.537   2.597   2.636   2.658   2.660   2.681   2.731   2.789
  2.799   2.851   2.878   2.960   3.062   3.123   3.281   3.331
  3.385   3.500   3.676   3.723   4.144   4.400   4.480   4.579
  4.619   4.770   4.857
 --------------------------------------------------------------
 
          Ground-State Mulliken Net Atomic Charges

     Atom                 Charge (a.u.)    Spin (a.u.)
  --------------------------------------------------------
      1 C                     0.039639      -0.097703
      2 C                    -0.141562       0.005145
      3 C                    -0.114487       0.065058
      4 C                     0.016439      -0.086973
      5 C                    -0.117202      -0.010155
      6 N                    -0.200850       0.069466
      7 H                     0.125828       0.001638
      8 H                     0.137509      -0.001109
      9 H                     0.137207      -0.002620
     10 H                     0.121907       0.001624
     11 H                     0.138614       0.000588
     12 C                    -0.272212       1.098849
     13 H                     0.129170      -0.043809
  --------------------------------------------------------
  Sum of atomic charges =     0.000000
  Sum of spin   charges =     1.000000

 -----------------------------------------------------------------
                    Cartesian Multipole Moments
 -----------------------------------------------------------------
    Charge (ESU x 10^10)
                 0.0000
    Dipole Moment (Debye)
         X      -1.4476      Y      -1.4298      Z      -0.6288
       Tot       2.1296
    Quadrupole Moments (Debye-Ang)
        XX     -37.8954     XY      -3.7165     YY     -46.0516
        XZ      -0.3318     YZ      -2.5730     ZZ     -40.4521
    Octopole Moments (Debye-Ang^2)
       XXX      -9.2434    XXY      -7.3231    XYY     -13.7401
       YYY     -17.3197    XXZ      -1.0290    XYZ      -1.7683
       YYZ       0.1578    XZZ      -1.8335    YZZ      -9.6199
       ZZZ      -8.0110
    Hexadecapole Moments (Debye-Ang^3)
      XXXX    -222.5278   XXXY      -5.8096   XXYY     -87.4241
      XYYY     -23.1261   YYYY    -307.3268   XXXZ      -4.5062
      XXYZ       0.6775   XYYZ      -5.4095   YYYZ       8.5973
      XXZZ     -69.1074   XYZZ      -3.8669   YYZZ     -82.3209
      XZZZ      -5.1578   YZZZ      13.0576   ZZZZ    -190.7984
 -----------------------------------------------------------------
 Calculating analytic gradient of the SCF energy
 Gradient of SCF Energy
            1           2           3           4           5           6
    1  -0.0032301  -0.0010303   0.0017315   0.0014502   0.0005701  -0.0003665
    2   0.0009425   0.0014650   0.0019230   0.0012113  -0.0010730  -0.0005482
    3   0.0036864  -0.0005975  -0.0006422   0.0039838   0.0008338   0.0005147
            7           8           9          10          11          12
    1   0.0010114   0.0006709  -0.0013029  -0.0005644  -0.0011156   0.0126519
    2   0.0004636  -0.0010547  -0.0014015   0.0002407   0.0015816  -0.0065809
    3  -0.0000576   0.0010089   0.0009997  -0.0004731   0.0007565  -0.0590805
           13
    1  -0.0104762
    2   0.0028305
    3   0.0490671
 Max gradient component =       5.908E-02
 RMS gradient           =       1.270E-02
 Gradient time:  CPU 17.35 s  wall 4.43 s
rPathMan2.  file_steps = 951
 IRC --- Status = 2.  Assess steepest descent step
 IRC --- Previous SD length =   0.150000
 IRC --- Point 1 E =     -286.870401 |G| =   0.002130 G.D1 =  -0.002130
 IRC --- Point 2 E =     -286.867759 |G| =   0.079313 G.D1 =   0.038006
 IRC --- Angle(G1/G2) =  118.63 Deg.  Curvature =   0.2676
 IRC --- Minimum along SD direction =   0.007961
 IRC --- SD step rejected. Backing up to the estimated minimum.
 ----------------------------------------------------------------
             Standard Nuclear Orientation (Angstroms)
    I     Atom           X                Y                Z
 ----------------------------------------------------------------
    1      C       1.2177240468     0.1161976876    -0.0297499035
    2      C       0.6064204970    -0.8799122898     0.9685503139
    3      C      -0.7079168814    -0.9457600861     0.6978090300
    4      C      -0.9619469025     0.0044976281    -0.4916710157
    5      C      -0.5809701076     1.4117129081     0.0363406941
    6      N       0.6632462882     1.5060677274     0.3187941654
    7      H       2.3014754086     0.1357505347    -0.1191089458
    8      H       1.1539200845    -1.3769484457     1.7603734508
    9      H      -1.4777064735    -1.5039140263     1.2173634827
   10      H      -1.9107180704    -0.0896421425    -1.0184899885
   11      H      -1.2775051359     2.2351898384     0.1832456232
   12      C       0.3552537120    -0.2360939855    -1.2210037477
   13      H       0.5828777697    -0.4104924275    -2.2614991512
 ----------------------------------------------------------------
 Nuclear Repulsion Energy =   278.6371230477 hartrees
 There are       25 alpha and       24 beta electrons

                       Distance Matrix (Angstroms)
             C (  1)   C (  2)   C (  3)   C (  4)   C (  5)   N (  6)
   C (  2)  1.537053
   C (  3)  2.316288  1.343547
   C (  4)  2.230877  2.318233  1.543497
   C (  5)  2.217663  2.744168  2.451802  1.550547
   N (  6)  1.536446  2.473522  2.834643  2.356442  1.279358
   H (  7)  1.087605  2.255612  3.300525  3.287241  3.156063  2.180212
   H (  8)  2.331973  1.083413  2.186642  3.384818  3.709281  3.260474
   H (  9)  3.383105  2.189719  1.083535  2.337116  3.271060  3.801460
   H ( 10)  3.287420  3.302854  2.263924  1.089297  2.266046  3.310576
   H ( 11)  3.280497  3.724210  3.272254  2.351824  1.088511  2.077621
   C ( 12)  1.512300  2.296026  2.305602  1.524739  2.274357  2.345413
   H ( 13)  2.379314  3.264066  3.272639  2.385580  3.155161  3.215210
             H (  7)   H (  8)   H (  9)   H ( 10)   H ( 11)   C ( 12)
   H (  8)  2.671628
   H (  9)  4.330921  2.690063
   H ( 10)  4.313034  4.332580  2.680803
   H ( 11)  4.160308  4.631059  3.884634  2.692577
   C ( 12)  2.267205  3.290597  3.303444  2.279712  3.277966
   H ( 13)  2.800321  4.175594  4.188563  2.804646  4.054311  1.079286

 
 Applying Cartesian multipole field
    Component          Value
    ---------          -----
     (2,0,0)        1.00000E-11
     (0,2,0)        2.00000E-11
     (0,0,2)       -3.00000E-11
 Nucleus-field energy     =     0.0000000016 hartrees
 Requested basis set is 6-31+G(d,p)
 There are 53 shells and 163 basis functions
 A cutoff of  1.0D-14 yielded   1410 shell pairs
 There are     13522 function pairs
 Smallest overlap matrix eigenvalue = 2.22E-05
 Guess MOs from core Hamiltonian diagonalization
 Mixing HOMO and LUMO in initial guess
 Adding  50% of the LUMO to the HOMO
 An unrestricted hybrid HF-DFT SCF calculation will be
 performed using Pulay DIIS extrapolation
 Exchange:     0.2000 Hartree-Fock + 0.0800 Slater + 0.7200 B88
 Correlation:  0.1900 VWN1RPA + 0.8100 LYP
 Using SG-1 standard quadrature grid
 SCF converges when DIIS error is below 1.0E-08
 using 4 threads for integral computing
 -------------------------------------------------------
 OpenMP Integral computing Module                
 Release: version 1.0, May 2013, Q-Chem Inc. Pittsburgh 
 -------------------------------------------------------
 -------------------------------------------------------
 OpenMP BLAS3 based DFT computing Module                
 Release: version 1.0, May 2013, Q-Chem Inc. Pittsburgh 
 -------------------------------------------------------
 ---------------------------------------
  Cycle       Energy         DIIS Error
 ---------------------------------------
    1    -235.0269344010      1.00E-01
    2    -215.7279904820      7.07E-02
    3    -253.5502605531      7.83E-02
    4    -280.8269028036      3.78E-02
    5    -280.2740435863      3.47E-02
    6    -286.1130652456      1.35E-02
    7    -286.2338633851      1.30E-02
    8    -286.7784180608      5.23E-03
    9    -286.8454519089      2.80E-03
   10    -286.8674966965      9.30E-04
   11    -286.8700659044      3.09E-04
   12    -286.8703914517      6.13E-05
   13    -286.8704071650      2.04E-05
   14    -286.8704090408      6.74E-06
   15    -286.8704094913      2.03E-06
   16    -286.8704096437      1.04E-06
   17    -286.8704097085      3.96E-07
   18    -286.8704097375      1.63E-07
   19    -286.8704097504      9.29E-08
   20    -286.8704097598      2.59E-08
   21    -286.8704097607      7.49E-09 Convergence criterion met
 ---------------------------------------
 <S^2> = 0.7554
 SCF time:  CPU 106.73 s  wall 29.78 s
 SCF   energy in the final basis set = -286.87040976
 Total energy in the final basis set = -286.87040976
 
 --------------------------------------------------------------
 
                    Orbital Energies (a.u.)
 --------------------------------------------------------------
 
 Alpha MOs
 -- Occupied --
-14.337 -10.236 -10.230 -10.220 -10.212 -10.207 -10.204  -0.963
 -0.828  -0.734  -0.715  -0.585  -0.581  -0.540  -0.521  -0.474
 -0.436  -0.419  -0.391  -0.381  -0.358  -0.304  -0.277  -0.268
 -0.195
 -- Virtual --
 -0.040   0.003   0.006   0.021   0.024   0.033   0.048   0.048
  0.067   0.073   0.073   0.086   0.105   0.107   0.108   0.122
  0.124   0.131   0.138   0.149   0.171   0.172   0.186   0.190
  0.194   0.200   0.207   0.213   0.229   0.235   0.241   0.246
  0.254   0.259   0.276   0.279   0.309   0.329   0.334   0.347
  0.364   0.396   0.422   0.453   0.621   0.683   0.692   0.709
  0.714   0.723   0.734   0.737   0.750   0.772   0.786   0.801
  0.806   0.839   0.856   0.874   0.900   0.943   0.953   0.973
  1.009   1.018   1.032   1.069   1.072   1.095   1.124   1.153
  1.216   1.275   1.284   1.346   1.363   1.405   1.442   1.489
  1.551   1.611   1.628   1.682   1.740   1.767   1.802   1.842
  1.857   1.894   1.938   1.969   2.036   2.060   2.087   2.142
  2.153   2.205   2.217   2.219   2.303   2.337   2.373   2.386
  2.407   2.438   2.444   2.480   2.495   2.509   2.522   2.524
  2.580   2.633   2.640   2.652   2.671   2.728   2.781   2.796
  2.839   2.866   2.942   3.053   3.119   3.279   3.326   3.338
  3.488   3.613   3.724   4.139   4.394   4.479   4.567   4.608
  4.761   4.856
 
 Beta MOs
 -- Occupied --
-14.336 -10.235 -10.231 -10.221 -10.206 -10.203 -10.198  -0.958
 -0.822  -0.733  -0.700  -0.583  -0.566  -0.537  -0.519  -0.464
 -0.432  -0.416  -0.389  -0.378  -0.353  -0.298  -0.271  -0.261
 -- Virtual --
 -0.055  -0.034   0.003   0.007   0.022   0.025   0.035   0.048
  0.049   0.071   0.073   0.074   0.087   0.106   0.107   0.109
  0.123   0.130   0.132   0.139   0.150   0.171   0.174   0.187
  0.192   0.198   0.202   0.209   0.219   0.232   0.239   0.242
  0.248   0.258   0.260   0.277   0.283   0.311   0.330   0.336
  0.350   0.372   0.398   0.424   0.454   0.623   0.684   0.711
  0.715   0.722   0.733   0.739   0.749   0.753   0.780   0.791
  0.807   0.812   0.842   0.859   0.882   0.902   0.945   0.954
  0.976   1.010   1.026   1.034   1.072   1.082   1.097   1.127
  1.156   1.218   1.281   1.288   1.349   1.366   1.406   1.444
  1.493   1.561   1.621   1.647   1.689   1.747   1.773   1.806
  1.849   1.865   1.899   1.943   1.970   2.050   2.064   2.091
  2.152   2.158   2.210   2.226   2.235   2.307   2.340   2.380
  2.388   2.415   2.439   2.451   2.483   2.496   2.513   2.524
  2.527   2.583   2.638   2.648   2.666   2.675   2.730   2.784
  2.798   2.843   2.869   2.945   3.055   3.121   3.280   3.328
  3.339   3.490   3.618   3.724   4.142   4.402   4.480   4.579
  4.619   4.765   4.857
 --------------------------------------------------------------
 
          Ground-State Mulliken Net Atomic Charges

     Atom                 Charge (a.u.)    Spin (a.u.)
  --------------------------------------------------------
      1 C                     0.040267      -0.102012
      2 C                    -0.141981       0.006114
      3 C                    -0.119226       0.072744
      4 C                     0.024331      -0.088375
      5 C                    -0.118269      -0.015146
      6 N                    -0.199895       0.070387
      7 H                     0.126641       0.001744
      8 H                     0.137345      -0.000874
      9 H                     0.136985      -0.002460
     10 H                     0.122731       0.001690
     11 H                     0.138408       0.000583
     12 C                    -0.287757       1.102960
     13 H                     0.140419      -0.047355
  --------------------------------------------------------
  Sum of atomic charges =    -0.000000
  Sum of spin   charges =     1.000000

 -----------------------------------------------------------------
                    Cartesian Multipole Moments
 -----------------------------------------------------------------
    Charge (ESU x 10^10)
                 0.0000
    Dipole Moment (Debye)
         X      -1.4462      Y      -1.4998      Z      -0.6227
       Tot       2.1746
    Quadrupole Moments (Debye-Ang)
        XX     -37.8209     XY      -3.7576     YY     -46.0684
        XZ      -0.3206     YZ      -2.4434     ZZ     -40.5832
    Octopole Moments (Debye-Ang^2)
       XXX      -9.1299    XXY      -7.4898    XYY     -13.7297
       YYY     -18.0838    XXZ      -1.1593    XYZ      -1.7170
       YYZ      -0.1179    XZZ      -1.8556    YZZ     -10.2558
       ZZZ      -8.2860
    Hexadecapole Moments (Debye-Ang^3)
      XXXX    -222.1393   XXXY      -5.7877   XXYY     -87.6337
      XYYY     -23.2768   YYYY    -309.0989   XXXZ      -4.4254
      XXYZ       0.5491   XYYZ      -5.5789   YYYZ       7.9332
      XXZZ     -69.2329   XYZZ      -4.1984   YYZZ     -82.6463
      XZZZ      -5.2705   YZZZ      13.6111   ZZZZ    -191.3033
 -----------------------------------------------------------------
 Calculating analytic gradient of the SCF energy
 Gradient of SCF Energy
            1           2           3           4           5           6
    1  -0.0001011  -0.0000231   0.0000881  -0.0000278  -0.0000305  -0.0000951
    2   0.0002675   0.0000361   0.0000387   0.0002336   0.0001054   0.0001778
    3   0.0002929  -0.0001338  -0.0001298   0.0002568   0.0003058   0.0003850
            7           8           9          10          11          12
    1   0.0000586   0.0000607  -0.0000187  -0.0000169  -0.0001348   0.0004959
    2   0.0002146  -0.0000848  -0.0001211   0.0001811   0.0001514   0.0000562
    3  -0.0000388  -0.0001133  -0.0001079  -0.0001045   0.0002475  -0.0023312
           13
    1  -0.0002554
    2  -0.0012564
    3   0.0014713
 Max gradient component =       2.331E-03
 RMS gradient           =       5.156E-04
 Gradient time:  CPU 17.59 s  wall 4.60 s
rPathMan2.  file_steps = 951
 IRC --- Status = 2.  Assess steepest descent step
 IRC --- Previous SD length =   0.007961
 IRC --- Point 1 E =     -286.870401 |G| =   0.002130 G.D1 =  -0.002130
 IRC --- Point 2 E =     -286.870410 |G| =   0.003220 G.D1 =  -0.000110
 IRC --- Angle(G1/G2) =   88.03 Deg.  Curvature =   0.2537
 IRC --- Minimum along SD direction =   0.008396
 IRC --- Corrector step required
 IRC --- equal length displacement: B_eq =   0.011063
 IRC --- chosen bisector length  : B_len =   0.005532
 ----------------------------------------------------------------
             Standard Nuclear Orientation (Angstroms)
    I     Atom           X                Y                Z
 ----------------------------------------------------------------
    1      C       1.2178576961     0.1162540843    -0.0298500961
    2      C       0.6064690020    -0.8799792381     0.9685312089
    3      C      -0.7079789668    -0.9458514160     0.6977943350
    4      C      -0.9620308169     0.0045260497    -0.4917975234
    5      C      -0.5810129082     1.4118152345     0.0364152112
    6      N       0.6632278088     1.5061692213     0.3189184646
    7      H       2.3014424826     0.1358085226    -0.1191202075
    8      H       1.1539062489    -1.3769225642     1.7602730670
    9      H      -1.4776409002    -1.5038828478     1.2172654362
   10      H      -1.9106942891    -0.0895849975    -1.0185041661
   11      H      -1.2774952629     2.2351608525     0.1833006454
   12      C       0.3548186861    -0.2355989407    -1.2189919241
   13      H       0.5832854552    -0.4112610398    -2.2632804436
 ----------------------------------------------------------------
 Nuclear Repulsion Energy =   278.6607756887 hartrees
 There are       25 alpha and       24 beta electrons

                       Distance Matrix (Angstroms)
             C (  1)   C (  2)   C (  3)   C (  4)   C (  5)   N (  6)
   C (  2)  1.537219
   C (  3)  2.316545  1.343656
   C (  4)  2.231097  2.318426  1.543661
   C (  5)  2.217838  2.744317  2.451965  1.550692
   N (  6)  1.536593  2.473646  2.834812  2.356620  1.279393
   H (  7)  1.087432  2.255603  3.300599  3.287306  3.156095  2.180255
   H (  8)  2.331996  1.083280  2.186618  3.384880  3.709271  3.260443
   H (  9)  3.383172  2.189666  1.083341  2.337102  3.271031  3.801415
   H ( 10)  3.287498  3.302899  2.263934  1.089146  2.266078  3.310620
   H ( 11)  3.280547  3.724246  3.272291  2.351809  1.088375  2.077553
   C ( 12)  1.510859  2.294300  2.303924  1.523340  2.272840  2.343937
   H ( 13)  2.381001  3.265707  3.274311  2.387265  3.157182  3.217247
             H (  7)   H (  8)   H (  9)   H ( 10)   H ( 11)   C ( 12)
   H (  8)  2.671575
   H (  9)  4.330818  2.689984
   H ( 10)  4.312979  4.332507  2.680754
   H ( 11)  4.160232  4.630950  3.884532  2.692530
   C ( 12)  2.266496  3.288948  3.301788  2.279049  3.276511
   H ( 13)  2.801566  4.176972  4.189921  2.805865  4.056083  1.083325

 
 Applying Cartesian multipole field
    Component          Value
    ---------          -----
     (2,0,0)        1.00000E-11
     (0,2,0)        2.00000E-11
     (0,0,2)       -3.00000E-11
 Nucleus-field energy     =     0.0000000016 hartrees
 Requested basis set is 6-31+G(d,p)
 There are 53 shells and 163 basis functions
 A cutoff of  1.0D-14 yielded   1410 shell pairs
 There are     13522 function pairs
 Smallest overlap matrix eigenvalue = 2.22E-05
 Guess MOs from core Hamiltonian diagonalization
 Mixing HOMO and LUMO in initial guess
 Adding  50% of the LUMO to the HOMO
 An unrestricted hybrid HF-DFT SCF calculation will be
 performed using Pulay DIIS extrapolation
 Exchange:     0.2000 Hartree-Fock + 0.0800 Slater + 0.7200 B88
 Correlation:  0.1900 VWN1RPA + 0.8100 LYP
 Using SG-1 standard quadrature grid
 SCF converges when DIIS error is below 1.0E-08
 using 4 threads for integral computing
 -------------------------------------------------------
 OpenMP Integral computing Module                
[...]
 
 Alpha MOs
 -- Occupied --
-14.337 -10.235 -10.231 -10.221 -10.216 -10.213 -10.209  -0.964
 -0.832  -0.737  -0.715  -0.588  -0.583  -0.539  -0.520  -0.481
 -0.429  -0.421  -0.391  -0.382  -0.358  -0.304  -0.282  -0.271
 -0.206
 -- Virtual --
 -0.041   0.002   0.003   0.021   0.026   0.032   0.048   0.049
  0.065   0.072   0.075   0.093   0.105   0.106   0.108   0.120
  0.121   0.131   0.138   0.150   0.170   0.171   0.185   0.190
  0.194   0.199   0.204   0.219   0.230   0.234   0.239   0.248
  0.257   0.267   0.280   0.285   0.303   0.324   0.336   0.343
  0.354   0.392   0.421   0.454   0.616   0.670   0.682   0.701
  0.707   0.717   0.728   0.737   0.747   0.764   0.778   0.789
  0.806   0.832   0.859   0.892   0.898   0.951   0.958   0.993
  1.011   1.026   1.053   1.071   1.083   1.106   1.120   1.147
  1.211   1.285   1.309   1.334   1.362   1.406   1.423   1.481
  1.498   1.575   1.622   1.685   1.744   1.755   1.807   1.833
  1.890   1.900   1.970   1.986   2.031   2.047   2.093   2.114
  2.121   2.172   2.215   2.267   2.292   2.323   2.354   2.395
  2.403   2.449   2.453   2.479   2.495   2.512   2.515   2.557
  2.590   2.603   2.627   2.635   2.684   2.743   2.777   2.790
  2.818   2.868   2.915   3.043   3.109   3.285   3.330   3.385
  3.450   3.542   3.716   4.140   4.375   4.472   4.555   4.612
  4.763   4.827
 
 Beta MOs
 -- Occupied --
-14.336 -10.235 -10.231 -10.221 -10.211 -10.208 -10.202  -0.961
 -0.826  -0.735  -0.700  -0.587  -0.570  -0.536  -0.518  -0.472
 -0.425  -0.416  -0.389  -0.379  -0.353  -0.298  -0.273  -0.268
 -- Virtual --
 -0.064  -0.036   0.003   0.004   0.021   0.028   0.033   0.048
  0.050   0.068   0.073   0.076   0.093   0.105   0.107   0.109
  0.120   0.127   0.132   0.140   0.152   0.170   0.171   0.185
  0.191   0.197   0.200   0.207   0.223   0.233   0.238   0.241
  0.251   0.260   0.269   0.280   0.290   0.308   0.327   0.339
  0.345   0.362   0.393   0.422   0.456   0.620   0.683   0.688
  0.710   0.714   0.725   0.732   0.740   0.751   0.769   0.791
  0.795   0.808   0.835   0.861   0.898   0.904   0.953   0.966
  0.998   1.013   1.029   1.058   1.077   1.084   1.108   1.124
  1.150   1.213   1.290   1.312   1.339   1.365   1.409   1.428
  1.486   1.508   1.584   1.629   1.692   1.748   1.761   1.816
  1.842   1.895   1.911   1.973   1.989   2.047   2.055   2.097
  2.125   2.130   2.174   2.222   2.273   2.307   2.325   2.360
  2.397   2.407   2.453   2.456   2.481   2.497   2.515   2.520
  2.564   2.603   2.608   2.636   2.639   2.688   2.746   2.779
  2.795   2.821   2.872   2.917   3.045   3.111   3.286   3.330
  3.393   3.453   3.543   3.717   4.141   4.385   4.476   4.571
  4.620   4.766   4.828
 --------------------------------------------------------------
 
          Ground-State Mulliken Net Atomic Charges

     Atom                 Charge (a.u.)    Spin (a.u.)
  --------------------------------------------------------
      1 C                     0.025580      -0.089747
      2 C                    -0.147939       0.044654
      3 C                    -0.126585       0.092964
      4 C                     0.009633      -0.061659
      5 C                    -0.093402      -0.031754
      6 N                    -0.203398       0.027126
      7 H                     0.129243       0.003504
      8 H                     0.138781       0.000728
      9 H                     0.138283       0.000261
     10 H                     0.124685       0.003383
     11 H                     0.137494      -0.000095
     12 C                    -0.271040       1.037546
     13 H                     0.138665      -0.026912
  --------------------------------------------------------
  Sum of atomic charges =     0.000000
  Sum of spin   charges =     1.000000

 -----------------------------------------------------------------
                    Cartesian Multipole Moments
 -----------------------------------------------------------------
    Charge (ESU x 10^10)
                 0.0000
    Dipole Moment (Debye)
         X      -1.4960      Y      -2.0781      Z      -0.2456
       Tot       2.5723
    Quadrupole Moments (Debye-Ang)
        XX     -37.7410     XY      -4.0427     YY     -45.0343
        XZ      -0.0882     YZ      -1.5384     ZZ     -42.6434
    Octopole Moments (Debye-Ang^2)
       XXX      -9.1488    XXY      -9.0512    XYY     -13.5175
       YYY     -25.8126    XXZ      -0.4371    XYZ      -1.6528
       YYZ      -0.9242    XZZ      -3.3522    YZZ     -13.9252
       ZZZ      -1.3873
    Hexadecapole Moments (Debye-Ang^3)
      XXXX    -221.4034   XXXY      -4.9890   XXYY     -88.0507
      XYYY     -23.7082   YYYY    -318.0761   XXXZ      -4.9980
      XXYZ      -0.6388   XYYZ      -7.5294   YYYZ       4.1219
      XXZZ     -68.9688   XYZZ      -5.5549   YYZZ     -81.0099
      XZZZ      -2.9172   YZZZ      12.8227   ZZZZ    -198.7691
 -----------------------------------------------------------------
 Calculating analytic gradient of the SCF energy
 Gradient of SCF Energy
            1           2           3           4           5           6
    1   0.0000448   0.0006015  -0.0005539   0.0000417  -0.0008603   0.0007551
    2  -0.0000792   0.0001894   0.0001060  -0.0000957   0.0000346   0.0000033
    3   0.0000423   0.0000038  -0.0002596   0.0000068  -0.0000797   0.0002002
            7           8           9          10          11          12
    1  -0.0001078   0.0000215  -0.0001440   0.0000836   0.0000680  -0.0000069
    2  -0.0000485  -0.0000343  -0.0000406  -0.0000246  -0.0000744   0.0000565
    3   0.0000168   0.0002191   0.0002049   0.0000463  -0.0000234  -0.0001685
           13
    1   0.0000566
    2   0.0000075
    3  -0.0002089
 Max gradient component =       8.603E-04
 RMS gradient           =       2.475E-04
 Gradient time:  CPU 17.43 s  wall 4.44 s
rPathMan2.  file_steps = 952
 IRC --- Status = 3.  Assess initial corrector step
 IRC --- bisector search: b =  0.000000 E =     -286.873478 G.B =  -0.000466
 IRC --- bisector search: b =  0.001630 E =     -286.873477 G.B =   0.001379
 IRC --- performed gradient/energy interpolation
 IRC --- bisector search:  estimate b(min) =   4.111670513598723E-004
 ----------------------------------------------------------------
             Standard Nuclear Orientation (Angstroms)
    I     Atom           X                Y                Z
 ----------------------------------------------------------------
    1      C       1.2166836015     0.2028396630    -0.0376716172
    2      C       0.6235190057    -0.8724523811     0.8864219251
    3      C      -0.6905007384    -0.9430811140     0.6064235368
    4      C      -0.9610245548     0.0855493160    -0.5115161178
    5      C      -0.5973364181     1.4577460299     0.0922229248
    6      N       0.6442418533     1.5481578638     0.3802461038
    7      H       2.3006730631     0.2360032305    -0.1240000884
    8      H       1.1773318684    -1.4229608768     1.6383731651
    9      H      -1.4470973490    -1.5592842108     1.0791868492
   10      H      -1.9085000091     0.0044704343    -1.0429680960
   11      H      -1.3030046520     2.2634302269     0.2826261491
   12      C       0.3619780736    -0.1055101149    -1.2604259374
   13      H       0.5471904924    -0.9282551405    -1.9479647933
 ----------------------------------------------------------------
 Nuclear Repulsion Energy =   278.9934253914 hartrees
 There are       25 alpha and       24 beta electrons

                       Distance Matrix (Angstroms)
             C (  1)   C (  2)   C (  3)   C (  4)   C (  5)   N (  6)
   C (  2)  1.536895
   C (  3)  2.316321  1.345376
   C (  4)  2.231748  2.320081  1.543066
   C (  5)  2.209600  2.747920  2.457041  1.542626
   N (  6)  1.520600  2.473054  2.835307  2.347625  1.277751
   H (  7)  1.087927  2.249994  3.297102  3.288081  3.152438  2.172505
   H (  8)  2.335359  1.084066  2.187236  3.386768  3.720013  3.270262
   H (  9)  3.383516  2.190057  1.084274  2.339248  3.286132  3.810304
   H ( 10)  3.288882  3.301918  2.258732  1.089369  2.262702  3.305299
   H ( 11)  3.270696  3.729587  3.280506  2.343241  1.087818  2.076755
   C ( 12)  1.523394  2.294681  2.300948  1.532222  2.278972  2.346507
   H ( 13)  2.318796  2.835963  2.838485  2.316441  3.341453  3.400383
             H (  7)   H (  8)   H (  9)   H ( 10)   H ( 11)   C ( 12)
   H (  8)  2.668336
   H (  9)  4.326257  2.686801
   H ( 10)  4.314539  4.330070  2.676147
   H ( 11)  4.154792  4.645385  3.907482  2.688257
   C ( 12)  2.273023  3.286870  3.295452  2.283518  3.281014
   H ( 13)  2.785147  3.674729  3.679542  2.778383  4.311104  1.088082

 
 Applying Cartesian multipole field
    Component          Value
    ---------          -----
     (2,0,0)        1.00000E-11
     (0,2,0)        2.00000E-11
     (0,0,2)       -3.00000E-11
 Nucleus-field energy     =     0.0000000020 hartrees
 Requested basis set is 6-31+G(d,p)
 There are 53 shells and 163 basis functions
 A cutoff of  1.0D-14 yielded   1410 shell pairs
 There are     13528 function pairs
 Smallest overlap matrix eigenvalue = 2.22E-05
 Guess MOs from core Hamiltonian diagonalization
 Mixing HOMO and LUMO in initial guess
 Adding  50% of the LUMO to the HOMO
 An unrestricted hybrid HF-DFT SCF calculation will be
 performed using Pulay DIIS extrapolation
 Exchange:     0.2000 Hartree-Fock + 0.0800 Slater + 0.7200 B88
 Correlation:  0.1900 VWN1RPA + 0.8100 LYP
 Using SG-1 standard quadrature grid
 SCF converges when DIIS error is below 1.0E-08
 using 4 threads for integral computing
 -------------------------------------------------------
 OpenMP Integral computing Module                
 Release: version 1.0, May 2013, Q-Chem Inc. Pittsburgh 
 -------------------------------------------------------
 -------------------------------------------------------
 OpenMP BLAS3 based DFT computing Module                
 Release: version 1.0, May 2013, Q-Chem Inc. Pittsburgh 
 -------------------------------------------------------
 ---------------------------------------
  Cycle       Energy         DIIS Error
 ---------------------------------------
    1    -234.6914484436      1.00E-01
    2    -215.2969876283      7.14E-02
    3    -253.7832255515      7.78E-02
    4    -280.8641888847      3.80E-02
    5    -279.8023234642      3.56E-02
    6    -286.0869340638      1.37E-02
    7    -286.2246336349      1.30E-02
    8    -286.7791299363      5.25E-03
    9    -286.8462247204      2.96E-03
   10    -286.8705868650      9.39E-04
   11    -286.8731266519      3.10E-04
   12    -286.8734637156      4.96E-05
   13    -286.8734758969      1.54E-05
   14    -286.8734773453      6.04E-06
   15    -286.8734778447      2.04E-06
   16    -286.8734780700      4.53E-07
   17    -286.8734781305      2.05E-07
   18    -286.8734781467      1.06E-07
   19    -286.8734781576      4.49E-08
   20    -286.8734781686      1.88E-08
   21    -286.8734781705      5.59E-09 Convergence criterion met
 ---------------------------------------
 <S^2> = 0.7539
 SCF time:  CPU 106.57 s  wall 30.65 s
 SCF   energy in the final basis set = -286.87347817
 Total energy in the final basis set = -286.87347817
 
 --------------------------------------------------------------
 
                    Orbital Energies (a.u.)
 --------------------------------------------------------------
 
 Alpha MOs
 -- Occupied --
-14.337 -10.235 -10.231 -10.221 -10.216 -10.213 -10.209  -0.965
 -0.832  -0.737  -0.715  -0.588  -0.583  -0.539  -0.520  -0.481
 -0.429  -0.421  -0.391  -0.382  -0.358  -0.305  -0.283  -0.271
 -0.206
 -- Virtual --
 -0.041   0.002   0.003   0.021   0.026   0.032   0.048   0.049
  0.065   0.072   0.075   0.093   0.105   0.106   0.108   0.120
  0.121   0.131   0.138   0.150   0.170   0.171   0.185   0.190
  0.194   0.199   0.204   0.219   0.230   0.234   0.239   0.248
  0.257   0.267   0.280   0.285   0.303   0.325   0.336   0.343
  0.354   0.392   0.421   0.454   0.616   0.670   0.682   0.701
  0.707   0.717   0.728   0.737   0.747   0.764   0.778   0.789
  0.806   0.832   0.859   0.892   0.898   0.951   0.958   0.993
  1.011   1.026   1.053   1.071   1.083   1.106   1.120   1.147
  1.211   1.285   1.309   1.334   1.362   1.406   1.424   1.481
  1.498   1.575   1.622   1.685   1.744   1.755   1.807   1.833
  1.890   1.900   1.970   1.986   2.031   2.048   2.093   2.114
  2.122   2.172   2.216   2.267   2.292   2.323   2.354   2.395
  2.403   2.449   2.453   2.479   2.495   2.512   2.515   2.557
  2.590   2.603   2.627   2.635   2.685   2.743   2.777   2.790
  2.818   2.868   2.915   3.044   3.110   3.285   3.330   3.385
  3.450   3.542   3.716   4.140   4.375   4.473   4.556   4.612
  4.763   4.827
 
 Beta MOs
 -- Occupied --
-14.336 -10.235 -10.231 -10.221 -10.211 -10.208 -10.202  -0.961
 -0.826  -0.735  -0.700  -0.587  -0.570  -0.536  -0.518  -0.472
 -0.425  -0.417  -0.389  -0.379  -0.352  -0.298  -0.273  -0.268
 -- Virtual --
 -0.064  -0.036   0.003   0.004   0.021   0.028   0.033   0.048
  0.050   0.068   0.073   0.076   0.093   0.105   0.107   0.109
  0.120   0.127   0.132   0.140   0.152   0.170   0.171   0.185
  0.191   0.197   0.200   0.207   0.223   0.233   0.238   0.241
  0.251   0.260   0.269   0.280   0.290   0.308   0.327   0.339
  0.345   0.362   0.393   0.422   0.456   0.620   0.683   0.688
  0.710   0.714   0.725   0.732   0.740   0.751   0.769   0.791
  0.795   0.808   0.835   0.861   0.898   0.904   0.953   0.966
  0.998   1.013   1.029   1.058   1.077   1.084   1.108   1.124
  1.150   1.213   1.290   1.312   1.339   1.365   1.409   1.428
  1.486   1.508   1.584   1.629   1.692   1.748   1.761   1.816
  1.842   1.895   1.911   1.973   1.989   2.047   2.055   2.097
  2.125   2.130   2.174   2.222   2.273   2.307   2.325   2.360
  2.397   2.406   2.453   2.457   2.481   2.497   2.515   2.521
  2.564   2.603   2.608   2.636   2.639   2.688   2.746   2.780
  2.795   2.821   2.872   2.917   3.045   3.112   3.286   3.330
  3.393   3.453   3.543   3.717   4.142   4.385   4.476   4.571
  4.620   4.766   4.828
 --------------------------------------------------------------
 
          Ground-State Mulliken Net Atomic Charges

     Atom                 Charge (a.u.)    Spin (a.u.)
  --------------------------------------------------------
      1 C                     0.025465      -0.089748
      2 C                    -0.147926       0.044704
      3 C                    -0.126470       0.092895
      4 C                     0.009471      -0.061668
      5 C                    -0.093182      -0.031692
      6 N                    -0.203392       0.027047
      7 H                     0.129239       0.003503
      8 H                     0.138763       0.000719
      9 H                     0.138263       0.000253
     10 H                     0.124664       0.003381
     11 H                     0.137433      -0.000098
     12 C                    -0.270990       1.037621
     13 H                     0.138662      -0.026916
  --------------------------------------------------------
  Sum of atomic charges =    -0.000000
  Sum of spin   charges =     1.000000

 -----------------------------------------------------------------
                    Cartesian Multipole Moments
 -----------------------------------------------------------------
    Charge (ESU x 10^10)
                -0.0000
    Dipole Moment (Debye)
         X      -1.4949      Y      -2.0780      Z      -0.2455
       Tot       2.5716
    Quadrupole Moments (Debye-Ang)
        XX     -37.7414     XY      -4.0402     YY     -45.0331
        XZ      -0.0886     YZ      -1.5380     ZZ     -42.6412
    Octopole Moments (Debye-Ang^2)
       XXX      -9.1451    XXY      -9.0514    XYY     -13.5106
       YYY     -25.8117    XXZ      -0.4367    XYZ      -1.6521
       YYZ      -0.9269    XZZ      -3.3519    YZZ     -13.9216
       ZZZ      -1.3857
    Hexadecapole Moments (Debye-Ang^3)
      XXXX    -221.3603   XXXY      -4.9803   XXYY     -88.0469
      XYYY     -23.6905   YYYY    -318.0744   XXXZ      -4.9908
      XXYZ      -0.6364   XYYZ      -7.5249   YYYZ       4.1258
      XXZZ     -68.9626   XYZZ      -5.5525   YYZZ     -81.0102
      XZZZ      -2.9115   YZZZ      12.8305   ZZZZ    -198.7702
 -----------------------------------------------------------------
 Calculating analytic gradient of the SCF energy
 Gradient of SCF Energy
            1           2           3           4           5           6
    1   0.0000139   0.0000558  -0.0000333   0.0000027   0.0000514  -0.0000387
    2  -0.0000263   0.0000886   0.0000540  -0.0000389  -0.0000141  -0.0000187
    3   0.0000071  -0.0000439  -0.0000731  -0.0000136   0.0000852   0.0000291
            7           8           9          10          11          12
    1  -0.0000422   0.0000254  -0.0001427   0.0000589  -0.0000295   0.0000258
    2  -0.0000567  -0.0000205  -0.0000216  -0.0000347   0.0000211   0.0000676
    3  -0.0000000   0.0002049   0.0001885   0.0000194  -0.0000076  -0.0001810
           13
    1   0.0000527
    2   0.0000004
    3  -0.0002150
 Max gradient component =       2.150E-04
 RMS gradient           =       7.771E-05
 Gradient time:  CPU 17.34 s  wall 4.43 s
rPathMan2.  file_steps = 952
 IRC --- Status = 4.  Checking bisector search.
 IRC --- Bisector search finished successfully.
 ------------------------------------------------------------------------
 Reaction path following.  The coordinates are cartesian              
 Step  41 E=    -286.873478 |G|=  0.000485 S_lin= 1.1935 S_tot= 1.2527
 ------------------------------------------------------------------------
  IRC -- convergence criterion reached.
 ----------------------------------------------------------------
             Standard Nuclear Orientation (Angstroms)
    I     Atom           X                Y                Z
 ----------------------------------------------------------------
    1      C       1.2179149434     0.1247694157    -0.0301907497
    2      C       0.6084177021    -0.8814384173     0.9592241678
    3      C      -0.7058703275    -0.9479663074     0.6877230016
    4      C      -0.9620341025     0.0121806728    -0.4937019328
    5      C      -0.5832635571     1.4158531267     0.0461801660
    6      N       0.6603167127     1.5098625044     0.3312483434
    7      H       2.3015806614     0.1451485149    -0.1192448897
    8      H       1.1548541111    -1.3789023180     1.7516600165
    9      H      -1.4749383105    -1.5064084993     1.2081794482
   10      H      -1.9104884951    -0.0808782790    -1.0210528782
   11      H      -1.2807257797     2.2379662972     0.1934312263
   12      C       0.3552925298    -0.2065778260    -1.2257351744
   13      H       0.5830981467    -0.4769559645    -2.2467667382
 ----------------------------------------------------------------
 Nuclear Repulsion Energy =   278.6746634156 hartrees
 There are       25 alpha and       24 beta electrons
 Here is where we should summarize the reaction path
Archival summary:
1\1\c8-72\JobtypUnspecified\ProcedureUnspecified\6-31+G**\166(2)\hpark21\WedMar221:21:592022WedMar221:21:592022\0\\#,JobtypUnspecified,ProcedureUnspecified,6-31+G**,\\0,2\N\C,1,1.27929\H,2,1.08812,1,122.507\C,1,1.53624,2,103.541,3,179.58,0\H,4,1.08751,1,111.349,2,163.133,0\C,4,1.51104,1,100.175,2,34.4882,0\H,6,1.08051,4,133.013,1,124.144,0\C,6,1.52285,4,94.7036,1,-54.3973,0\H,8,1.08919,6,120.548,4,177.166,0\C,4,1.53717,1,107.147,2,-67.257,0\H,10,1.08352,4,124.842,1,-109.09,0\C,10,1.34369,4,106.869,1,67.6045,0\H,12,1.0836,10,128.511,4,-176.261,0\\\@

 Total job time:  11855.95s(wall), 39729.67s(cpu) 
 Wed Mar  2 21:21:59 2022

        *************************************************************
        *                                                           *
        *  Thank you very much for using Q-Chem.  Have a nice day.  *
        *                                                           *
        *************************************************************


