
Running Job 1 of 1 qcts1.in
qchem qcts1.in_61522.0 ./qcts1.d/ 1
/home/leeping/opt/qchem/5.0.2-openmp/exe/qcprog.exe_s qcts1.in_61522.0 ./qcts1.d/
Check license passed

                  Welcome to Q-Chem
     A Quantum Leap Into The Future Of Chemistry


 Q-Chem 5.0, Q-Chem, Inc., Pleasanton, CA (2017)

 Yihan Shao,  Zhengting Gan,  E. Epifanovsky,  A. T. B. Gilbert,  M. Wormit,  
 J. Kussmann,  A. W. Lange,  A. Behn,  Jia Deng,  Xintian Feng,  D. Ghosh,  
 M. Goldey,  P. R. Horn,  L. D. Jacobson,  I. Kaliman,  T. Kus,  A. Landau,  
 Jie Liu,  E. I. Proynov,  R. M. Richard,  R. P. Steele,  E. J. Sundstrom,  
 H. L. Woodcock III,  P. M. Zimmerman,  D. Zuev,  B. Albrecht,  E. Alguire,  
 S. A. Baeppler,  D. Barton,  Z. Benda,  Y. A. Bernard,  E. J. Berquist,  
 K. B. Bravaya,  H. Burton,  D. Casanova,  Chun-Min Chang,  Yunqing Chen,  
 A. Chien,  K. D. Closser,  M. P. Coons,  S. Dasgupta,  A. L. Dempwolff,  
 M. Diedenhofen,  Hainam Do,  R. G. Edgar,  Po-Tung Fang,  S. Fatehi,  
 Qingguo Feng,  J. Fosso-Tande,  Qinghui Ge,  A. Ghysels,  G. Gidofalvi,  
 J. Gomes,  J. Gonthier,  A. Gunina,  M. W. D. Hanson-Heine,  
 P. H. P. Harbach,  A. W. Hauser,  J. E. Herr,  E. G. Hohenstein,  
 Z. C. Holden,  Kerwin Hui,  T.-C. Jagau,  Hyunjun Ji,  B. Kaduk,  
 K. Khistyaev,  Jaehoon Kim,  P. Klunzinger,  K. Koh,  D. Kosenkov,  
 L. Koulias,  T. Kowalczyk,  C. M. Krauter,  A. Kunitsa,  Ka Un Lao,  
 A. Laurent,  K. V. Lawler,  Joonho Lee,  D. Lefrancois,  S. Lehtola,  
 D. S. Levine,  Yi-Pei Li,  You-Sheng Lin,  Fenglai Liu,  E. Livshits,  
 A. Luenser,  P. Manohar,  E. Mansoor,  S. F. Manzer,  Shan-Ping Mao,  
 Yuezhi Mao,  N. Mardirossian,  A. V. Marenich,  T. Markovich,  
 L. A. Martinez-Martinez,  S. A. Maurer,  N. J. Mayhall,  S. C. McKenzie,  
 J.-M. Mewes,  A. F. Morrison,  J. W. Mullinax,  K. Nanda,  
 T. S. Nguyen-Beck,  R. Olivares-Amaya,  J. A. Parkhill,  T. M. Perrine,  
 F. Plasser,  S. Prager,  A. Prociuk,  E. Ramos,  D. R. Rehn,  F. Rob,  
 M. Schneider,  N. Sergueev,  S. M. Sharada,  S. Sharma,  D. W. Small,  
 T. Stauch,  T. Stein,  Yu-Chuan Su,  A. J. W. Thom,  A. Tkatchenko,  
 T. Tsuchimochi,  L. Vogt,  O. Vydrov,  M. A. Watson,  J. Wenzel,  
 M. de Wergifosse,  T. A. Wesolowski,  A. White,  J. Witte,  A. Yamada,  
 Jun Yang,  K. Yao,  S. Yeganeh,  S. R. Yost,  Zhi-Qiang You,  A. Zech,  
 Igor Ying Zhang,  Xing Zhang,  Yan Zhao,  Ying Zhu,  B. R. Brooks,  
 G. K. L. Chan,  C. J. Cramer,  M. S. Gordon,  W. J. Hehre,  A. Klamt,  
 M. W. Schmidt,  C. D. Sherrill,  D. G. Truhlar,  A. Aspuru-Guzik,  R. Baer,  
 A. T. Bell,  N. A. Besley,  Jeng-Da Chai,  R. A. DiStasio Jr.,  A. Dreuw,  
 B. D. Dunietz,  T. R. Furlani,  Chao-Ping Hsu,  Yousung Jung,  Jing Kong,  
 D. S. Lambrecht,  WanZhen Liang,  C. Ochsenfeld,  V. A. Rassolov,  
 L. V. Slipchenko,  J. E. Subotnik,  T. Van Voorhis,  J. M. Herbert,  
 A. I. Krylov,  P. M. W. Gill,  M. Head-Gordon

 Contributors to earlier versions of Q-Chem not listed above: 
 R. D. Adamson,  B. Austin,  J. Baker,  G. J. O. Beran,  K. Brandhorst,  
 S. T. Brown,  E. F. C. Byrd,  A. K. Chakraborty,  C.-L. Cheng,  
 Siu Hung Chien,  D. M. Chipman,  D. L. Crittenden,  H. Dachsel,  
 R. J. Doerksen,  A. D. Dutoi,  L. Fusti-Molnar,  W. A. Goddard III,  
 A. Golubeva-Zadorozhnaya,  S. R. Gwaltney,  G. Hawkins,  A. Heyden,  
 S. Hirata,  G. Kedziora,  F. J. Keil,  C. Kelley,  Jihan Kim,  R. A. King,  
 R. Z. Khaliullin,  P. P. Korambath,  W. Kurlancheek,  A. M. Lee,  M. S. Lee,  
 S. V. Levchenko,  Ching Yeh Lin,  D. Liotard,  R. C. Lochan,  I. Lotan,  
 P. E. Maslen,  N. Nair,  D. P. O'Neill,  D. Neuhauser,  E. Neuscamman,  
 C. M. Oana,  R. Olson,  B. Peters,  R. Peverati,  P. A. Pieniazek,  
 Y. M. Rhee,  J. Ritchie,  M. A. Rohrdanz,  E. Rosta,  N. J. Russ,  
 H. F. Schaefer III,  N. E. Schultz,  N. Shenvi,  A. C. Simmonett,  A. Sodt,  
 D. Stuck,  K. S. Thanthiriwatte,  V. Vanovschi,  Tao Wang,  A. Warshel,  
 C. F. Williams,  Q. Wu,  X. Xu,  W. Zhang

 Please cite Q-Chem as follows:
 Y. Shao et al., Mol. Phys. 113, 184-215 (2015)
 DOI: 10.1080/00268976.2014.952696

 Q-Chem 5.0.2 for Intel X86 EM64T Linux

 Parts of Q-Chem use Armadillo 5.200.1 (Boston Tea Smuggler).
 http://arma.sourceforge.net/

 Q-Chem begins on Wed Mar  2 17:17:44 2022  

Host: 
0

     Scratch files written to ./qcts1.d//
 Dec517 15110_ 26548  26544 5633   
Processing $rem in /home/leeping/opt/qchem/5.0.2-openmp/config/preferences.
 MEM_STATIC 2000
 MEM_TOTAL  8000
 SYMMETRY   OFF
 SYM_IGNORE TRUE 

Checking the input file for inconsistencies... 	...done.

--------------------------------------------------------------
User input:
--------------------------------------------------------------
$molecule
0 2
C        1.2122158044    0.2649230617    0.0565675483
C        0.6273534282   -1.0108918962    0.8829546424
C       -0.7078680637   -0.9428386213    0.7335138050
C       -1.0651254134    0.0836865077   -0.3333201865
C       -0.6071253169    1.4886695346   -0.0532485272
N        0.6106758825    1.6199895617    0.3381730558
H        2.2730599751    0.4828779523   -0.1324635043
H        1.0959365337   -1.8930228118    1.3391524051
H       -1.4414861525   -1.6340444837    1.1585232511
H       -2.1576898381    0.0933939779   -0.5184747108
H       -1.2434754182    2.3253110707   -0.3207439869
C        0.4209734629   -0.1939470392   -1.1534230703
H        0.9467093510   -0.7174538942   -1.9562567150
$end

$rem
method                b3lyp
basis                 6-31g(d)
unrestricted          true
symmetry              off
sym_ignore            true
incdft                false
incfock               0
scf_convergence       6
thresh                14
jobtype               sp
scf_guess             read
scf_algorithm         diis
max_scf_cycles        100
stability_analysis    true
max_cis_cycles        100
cis_n_roots           4
$end

--------------------------------------------------------------
 ----------------------------------------------------------------
             Standard Nuclear Orientation (Angstroms)
    I     Atom           X                Y                Z
 ----------------------------------------------------------------
    1      C       1.2122158044     0.2649230617     0.0565675483
    2      C       0.6273534282    -1.0108918962     0.8829546424
    3      C      -0.7078680637    -0.9428386213     0.7335138050
    4      C      -1.0651254134     0.0836865077    -0.3333201865
    5      C      -0.6071253169     1.4886695346    -0.0532485272
    6      N       0.6106758825     1.6199895617     0.3381730558
    7      H       2.2730599751     0.4828779523    -0.1324635043
    8      H       1.0959365337    -1.8930228118     1.3391524051
    9      H      -1.4414861525    -1.6340444837     1.1585232511
   10      H      -2.1576898381     0.0933939779    -0.5184747108
   11      H      -1.2434754182     2.3253110707    -0.3207439869
   12      C       0.4209734629    -0.1939470392    -1.1534230703
   13      H       0.9467093510    -0.7174538942    -1.9562567150
 ----------------------------------------------------------------
 Nuclear Repulsion Energy =   274.6732928316 hartrees
 There are       25 alpha and       24 beta electrons
 Requested basis set is 6-31G(d)
 There are 40 shells and 117 basis functions

 Total QAlloc Memory Limit   8000 MB
 Mega-Array Size      1956 MB
 MEM_STATIC part      2000 MB

                       Distance Matrix (Angstroms)
             C (  1)   C (  2)   C (  3)   C (  4)   C (  5)   N (  6)
   C (  2)  1.628706
   C (  3)  2.367206  1.345281
   C (  4)  2.317572  2.354126  1.522998
   C (  5)  2.195363  2.940786  2.557611  1.504055
   N (  6)  1.509092  2.686746  2.909113  2.370536  1.285883
   H (  7)  1.099376  2.443516  3.415921  3.367964  3.051780  2.068343
   H (  8)  2.513021  1.098108  2.126819  3.372645  4.034234  3.684928
   H (  9)  3.444201  2.178154  1.093889  2.306045  3.451940  3.933584
   H ( 10)  3.422917  3.307555  2.177897  1.108185  2.137166  3.275391
   H ( 11)  3.227690  4.009880  3.475505  2.248744  1.084649  2.090341
   C ( 12)  1.516807  2.203821  2.322854  1.719924  2.258001  2.356101
   H ( 13)  2.255442  2.872145  3.165958  2.706146  3.301942  3.292563
             H (  7)   H (  8)   H (  9)   H ( 10)   H ( 11)   C ( 12)
   H (  8)  3.032520
   H (  9)  4.466079  2.556992
   H ( 10)  4.464554  4.240603  2.511835
   H ( 11)  3.974422  5.101220  4.231304  2.419987
   C ( 12)  2.220512  3.091176  3.299656  2.671185  3.132157
   H ( 13)  2.554648  3.501993  4.030567  3.515962  4.090260  1.093160

 
 A cutoff of  1.0D-14 yielded    811 shell pairs
 There are      7083 function pairs
 Smallest overlap matrix eigenvalue = 1.39E-03

 Scale SEOQF with 1.000000e-01/1.000000e-01/1.000000e-01

 Standard Electronic Orientation quadrupole field applied
 Nucleus-field energy     =     0.0000000029 hartrees
 Guess MOs from SCF MO coefficient file
 Reading MOs from coefficient file
 Reading MOs from coefficient file
 An unrestricted hybrid HF-DFT SCF calculation will be
 performed using Pulay DIIS extrapolation
 Exchange:     0.2000 Hartree-Fock + 0.0800 Slater + 0.7200 B88
 Correlation:  0.1900 VWN1RPA + 0.8100 LYP
 Using SG-1 standard quadrature grid
 SCF converges when DIIS error is below 1.0E-06
Using Q-Chem read-in guess as SCF_GUESS READ specified.

 -------------------------------------------------------
 OpenMP BLAS3 based DFT computing Module                
 -------------------------------------------------------
 ---------------------------------------
  Cycle       Energy         DIIS Error
 ---------------------------------------
    1    -286.7846425327      1.22E-09
    2    -286.7846425327      1.24E-09 Convergence criterion met
 ---------------------------------------
 <S^2> = 0.7604
 SCF time:  CPU 3.39 s  wall 4.45 s
 SCF   energy in the final basis set = -286.78464253
 Total energy in the final basis set = -286.78464253
 
 Direct TDDFT/TDA calculation will be performed
 Exchange:     0.2000 Hartree-Fock + 0.0800 Slater + 0.7200 B88
 Correlation:  0.1900 VWN1RPA + 0.8100 LYP
 Using SG-1 standard quadrature grid
 CIS energy converged when residual is below 10e- 6
 ---------------------------------------------------
 Iter    Rts Conv    Rts Left    Ttl Dev     Max Dev
 ---------------------------------------------------
   1         0           4      0.005042    0.001864
   2         0           4      0.002236    0.000804
   3         0           4      0.001493    0.000724
   4         0           4      0.000710    0.000291
   5         0           4      0.000345    0.000197
   6         0           4      0.000126    0.000081
   7         0           4      0.000040    0.000028
   8         2           2      0.000014    0.000011
   9         3           1      0.000004    0.000003
  10         4           0      0.000002    0.000001    Roots Converged
 ---------------------------------------------------
 
 ---------------------------------------------------
         TDDFT/TDA Excitation Energies              
 ---------------------------------------------------

 Excited state   1: excitation energy (eV) =    2.5168
 Total energy for state  1:                  -286.69215232 au
    <S**2>     :  0.8713
    Trans. Mom.:  0.1077 X  -0.0914 Y  -0.1041 Z
    Strength   :     0.0018989498
    S(  1) --> V(  1) amplitude =  0.9640 alpha
    S(  1) --> V(  2) amplitude = -0.1668 alpha

 Excited state   2: excitation energy (eV) =    3.2275
 Total energy for state  2:                  -286.66603256 au
    <S**2>     :  1.1499
    Trans. Mom.: -0.1133 X  -0.1000 Y   0.0243 Z
    Strength   :     0.0018522480
    S(  1) --> V(  1) amplitude =  0.1914 alpha
    S(  1) --> V(  2) amplitude =  0.9031 alpha
    D( 24) --> S(  1) amplitude =  0.1666 beta

 Excited state   3: excitation energy (eV) =    3.9820
 Total energy for state  3:                  -286.63830618 au
    <S**2>     :  2.5727
    Trans. Mom.:  0.0349 X   0.0411 Y  -0.0287 Z
    Strength   :     0.0003643481
    D( 24) --> V(  1) amplitude = -0.5772 alpha
    D( 24) --> V(  2) amplitude = -0.2811 alpha
    D( 23) --> S(  1) amplitude = -0.2882 beta
    D( 23) --> V(  1) amplitude =  0.2135 beta
    D( 24) --> S(  1) amplitude =  0.4177 beta
    D( 24) --> V(  1) amplitude = -0.3643 beta
    D( 24) --> V(  2) amplitude = -0.1513 beta

 Excited state   4: excitation energy (eV) =    4.4866
 Total energy for state  4:                  -286.61976430 au
    <S**2>     :  2.2572
    Trans. Mom.:  0.1073 X   0.1424 Y  -0.0855 Z
    Strength   :     0.0042977685
    D( 22) --> V(  1) amplitude =  0.2168 alpha
    D( 22) --> V(  2) amplitude =  0.1542 alpha
    D( 23) --> V(  1) amplitude =  0.4616 alpha
    S(  1) --> V(  2) amplitude = -0.2024 alpha
    D( 22) --> S(  1) amplitude =  0.2457 beta
    D( 22) --> V(  1) amplitude = -0.1893 beta
    D( 23) --> S(  1) amplitude =  0.5613 beta
    D( 23) --> V(  1) amplitude = -0.3076 beta
    D( 24) --> S(  1) amplitude =  0.2667 beta
 
 ---------------------------------------------------

 Stability analysis will be performed
 ---------------------------------------------------
 Iter    Rts Conv    Rts Left    Ttl Dev     Max Dev
 ---------------------------------------------------
   1         0           8      0.005828    0.000852
   2         0           8      0.003010    0.000717
   3         0           8      0.001731    0.000534
   4         1           7      0.000919    0.000338
   5         2           6      0.000393    0.000153
   6         2           6      0.000169    0.000080
   7         2           6      0.000056    0.000031
   8         5           3      0.000022    0.000014
   9         7           1      0.000008    0.000004
  10         7           1      0.000005    0.000001
  11         8           0      0.000003    0.000001    Roots Converged
 UKS-> UKS   stable,    smallest eigenvalue:      0.0745005
 UKS->CUKS   stable,    smallest eigenvalue:      0.0938115
 ---------------------------------------------------
  SETman timing summary (seconds)
  CPU time                87.28s
  System time              0.00s
  Wall time               91.79s
 
 --------------------------------------------------------------
 
                    Orbital Energies (a.u.)
 --------------------------------------------------------------
 
 Alpha MOs
 -- Occupied --
-14.320 -10.229 -10.226 -10.224 -10.212 -10.208 -10.199  -0.943
 -0.815  -0.729  -0.693  -0.592  -0.571  -0.533  -0.490  -0.463
 -0.422  -0.411  -0.381  -0.368  -0.334  -0.296  -0.266  -0.252
 -0.169
 -- Virtual --
 -0.021   0.003   0.081   0.088   0.119   0.145   0.155   0.168
  0.174   0.203   0.223   0.253   0.292   0.301   0.359   0.365
  0.493   0.504   0.529   0.548   0.564   0.594   0.598   0.621
  0.642   0.643   0.663   0.672   0.689   0.723   0.776   0.798
  0.799   0.824   0.829   0.850   0.866   0.895   0.904   0.924
  0.955   1.015   1.041   1.104   1.159   1.187   1.244   1.297
  1.404   1.423   1.462   1.513   1.550   1.597   1.661   1.684
  1.750   1.796   1.805   1.884   1.946   1.964   1.987   2.036
  2.082   2.098   2.133   2.205   2.216   2.269   2.297   2.335
  2.394   2.415   2.446   2.533   2.569   2.593   2.635   2.666
  2.689   2.778   2.837   2.913   2.954   3.893   4.159   4.234
  4.261   4.350   4.485   4.641
 
 Beta MOs
 -- Occupied --
-14.318 -10.229 -10.227 -10.224 -10.208 -10.198 -10.196  -0.939
 -0.809  -0.728  -0.679  -0.588  -0.559  -0.529  -0.488  -0.455
 -0.419  -0.407  -0.380  -0.364  -0.329  -0.286  -0.254  -0.247
 -- Virtual --
 -0.028  -0.007   0.008   0.084   0.100   0.120   0.146   0.157
  0.169   0.175   0.211   0.226   0.259   0.295   0.304   0.361
  0.368   0.499   0.508   0.537   0.563   0.575   0.596   0.601
  0.634   0.645   0.652   0.668   0.684   0.694   0.729   0.777
  0.802   0.803   0.827   0.830   0.853   0.870   0.898   0.908
  0.930   0.961   1.023   1.049   1.106   1.162   1.196   1.246
  1.303   1.411   1.427   1.469   1.522   1.555   1.601   1.665
  1.696   1.758   1.807   1.815   1.897   1.949   1.969   2.014
  2.049   2.090   2.102   2.138   2.212   2.230   2.272   2.301
  2.353   2.404   2.426   2.451   2.538   2.578   2.595   2.638
  2.677   2.694   2.779   2.839   2.915   2.956   3.895   4.164
  4.246   4.274   4.352   4.493   4.642
 --------------------------------------------------------------
 
          Ground-State Mulliken Net Atomic Charges

     Atom                 Charge (a.u.)    Spin (a.u.)
  --------------------------------------------------------
      1 C                    -0.082001      -0.049406
      2 C                    -0.097196      -0.040715
      3 C                    -0.087062       0.161700
      4 C                    -0.224935      -0.069813
      5 C                     0.103396      -0.022519
      6 N                    -0.339322       0.054971
      7 H                     0.151532       0.003305
      8 H                     0.146797       0.003964
      9 H                     0.148400      -0.008288
     10 H                     0.134689       0.002229
     11 H                     0.149041       0.001295
     12 C                    -0.155197       1.013036
     13 H                     0.151859      -0.049760
  --------------------------------------------------------
  Sum of atomic charges =     0.000000
  Sum of spin   charges =     1.000000

 -----------------------------------------------------------------
                    Cartesian Multipole Moments
 -----------------------------------------------------------------
    Charge (ESU x 10^10)
                 0.0000
    Dipole Moment (Debye)
         X      -1.2015      Y      -1.9740      Z      -0.6463
       Tot       2.3995
    Quadrupole Moments (Debye-Ang)
        XX     -36.5607     XY      -3.7289     YY     -42.8847
        XZ      -1.2515     YZ      -2.6642     ZZ     -41.9303
    Octopole Moments (Debye-Ang^2)
       XXX      -8.6743    XXY      -7.4246    XYY     -10.3238
       YYY     -27.8018    XXZ      -3.3578    XYZ       0.4801
       YYZ      -2.4414    XZZ      -0.8918    YZZ     -10.5885
       ZZZ      -8.3173
    Hexadecapole Moments (Debye-Ang^3)
      XXXX    -223.7784   XXXY       0.0587   XXYY     -89.2144
      XYYY     -21.1717   YYYY    -319.7725   XXXZ      -4.5614
      XXYZ       2.6719   XYYZ      -1.5810   YYYZ       5.3631
      XXZZ     -66.1936   XYZZ      -3.3981   YYZZ     -77.4220
      XZZZ      -6.0334   YZZZ      23.4005   ZZZZ    -168.1945
 -----------------------------------------------------------------
Archival summary:
1\1\c8-72\SP\ProcedureUnspecified\6-31G*\166(2)\hpark21\WedMar217:19:212022WedMar217:19:212022\0\\#,ProcedureUnspecified,6-31G*,\\0,2\N\C,1,1.28588\H,2,1.08465,1,123.499\C,2,1.50406,1,116.134,3,170.825,0\H,4,1.10818,2,108.853,1,172,0\C,1,1.50909,2,103.238,3,-158.273,0\H,6,1.09938,1,103.81,2,151.042,0\C,6,1.51681,1,102.273,2,30.8697,0\H,8,1.09316,6,118.676,1,140.004,0\C,4,1.523,2,115.325,1,46.8527,0\H,10,1.09389,4,122.734,2,130.205,0\C,10,1.34528,4,110.165,2,-60.0874,0\H,12,1.09811,10,120.685,4,-159.599,0\\\@

 Total job time:  97.43s(wall), 90.86s(cpu) 
 Wed Mar  2 17:19:21 2022

        *************************************************************
        *                                                           *
        *  Thank you very much for using Q-Chem.  Have a nice day.  *
        *                                                           *
        *************************************************************


