
Running Job 1 of 1 qcts1.in
qchem qcts1.in_61583.0 ./qcts1.d/ 1
/home/leeping/opt/qchem/5.0.2-openmp/exe/qcprog.exe_s qcts1.in_61583.0 ./qcts1.d/
Check license passed

                  Welcome to Q-Chem
     A Quantum Leap Into The Future Of Chemistry


 Q-Chem 5.0, Q-Chem, Inc., Pleasanton, CA (2017)

 Yihan Shao,  Zhengting Gan,  E. Epifanovsky,  A. T. B. Gilbert,  M. Wormit,  
 J. Kussmann,  A. W. Lange,  A. Behn,  Jia Deng,  Xintian Feng,  D. Ghosh,  
 M. Goldey,  P. R. Horn,  L. D. Jacobson,  I. Kaliman,  T. Kus,  A. Landau,  
 Jie Liu,  E. I. Proynov,  R. M. Richard,  R. P. Steele,  E. J. Sundstrom,  
 H. L. Woodcock III,  P. M. Zimmerman,  D. Zuev,  B. Albrecht,  E. Alguire,  
 S. A. Baeppler,  D. Barton,  Z. Benda,  Y. A. Bernard,  E. J. Berquist,  
 K. B. Bravaya,  H. Burton,  D. Casanova,  Chun-Min Chang,  Yunqing Chen,  
 A. Chien,  K. D. Closser,  M. P. Coons,  S. Dasgupta,  A. L. Dempwolff,  
 M. Diedenhofen,  Hainam Do,  R. G. Edgar,  Po-Tung Fang,  S. Fatehi,  
 Qingguo Feng,  J. Fosso-Tande,  Qinghui Ge,  A. Ghysels,  G. Gidofalvi,  
 J. Gomes,  J. Gonthier,  A. Gunina,  M. W. D. Hanson-Heine,  
 P. H. P. Harbach,  A. W. Hauser,  J. E. Herr,  E. G. Hohenstein,  
 Z. C. Holden,  Kerwin Hui,  T.-C. Jagau,  Hyunjun Ji,  B. Kaduk,  
 K. Khistyaev,  Jaehoon Kim,  P. Klunzinger,  K. Koh,  D. Kosenkov,  
 L. Koulias,  T. Kowalczyk,  C. M. Krauter,  A. Kunitsa,  Ka Un Lao,  
 A. Laurent,  K. V. Lawler,  Joonho Lee,  D. Lefrancois,  S. Lehtola,  
 D. S. Levine,  Yi-Pei Li,  You-Sheng Lin,  Fenglai Liu,  E. Livshits,  
 A. Luenser,  P. Manohar,  E. Mansoor,  S. F. Manzer,  Shan-Ping Mao,  
 Yuezhi Mao,  N. Mardirossian,  A. V. Marenich,  T. Markovich,  
 L. A. Martinez-Martinez,  S. A. Maurer,  N. J. Mayhall,  S. C. McKenzie,  
 J.-M. Mewes,  A. F. Morrison,  J. W. Mullinax,  K. Nanda,  
 T. S. Nguyen-Beck,  R. Olivares-Amaya,  J. A. Parkhill,  T. M. Perrine,  
 F. Plasser,  S. Prager,  A. Prociuk,  E. Ramos,  D. R. Rehn,  F. Rob,  
 M. Schneider,  N. Sergueev,  S. M. Sharada,  S. Sharma,  D. W. Small,  
 T. Stauch,  T. Stein,  Yu-Chuan Su,  A. J. W. Thom,  A. Tkatchenko,  
 T. Tsuchimochi,  L. Vogt,  O. Vydrov,  M. A. Watson,  J. Wenzel,  
 M. de Wergifosse,  T. A. Wesolowski,  A. White,  J. Witte,  A. Yamada,  
 Jun Yang,  K. Yao,  S. Yeganeh,  S. R. Yost,  Zhi-Qiang You,  A. Zech,  
 Igor Ying Zhang,  Xing Zhang,  Yan Zhao,  Ying Zhu,  B. R. Brooks,  
 G. K. L. Chan,  C. J. Cramer,  M. S. Gordon,  W. J. Hehre,  A. Klamt,  
 M. W. Schmidt,  C. D. Sherrill,  D. G. Truhlar,  A. Aspuru-Guzik,  R. Baer,  
 A. T. Bell,  N. A. Besley,  Jeng-Da Chai,  R. A. DiStasio Jr.,  A. Dreuw,  
 B. D. Dunietz,  T. R. Furlani,  Chao-Ping Hsu,  Yousung Jung,  Jing Kong,  
 D. S. Lambrecht,  WanZhen Liang,  C. Ochsenfeld,  V. A. Rassolov,  
 L. V. Slipchenko,  J. E. Subotnik,  T. Van Voorhis,  J. M. Herbert,  
 A. I. Krylov,  P. M. W. Gill,  M. Head-Gordon

 Contributors to earlier versions of Q-Chem not listed above: 
 R. D. Adamson,  B. Austin,  J. Baker,  G. J. O. Beran,  K. Brandhorst,  
 S. T. Brown,  E. F. C. Byrd,  A. K. Chakraborty,  C.-L. Cheng,  
 Siu Hung Chien,  D. M. Chipman,  D. L. Crittenden,  H. Dachsel,  
 R. J. Doerksen,  A. D. Dutoi,  L. Fusti-Molnar,  W. A. Goddard III,  
 A. Golubeva-Zadorozhnaya,  S. R. Gwaltney,  G. Hawkins,  A. Heyden,  
 S. Hirata,  G. Kedziora,  F. J. Keil,  C. Kelley,  Jihan Kim,  R. A. King,  
 R. Z. Khaliullin,  P. P. Korambath,  W. Kurlancheek,  A. M. Lee,  M. S. Lee,  
 S. V. Levchenko,  Ching Yeh Lin,  D. Liotard,  R. C. Lochan,  I. Lotan,  
 P. E. Maslen,  N. Nair,  D. P. O'Neill,  D. Neuhauser,  E. Neuscamman,  
 C. M. Oana,  R. Olson,  B. Peters,  R. Peverati,  P. A. Pieniazek,  
 Y. M. Rhee,  J. Ritchie,  M. A. Rohrdanz,  E. Rosta,  N. J. Russ,  
 H. F. Schaefer III,  N. E. Schultz,  N. Shenvi,  A. C. Simmonett,  A. Sodt,  
 D. Stuck,  K. S. Thanthiriwatte,  V. Vanovschi,  Tao Wang,  A. Warshel,  
 C. F. Williams,  Q. Wu,  X. Xu,  W. Zhang

 Please cite Q-Chem as follows:
 Y. Shao et al., Mol. Phys. 113, 184-215 (2015)
 DOI: 10.1080/00268976.2014.952696

 Q-Chem 5.0.2 for Intel X86 EM64T Linux

 Parts of Q-Chem use Armadillo 5.200.1 (Boston Tea Smuggler).
 http://arma.sourceforge.net/

 Q-Chem begins on Wed Mar  2 17:19:36 2022  

Host: 
0

     Scratch files written to ./qcts1.d//
 Dec517 15110_ 26548  26544 5633   
Processing $rem in /home/leeping/opt/qchem/5.0.2-openmp/config/preferences.
 MEM_STATIC 2000
 MEM_TOTAL  8000
 SYMMETRY   OFF
 SYM_IGNORE TRUE 

Checking the input file for inconsistencies... 	...done.

--------------------------------------------------------------
User input:
--------------------------------------------------------------
$molecule
0 2
C        1.2122158044    0.2649230617    0.0565675483
C        0.6273534282   -1.0108918962    0.8829546424
C       -0.7078680637   -0.9428386213    0.7335138050
C       -1.0651254134    0.0836865077   -0.3333201865
C       -0.6071253169    1.4886695346   -0.0532485272
N        0.6106758825    1.6199895617    0.3381730558
H        2.2730599751    0.4828779523   -0.1324635043
H        1.0959365337   -1.8930228118    1.3391524051
H       -1.4414861525   -1.6340444837    1.1585232511
H       -2.1576898381    0.0933939779   -0.5184747108
H       -1.2434754182    2.3253110707   -0.3207439869
C        0.4209734629   -0.1939470392   -1.1534230703
H        0.9467093510   -0.7174538942   -1.9562567150
$end

$rem
method                b3lyp
basis                 6-31g(d)
unrestricted          true
symmetry              off
sym_ignore            true
incdft                false
incfock               0
scf_convergence       8
thresh                14
jobtype               freq
scf_guess             read
scf_algorithm         diis
max_scf_cycles        100
$end

--------------------------------------------------------------
 ----------------------------------------------------------------
             Standard Nuclear Orientation (Angstroms)
    I     Atom           X                Y                Z
 ----------------------------------------------------------------
    1      C       1.2122158044     0.2649230617     0.0565675483
    2      C       0.6273534282    -1.0108918962     0.8829546424
    3      C      -0.7078680637    -0.9428386213     0.7335138050
    4      C      -1.0651254134     0.0836865077    -0.3333201865
    5      C      -0.6071253169     1.4886695346    -0.0532485272
    6      N       0.6106758825     1.6199895617     0.3381730558
    7      H       2.2730599751     0.4828779523    -0.1324635043
    8      H       1.0959365337    -1.8930228118     1.3391524051
    9      H      -1.4414861525    -1.6340444837     1.1585232511
   10      H      -2.1576898381     0.0933939779    -0.5184747108
   11      H      -1.2434754182     2.3253110707    -0.3207439869
   12      C       0.4209734629    -0.1939470392    -1.1534230703
   13      H       0.9467093510    -0.7174538942    -1.9562567150
 ----------------------------------------------------------------
 Nuclear Repulsion Energy =   274.6732928316 hartrees
 There are       25 alpha and       24 beta electrons
 Requested basis set is 6-31G(d)
 There are 40 shells and 117 basis functions

 Total QAlloc Memory Limit   8000 MB
 Mega-Array Size      1956 MB
 MEM_STATIC part      2000 MB

                       Distance Matrix (Angstroms)
             C (  1)   C (  2)   C (  3)   C (  4)   C (  5)   N (  6)
   C (  2)  1.628706
   C (  3)  2.367206  1.345281
   C (  4)  2.317572  2.354126  1.522998
   C (  5)  2.195363  2.940786  2.557611  1.504055
   N (  6)  1.509092  2.686746  2.909113  2.370536  1.285883
   H (  7)  1.099376  2.443516  3.415921  3.367964  3.051780  2.068343
   H (  8)  2.513021  1.098108  2.126819  3.372645  4.034234  3.684928
   H (  9)  3.444201  2.178154  1.093889  2.306045  3.451940  3.933584
   H ( 10)  3.422917  3.307555  2.177897  1.108185  2.137166  3.275391
   H ( 11)  3.227690  4.009880  3.475505  2.248744  1.084649  2.090341
   C ( 12)  1.516807  2.203821  2.322854  1.719924  2.258001  2.356101
   H ( 13)  2.255442  2.872145  3.165958  2.706146  3.301942  3.292563
             H (  7)   H (  8)   H (  9)   H ( 10)   H ( 11)   C ( 12)
   H (  8)  3.032520
   H (  9)  4.466079  2.556992
   H ( 10)  4.464554  4.240603  2.511835
   H ( 11)  3.974422  5.101220  4.231304  2.419987
   C ( 12)  2.220512  3.091176  3.299656  2.671185  3.132157
   H ( 13)  2.554648  3.501993  4.030567  3.515962  4.090260  1.093160

 
 A cutoff of  1.0D-14 yielded    811 shell pairs
 There are      7083 function pairs
 Smallest overlap matrix eigenvalue = 1.39E-03
 Guess MOs from SCF MO coefficient file
 Reading MOs from coefficient file
 Reading MOs from coefficient file
 An unrestricted hybrid HF-DFT SCF calculation will be
 performed using Pulay DIIS extrapolation
 Exchange:     0.2000 Hartree-Fock + 0.0800 Slater + 0.7200 B88
 Correlation:  0.1900 VWN1RPA + 0.8100 LYP
 Using SG-1 standard quadrature grid
 SCF converges when DIIS error is below 1.0E-08
Using Q-Chem read-in guess as SCF_GUESS READ specified.

 -------------------------------------------------------
 OpenMP BLAS3 based DFT computing Module                
 -------------------------------------------------------
 ---------------------------------------
  Cycle       Energy         DIIS Error
 ---------------------------------------
    1    -286.7846425328      4.90E-10
    2    -286.7846425328      6.69E-10 Convergence criterion met
 ---------------------------------------
 <S^2> = 0.7604
 SCF time:  CPU 3.44 s  wall 6.17 s
 SCF   energy in the final basis set = -286.78464253
 Total energy in the final basis set = -286.78464253
 
 --------------------------------------------------------------
 
                    Orbital Energies (a.u.)
 --------------------------------------------------------------
 
 Alpha MOs
 -- Occupied --
-14.320 -10.229 -10.226 -10.224 -10.212 -10.208 -10.199  -0.943
 -0.815  -0.729  -0.693  -0.592  -0.571  -0.533  -0.490  -0.463
 -0.422  -0.411  -0.381  -0.368  -0.334  -0.296  -0.266  -0.252
 -0.169
 -- Virtual --
 -0.021   0.003   0.081   0.088   0.119   0.145   0.155   0.168
  0.174   0.203   0.223   0.253   0.292   0.301   0.359   0.365
  0.493   0.504   0.529   0.548   0.564   0.594   0.598   0.621
  0.642   0.643   0.663   0.672   0.689   0.723   0.776   0.798
  0.799   0.824   0.829   0.850   0.866   0.895   0.904   0.924
  0.955   1.015   1.041   1.104   1.159   1.187   1.244   1.297
  1.404   1.423   1.462   1.513   1.550   1.597   1.661   1.684
  1.750   1.796   1.805   1.884   1.946   1.964   1.987   2.036
  2.082   2.098   2.133   2.205   2.216   2.269   2.297   2.335
  2.394   2.415   2.446   2.533   2.569   2.593   2.635   2.666
  2.689   2.778   2.837   2.913   2.954   3.893   4.159   4.234
  4.261   4.350   4.485   4.641
 
 Beta MOs
 -- Occupied --
-14.318 -10.229 -10.227 -10.224 -10.208 -10.198 -10.196  -0.939
 -0.809  -0.728  -0.679  -0.588  -0.559  -0.529  -0.488  -0.455
 -0.419  -0.407  -0.380  -0.364  -0.329  -0.286  -0.254  -0.247
 -- Virtual --
 -0.028  -0.007   0.008   0.084   0.100   0.120   0.146   0.157
  0.169   0.175   0.211   0.226   0.259   0.295   0.304   0.361
  0.368   0.499   0.508   0.537   0.563   0.575   0.596   0.601
  0.634   0.645   0.652   0.668   0.684   0.694   0.729   0.777
  0.802   0.803   0.827   0.830   0.853   0.870   0.898   0.908
  0.930   0.961   1.023   1.049   1.106   1.162   1.196   1.246
  1.303   1.411   1.427   1.469   1.522   1.555   1.601   1.665
  1.696   1.758   1.807   1.815   1.897   1.949   1.969   2.014
  2.049   2.090   2.102   2.138   2.212   2.230   2.272   2.301
  2.353   2.404   2.426   2.451   2.538   2.578   2.595   2.638
  2.677   2.694   2.779   2.839   2.915   2.956   3.895   4.164
  4.246   4.274   4.352   4.493   4.642
 --------------------------------------------------------------
 
          Ground-State Mulliken Net Atomic Charges

     Atom                 Charge (a.u.)    Spin (a.u.)
  --------------------------------------------------------
      1 C                    -0.082001      -0.049406
      2 C                    -0.097196      -0.040715
      3 C                    -0.087062       0.161701
      4 C                    -0.224935      -0.069813
      5 C                     0.103396      -0.022519
      6 N                    -0.339322       0.054971
      7 H                     0.151532       0.003305
      8 H                     0.146797       0.003964
      9 H                     0.148400      -0.008288
     10 H                     0.134689       0.002229
     11 H                     0.149041       0.001295
     12 C                    -0.155197       1.013036
     13 H                     0.151859      -0.049760
  --------------------------------------------------------
  Sum of atomic charges =     0.000000
  Sum of spin   charges =     1.000000

 -----------------------------------------------------------------
                    Cartesian Multipole Moments
 -----------------------------------------------------------------
    Charge (ESU x 10^10)
                 0.0000
    Dipole Moment (Debye)
         X      -1.2015      Y      -1.9740      Z      -0.6463
       Tot       2.3995
    Quadrupole Moments (Debye-Ang)
        XX     -36.5607     XY      -3.7289     YY     -42.8847
        XZ      -1.2515     YZ      -2.6642     ZZ     -41.9303
    Octopole Moments (Debye-Ang^2)
       XXX      -8.6743    XXY      -7.4246    XYY     -10.3238
       YYY     -27.8018    XXZ      -3.3578    XYZ       0.4801
       YYZ      -2.4414    XZZ      -0.8918    YZZ     -10.5885
       ZZZ      -8.3173
    Hexadecapole Moments (Debye-Ang^3)
      XXXX    -223.7784   XXXY       0.0587   XXYY     -89.2144
      XYYY     -21.1717   YYYY    -319.7725   XXXZ      -4.5614
      XXYZ       2.6719   XYYZ      -1.5810   YYYZ       5.3631
      XXZZ     -66.1936   XYZZ      -3.3981   YYZZ     -77.4220
      XZZZ      -6.0334   YZZZ      23.4005   ZZZZ    -168.1945
 -----------------------------------------------------------------
 Calculating MO derivatives via CPSCF
   1         3          39      0.265361    0.061803
   2         3          39      0.026418    0.005657
   3         3          39      0.003386    0.000588
   4         5          37      0.000445    0.000072
   5        28          14      0.000035    0.000007
   6        42           0      0.000000    0.000000    Roots Converged
 Time for AOints: 5.8 s (CPU) 6.8 s (wall)
 ------------------------------------------------------------------------------
                     AOints        : Timing summary (seconds)
 ------------------------------------------------------------------------------
     job step          cpu (% of tot)      sys (% of tot)     wall (% of tot)
 ------------------------------------------------------------------------------
  cpscf_lag         0.5567E+02 (29.1)   0.2800E-04 (40.6)   0.5628E+02 (28.6)
  iterzp            0.1300E+03 (67.8)   0.4000E-04 (58.0)   0.1337E+03 (67.9)
  make_fx           0.0000E+00 ( 0.0)   0.0000E+00 ( 0.0)   0.0000E+00 ( 0.0)
  AOints            0.5801E+01 ( 3.0)   0.0000E+00 ( 0.0)   0.6839E+01 ( 3.5)
 ------------------------------------------------------------------------------
   Grand Totals     0.1916E+03          0.6900E-04          0.1970E+03
 ------------------------------------------------------------------------------
 Calculating analytic Hessian of the SCF energy
 Polarizability Matrix (a.u.)
            1           2           3
    1 -69.2819819   2.5709398  -0.1318409
    2   2.5709398 -60.6314866   6.8411076
    3  -0.1318409   6.8411076 -48.8179621
 
 Direct stationary perturbation theory relativistic correction:
 
 rels  =       0.069250425954
 relv  =      -0.339217171518
 rel2e =       0.156994320066
 E_rel =      -0.112972425498
 
 Hessian of the SCF Energy
            1           2           3           4           5           6
    1   0.6767630   0.0396147  -0.0145279  -0.0828506   0.0047391   0.0042567
    2   0.0396147   0.2684791   0.0339717   0.0050650  -0.0613873   0.0229343
    3  -0.0145279   0.0339717   0.3064712   0.0016581   0.0008729  -0.0466500
    4  -0.0828506   0.0050650   0.0016581   0.7020793  -0.1410599   0.1298294
    5   0.0047391  -0.0613873   0.0008729  -0.1410599   0.3879601  -0.1650178
    6   0.0042567   0.0229343  -0.0466500   0.1298294  -0.1650178   0.2252424
    7  -0.0229092  -0.0168351   0.0244816  -0.4884712   0.0376555  -0.0710833
    8  -0.0270148  -0.0017450   0.0040279   0.0135610  -0.0909823   0.0232870
    9   0.0122863  -0.0035822   0.0072357  -0.0390588   0.0257726  -0.0688436
   10  -0.0492461  -0.0038421   0.0006286  -0.0124553   0.0268297  -0.0201732
   11  -0.0004858  -0.0216981   0.0018870   0.0328196   0.0007337   0.0081250
   12  -0.0072975   0.0029057  -0.0175778  -0.0281915   0.0101716  -0.0063352
   13  -0.0513604   0.0484134  -0.0006964  -0.0152642  -0.0059423   0.0000303
   14   0.0429857  -0.0001034   0.0023285  -0.0068755  -0.0042740   0.0051020
   15  -0.0112908   0.0085083   0.0013314  -0.0013598  -0.0030226  -0.0004980
   16  -0.0840414   0.0124662   0.0205950   0.0132829   0.0073679  -0.0045041
   17  -0.0023409  -0.0968825  -0.0169816  -0.0055555  -0.0255833   0.0013143
   18   0.0126288  -0.0080572  -0.0586543  -0.0120711   0.0139381   0.0071388
   19  -0.2945205  -0.0500363   0.0407879   0.0021400   0.0008274  -0.0011396
   20  -0.0585844  -0.0554138   0.0091777  -0.0147384   0.0027508  -0.0037415
   21   0.0439579   0.0068522  -0.0557131   0.0143475  -0.0022171  -0.0006107
   22   0.0085095  -0.0064752   0.0017634  -0.1046900   0.0870525  -0.0432588
   23   0.0079192  -0.0003659  -0.0017646   0.1027138  -0.2221612   0.1010551
   24  -0.0043530   0.0029837  -0.0021148  -0.0497137   0.1002903  -0.0849804
   25  -0.0057943   0.0012783  -0.0015256  -0.0109233  -0.0209801   0.0125236
   26   0.0007548   0.0025237   0.0030587   0.0020180   0.0059595   0.0018114
   27  -0.0023750   0.0037005   0.0030094  -0.0071827  -0.0028407   0.0080709
   28  -0.0025635  -0.0005917   0.0010468   0.0008391   0.0005182  -0.0010603
   29   0.0020417  -0.0029092  -0.0012438   0.0004941  -0.0026331   0.0029977
   30   0.0055130  -0.0004469  -0.0026469  -0.0015619   0.0049327  -0.0026140
   31  -0.0034651   0.0010023  -0.0071058  -0.0011791   0.0009778   0.0008362
   32  -0.0009045  -0.0007789   0.0002112   0.0009186   0.0000694   0.0003957
   33  -0.0042235  -0.0066901   0.0099647   0.0023713  -0.0022595   0.0003788
   34  -0.0960969  -0.0227719  -0.0542839  -0.0027949   0.0044935  -0.0056630
   35  -0.0144638  -0.0289647  -0.0339930   0.0106236   0.0103834  -0.0012526
   36  -0.0464609  -0.0554294  -0.1393195  -0.0083529   0.0188914  -0.0280176
   37   0.0075754  -0.0072877  -0.0128219   0.0002874  -0.0024793  -0.0005940
   38   0.0057390  -0.0007541  -0.0015524   0.0000157  -0.0008358   0.0029895
   39   0.0118859  -0.0076509  -0.0053360  -0.0007139   0.0004883  -0.0022815
            7           8           9          10          11          12
    1  -0.0229092  -0.0270148   0.0122863  -0.0492461  -0.0004858  -0.0072975
    2  -0.0168351  -0.0017450  -0.0035822  -0.0038421  -0.0216981   0.0029057
    3   0.0244816   0.0040279   0.0072357   0.0006286   0.0018870  -0.0175778
    4  -0.4884712   0.0135610  -0.0390588  -0.0124553   0.0328196  -0.0281915
    5   0.0376555  -0.0909823   0.0257726   0.0268297   0.0007337   0.0101716
    6  -0.0710833   0.0232870  -0.0688436  -0.0201732   0.0081250  -0.0063352
    7   0.7946229   0.1057100  -0.0139545  -0.0889260  -0.0104565  -0.0191742
    8   0.1057100   0.3856794  -0.1924412   0.0129006  -0.1060356   0.0551592
    9  -0.0139545  -0.1924412   0.2794452  -0.0351809   0.0486641  -0.1115074
   10  -0.0889260   0.0129006  -0.0351809   0.5523090   0.0366614   0.1517805
   11  -0.0104565  -0.1060356   0.0486641   0.0366614   0.3946568  -0.0368695
   12  -0.0191742   0.0551592  -0.1115074   0.1517805  -0.0368695   0.2770607
   13   0.0110148  -0.0074859   0.0166041  -0.0820402  -0.0087659  -0.0190754
   14   0.0105150  -0.0329260   0.0114913  -0.0360619  -0.1751284  -0.0178861
   15   0.0084173   0.0196691   0.0123862  -0.0195965  -0.0199917  -0.0665720
   16  -0.0100830   0.0082175  -0.0104625  -0.0256425  -0.0385866  -0.0199288
   17   0.0036504  -0.0003989   0.0028366  -0.0292450  -0.0032967  -0.0168734
   18  -0.0002497  -0.0016152   0.0018520  -0.0128759  -0.0086524   0.0154893
   19   0.0001487   0.0002045  -0.0001856  -0.0014341  -0.0006047  -0.0014013
   20  -0.0021538  -0.0033201   0.0028225  -0.0014873  -0.0003163  -0.0006341
   21   0.0004783   0.0046281  -0.0031887  -0.0051910  -0.0030040  -0.0030441
   22  -0.0072418   0.0247528  -0.0181991  -0.0061449   0.0003532   0.0007032
   23  -0.0060455   0.0025782   0.0016919  -0.0000775   0.0038123   0.0024173
   24  -0.0055931   0.0034105   0.0067865   0.0001950   0.0070024   0.0036777
   25  -0.1799493  -0.1159831   0.0675857   0.0079637   0.0081993  -0.0038564
   26  -0.1173996  -0.1584034   0.0805127  -0.0125315  -0.0071077   0.0024006
   27   0.0717372   0.0785182  -0.0794323   0.0097529   0.0113387  -0.0021777
   28  -0.0055658  -0.0007671  -0.0023682  -0.2847304  -0.0026192  -0.0511917
   29   0.0212482   0.0010265   0.0077813   0.0041604  -0.0467482   0.0008524
   30  -0.0233472  -0.0043125  -0.0051320  -0.0362448  -0.0006492  -0.0603205
   31   0.0000923  -0.0012973  -0.0010001   0.0071130  -0.0093670   0.0007691
   32  -0.0015291  -0.0008589  -0.0034200   0.0139790  -0.0149677   0.0064867
   33  -0.0009633   0.0001597  -0.0021808   0.0009375  -0.0069418   0.0085038
   34  -0.0022139  -0.0146677   0.0250750  -0.0210354  -0.0122432  -0.0057345
   35  -0.0263161   0.0057290   0.0189414  -0.0091762  -0.0207436  -0.0136869
   36   0.0310680   0.0068316  -0.0372713  -0.0279644  -0.0052569  -0.0414429
   37  -0.0005185   0.0018696  -0.0011412   0.0042693   0.0050953   0.0025985
   38   0.0019564  -0.0003428  -0.0010709  -0.0021097  -0.0031604   0.0055565
   39  -0.0018172   0.0026777  -0.0001495  -0.0060678   0.0043483   0.0042460
           13          14          15          16          17          18
    1  -0.0513604   0.0429857  -0.0112908  -0.0840414  -0.0023409   0.0126288
    2   0.0484134  -0.0001034   0.0085083   0.0124662  -0.0968825  -0.0080572
    3  -0.0006964   0.0023285   0.0013314   0.0205950  -0.0169816  -0.0586543
    4  -0.0152642  -0.0068755  -0.0013598   0.0132829  -0.0055555  -0.0120711
    5  -0.0059423  -0.0042740  -0.0030226   0.0073679  -0.0255833   0.0139381
    6   0.0000303   0.0051020  -0.0004980  -0.0045041   0.0013143   0.0071388
    7   0.0110148   0.0105150   0.0084173  -0.0100830   0.0036504  -0.0002497
    8  -0.0074859  -0.0329260   0.0196691   0.0082175  -0.0003989  -0.0016152
    9   0.0166041   0.0114913   0.0123862  -0.0104625   0.0028366   0.0018520
   10  -0.0820402  -0.0360619  -0.0195965  -0.0256425  -0.0292450  -0.0128759
   11  -0.0087659  -0.1751284  -0.0199917  -0.0385866  -0.0032967  -0.0086524
   12  -0.0190754  -0.0178861  -0.0665720  -0.0199288  -0.0168734   0.0154893
   13   0.7960077  -0.1083945   0.2015941  -0.5023139  -0.0277372  -0.1432275
   14  -0.1083945   0.5968558  -0.0113671  -0.0577178  -0.1180856  -0.0176601
   15   0.2015941  -0.0113671   0.2188595  -0.1404570  -0.0083458  -0.0928686
   16  -0.5023139  -0.0577178  -0.1404570   0.6458345   0.0362083   0.1471378
   17  -0.0277372  -0.1180856  -0.0083458   0.0362083   0.2786710   0.0620938
   18  -0.1432275  -0.0176601  -0.0928686   0.1471378   0.0620938   0.1538250
   19  -0.0004610   0.0027327   0.0004939  -0.0145947   0.0045181   0.0022013
   20   0.0027929  -0.0065316   0.0000325   0.0346798  -0.0043792  -0.0077536
   21   0.0017224  -0.0028597   0.0003552   0.0101143   0.0005539  -0.0001692
   22  -0.0005067  -0.0019030  -0.0008006   0.0004027  -0.0007301   0.0022693
   23  -0.0012054  -0.0007334  -0.0007673   0.0004553  -0.0009500   0.0025343
   24  -0.0020146   0.0003730  -0.0009371   0.0013892  -0.0014559   0.0005072
   25  -0.0002829   0.0002036  -0.0017641   0.0006653   0.0003621   0.0002644
   26   0.0007712  -0.0003207   0.0025411  -0.0006379   0.0006482  -0.0002697
   27  -0.0014811  -0.0022538  -0.0022091   0.0007146   0.0005476   0.0007175
   28  -0.0095506   0.0019173  -0.0035068  -0.0015041  -0.0014396  -0.0000836
   29  -0.0318403   0.0025249  -0.0099892  -0.0048728  -0.0059220  -0.0020148
   30  -0.0078223   0.0012255  -0.0026130  -0.0013854  -0.0029427   0.0006757
   31  -0.1393870   0.1253504  -0.0435066  -0.0229781   0.0242123  -0.0017423
   32   0.1290539  -0.2379832   0.0497592  -0.0010084   0.0116125  -0.0000878
   33  -0.0451997   0.0535821  -0.0561973  -0.0042151   0.0119242  -0.0028772
   34  -0.0035776   0.0291717   0.0105288  -0.0004749  -0.0014637   0.0078260
   35   0.0103378  -0.0219151  -0.0274797   0.0047192  -0.0312674  -0.0285020
   36   0.0024374  -0.0166555  -0.0081018  -0.0035232  -0.0312377  -0.0247538
   37  -0.0022780  -0.0019237   0.0012481   0.0014472  -0.0004391  -0.0020775
   38   0.0000024  -0.0013794   0.0004531  -0.0012907  -0.0041661  -0.0039535
   39  -0.0028713  -0.0054202  -0.0029354   0.0045252  -0.0014332  -0.0008826
           19          20          21          22          23          24
    1  -0.2945205  -0.0585844   0.0439579   0.0085095   0.0079192  -0.0043530
    2  -0.0500363  -0.0554138   0.0068522  -0.0064752  -0.0003659   0.0029837
    3   0.0407879   0.0091777  -0.0557131   0.0017634  -0.0017646  -0.0021148
    4   0.0021400  -0.0147384   0.0143475  -0.1046900   0.1027138  -0.0497137
    5   0.0008274   0.0027508  -0.0022171   0.0870525  -0.2221612   0.1002903
    6  -0.0011396  -0.0037415  -0.0006107  -0.0432588   0.1010551  -0.0849804
    7   0.0001487  -0.0021538   0.0004783  -0.0072418  -0.0060455  -0.0055931
    8   0.0002045  -0.0033201   0.0046281   0.0247528   0.0025782   0.0034105
    9  -0.0001856   0.0028225  -0.0031887  -0.0181991   0.0016919   0.0067865
   10  -0.0014341  -0.0014873  -0.0051910  -0.0061449  -0.0000775   0.0001950
   11  -0.0006047  -0.0003163  -0.0030040   0.0003532   0.0038123   0.0070024
   12  -0.0014013  -0.0006341  -0.0030441   0.0007032   0.0024173   0.0036777
   13  -0.0004610   0.0027929   0.0017224  -0.0005067  -0.0012054  -0.0020146
   14   0.0027327  -0.0065316  -0.0028597  -0.0019030  -0.0007334   0.0003730
   15   0.0004939   0.0000325   0.0003552  -0.0008006  -0.0007673  -0.0009371
   16  -0.0145947   0.0346798   0.0101143   0.0004027   0.0004553   0.0013892
   17   0.0045181  -0.0043792   0.0005539  -0.0007301  -0.0009500  -0.0014559
   18   0.0022013  -0.0077536  -0.0001692   0.0022693   0.0025343   0.0005072
   19   0.3195911   0.0437827  -0.0428388  -0.0003162  -0.0004399   0.0001372
   20   0.0437827   0.0665047  -0.0042202   0.0003512  -0.0000113   0.0000683
   21  -0.0428388  -0.0042202   0.0525675  -0.0001892   0.0000003  -0.0002707
   22  -0.0003162   0.0003512  -0.0001892   0.1101730  -0.1045952   0.0580770
   23  -0.0004399  -0.0000113   0.0000003  -0.1045952   0.2203565  -0.1063186
   24   0.0001372   0.0000683  -0.0002707   0.0580770  -0.1063186   0.0786520
   25   0.0002280  -0.0012228   0.0010832   0.0008773   0.0006531   0.0004529
   26   0.0000618   0.0003444   0.0000343  -0.0005543  -0.0007374  -0.0030361
   27  -0.0001156  -0.0002405   0.0007144   0.0001400  -0.0018422  -0.0034269
   28  -0.0001497  -0.0000812  -0.0005874  -0.0001329  -0.0000943   0.0001809
   29   0.0000179   0.0003227   0.0004722   0.0010656  -0.0001378  -0.0000662
   30   0.0004417   0.0002005   0.0017034  -0.0015118   0.0001660   0.0008559
   31  -0.0005717   0.0009229   0.0002010   0.0004311   0.0004001  -0.0003175
   32  -0.0000996   0.0002761   0.0003705   0.0002563   0.0003263   0.0004622
   33  -0.0004640   0.0017216   0.0007268  -0.0001885  -0.0001221   0.0008289
   34  -0.0107104  -0.0041795  -0.0238990  -0.0017395  -0.0000687   0.0012450
   35  -0.0009818  -0.0000457  -0.0008225   0.0003896  -0.0019477  -0.0039400
   36   0.0025105   0.0023667   0.0062214   0.0007500   0.0025811   0.0009377
   37   0.0006506  -0.0000820   0.0008008   0.0003782   0.0003849   0.0003147
   38   0.0000172  -0.0001807   0.0002118   0.0000366  -0.0000286   0.0002264
   39  -0.0004276   0.0002001   0.0007077   0.0004451   0.0003686  -0.0005159
           25          26          27          28          29          30
    1  -0.0057943   0.0007548  -0.0023750  -0.0025635   0.0020417   0.0055130
    2   0.0012783   0.0025237   0.0037005  -0.0005917  -0.0029092  -0.0004469
    3  -0.0015256   0.0030587   0.0030094   0.0010468  -0.0012438  -0.0026469
    4  -0.0109233   0.0020180  -0.0071827   0.0008391   0.0004941  -0.0015619
    5  -0.0209801   0.0059595  -0.0028407   0.0005182  -0.0026331   0.0049327
    6   0.0125236   0.0018114   0.0080709  -0.0010603   0.0029977  -0.0026140
    7  -0.1799493  -0.1173996   0.0717372  -0.0055658   0.0212482  -0.0233472
    8  -0.1159831  -0.1584034   0.0785182  -0.0007671   0.0010265  -0.0043125
    9   0.0675857   0.0805127  -0.0794323  -0.0023682   0.0077813  -0.0051320
   10   0.0079637  -0.0125315   0.0097529  -0.2847304   0.0041604  -0.0362448
   11   0.0081993  -0.0071077   0.0113387  -0.0026192  -0.0467482  -0.0006492
   12  -0.0038564   0.0024006  -0.0021777  -0.0511917   0.0008524  -0.0603205
   13  -0.0002829   0.0007712  -0.0014811  -0.0095506  -0.0318403  -0.0078223
   14   0.0002036  -0.0003207  -0.0022538   0.0019173   0.0025249   0.0012255
   15  -0.0017641   0.0025411  -0.0022091  -0.0035068  -0.0099892  -0.0026130
   16   0.0006653  -0.0006379   0.0007146  -0.0015041  -0.0048728  -0.0013854
   17   0.0003621   0.0006482   0.0005476  -0.0014396  -0.0059220  -0.0029427
   18   0.0002644  -0.0002697   0.0007175  -0.0000836  -0.0020148   0.0006757
   19   0.0002280   0.0000618  -0.0001156  -0.0001497   0.0000179   0.0004417
   20  -0.0012228   0.0003444  -0.0002405  -0.0000812   0.0003227   0.0002005
   21   0.0010832   0.0000343   0.0007144  -0.0005874   0.0004722   0.0017034
   22   0.0008773  -0.0005543   0.0001400  -0.0001329   0.0010656  -0.0015118
   23   0.0006531  -0.0007374  -0.0018422  -0.0000943  -0.0001378   0.0001660
   24   0.0004529  -0.0030361  -0.0034269   0.0001809  -0.0000662   0.0008559
   25   0.1864973   0.1273046  -0.0740260   0.0006795  -0.0003744   0.0006693
   26   0.1273046   0.1576727  -0.0864035   0.0003985   0.0004261  -0.0006380
   27  -0.0740260  -0.0864035   0.0772777   0.0000876  -0.0004862   0.0005359
   28   0.0006795   0.0003985   0.0000876   0.3010810   0.0060185   0.0619631
   29  -0.0003744   0.0004261  -0.0004862   0.0060185   0.0551638  -0.0039382
   30   0.0006693  -0.0006380   0.0005359   0.0619631  -0.0039382   0.0580642
   31   0.0001347  -0.0001508   0.0001284   0.0006868   0.0006216   0.0004523
   32   0.0002780  -0.0004423   0.0004454  -0.0004276   0.0007223   0.0002661
   33   0.0001840  -0.0002008   0.0003300   0.0003248   0.0005326  -0.0000298
   34  -0.0003211   0.0003806   0.0024328   0.0010427   0.0012336   0.0023932
   35   0.0001483  -0.0000194  -0.0006096  -0.0029909  -0.0017384   0.0059824
   36  -0.0015778   0.0001416  -0.0030409  -0.0048975   0.0046398   0.0109581
   37   0.0002251  -0.0004155   0.0001869  -0.0001322   0.0001859   0.0004407
   38   0.0001331  -0.0005438   0.0001260   0.0001590  -0.0000977   0.0001543
   39  -0.0000132   0.0000477  -0.0003689   0.0000924   0.0004624   0.0005630
           31          32          33          34          35          36
    1  -0.0034651  -0.0009045  -0.0042235  -0.0960969  -0.0144638  -0.0464609
    2   0.0010023  -0.0007789  -0.0066901  -0.0227719  -0.0289647  -0.0554294
    3  -0.0071058   0.0002112   0.0099647  -0.0542839  -0.0339930  -0.1393195
    4  -0.0011791   0.0009186   0.0023713  -0.0027949   0.0106236  -0.0083529
    5   0.0009778   0.0000694  -0.0022595   0.0044935   0.0103834   0.0188914
    6   0.0008362   0.0003957   0.0003788  -0.0056630  -0.0012526  -0.0280176
    7   0.0000923  -0.0015291  -0.0009633  -0.0022139  -0.0263161   0.0310680
    8  -0.0012973  -0.0008589   0.0001597  -0.0146677   0.0057290   0.0068316
    9  -0.0010001  -0.0034200  -0.0021808   0.0250750   0.0189414  -0.0372713
   10   0.0071130   0.0139790   0.0009375  -0.0210354  -0.0091762  -0.0279644
   11  -0.0093670  -0.0149677  -0.0069418  -0.0122432  -0.0207436  -0.0052569
   12   0.0007691   0.0064867   0.0085038  -0.0057345  -0.0136869  -0.0414429
   13  -0.1393870   0.1290539  -0.0451997  -0.0035776   0.0103378   0.0024374
   14   0.1253504  -0.2379832   0.0535821   0.0291717  -0.0219151  -0.0166555
   15  -0.0435066   0.0497592  -0.0561973   0.0105288  -0.0274797  -0.0081018
   16  -0.0229781  -0.0010084  -0.0042151  -0.0004749   0.0047192  -0.0035232
   17   0.0242123   0.0116125   0.0119242  -0.0014637  -0.0312674  -0.0312377
   18  -0.0017423  -0.0000878  -0.0028772   0.0078260  -0.0285020  -0.0247538
   19  -0.0005717  -0.0000996  -0.0004640  -0.0107104  -0.0009818   0.0025105
   20   0.0009229   0.0002761   0.0017216  -0.0041795  -0.0000457   0.0023667
   21   0.0002010   0.0003705   0.0007268  -0.0238990  -0.0008225   0.0062214
   22   0.0004311   0.0002563  -0.0001885  -0.0017395   0.0003896   0.0007500
   23   0.0004001   0.0003263  -0.0001221  -0.0000687  -0.0019477   0.0025811
   24  -0.0003175   0.0004622   0.0008289   0.0012450  -0.0039400   0.0009377
   25   0.0001347   0.0002780   0.0001840  -0.0003211   0.0001483  -0.0015778
   26  -0.0001508  -0.0004423  -0.0002008   0.0003806  -0.0000194   0.0001416
   27   0.0001284   0.0004454   0.0003300   0.0024328  -0.0006096  -0.0030409
   28   0.0006868  -0.0004276   0.0003248   0.0010427  -0.0029909  -0.0048975
   29   0.0006216   0.0007223   0.0005326   0.0012336  -0.0017384   0.0046398
   30   0.0004523   0.0002661  -0.0000298   0.0023932   0.0059824   0.0109581
   31   0.1587927  -0.1409013   0.0517178   0.0000419  -0.0020302  -0.0005959
   32  -0.1409013   0.2428541  -0.0540993  -0.0002715  -0.0007003  -0.0009213
   33   0.0517178  -0.0540993   0.0414447  -0.0004921   0.0027359  -0.0006590
   34   0.0000419  -0.0002715  -0.0004921   0.2483264  -0.0435621  -0.0535875
   35  -0.0020302  -0.0007003   0.0027359  -0.0435621   0.1569179   0.2126456
   36  -0.0005959  -0.0009213  -0.0006590  -0.0535875   0.2126456   0.4623244
   37   0.0002885   0.0006562   0.0002109  -0.1104464   0.0733026   0.1101943
   38   0.0002592  -0.0001294  -0.0003424   0.0639487  -0.0656878  -0.1385969
   39   0.0001636   0.0001315  -0.0002337   0.0941593  -0.1300189  -0.1978347
           37          38          39
    1   0.0075754   0.0057390   0.0118859
    2  -0.0072877  -0.0007541  -0.0076509
    3  -0.0128219  -0.0015524  -0.0053360
    4   0.0002874   0.0000157  -0.0007139
    5  -0.0024793  -0.0008358   0.0004883
    6  -0.0005940   0.0029895  -0.0022815
    7  -0.0005185   0.0019564  -0.0018172
    8   0.0018696  -0.0003428   0.0026777
    9  -0.0011412  -0.0010709  -0.0001495
   10   0.0042693  -0.0021097  -0.0060678
   11   0.0050953  -0.0031604   0.0043483
   12   0.0025985   0.0055565   0.0042460
   13  -0.0022780   0.0000024  -0.0028713
   14  -0.0019237  -0.0013794  -0.0054202
   15   0.0012481   0.0004531  -0.0029354
   16   0.0014472  -0.0012907   0.0045252
   17  -0.0004391  -0.0041661  -0.0014332
   18  -0.0020775  -0.0039535  -0.0008826
   19   0.0006506   0.0000172  -0.0004276
   20  -0.0000820  -0.0001807   0.0002001
   21   0.0008008   0.0002118   0.0007077
   22   0.0003782   0.0000366   0.0004451
   23   0.0003849  -0.0000286   0.0003686
   24   0.0003147   0.0002264  -0.0005159
   25   0.0002251   0.0001331  -0.0000132
   26  -0.0004155  -0.0005438   0.0000477
   27   0.0001869   0.0001260  -0.0003689
   28  -0.0001322   0.0001590   0.0000924
   29   0.0001859  -0.0000977   0.0004624
   30   0.0004407   0.0001543   0.0005630
   31   0.0002885   0.0002592   0.0001636
   32   0.0006562  -0.0001294   0.0001315
   33   0.0002109  -0.0003424  -0.0002337
   34  -0.1104464   0.0639487   0.0941593
   35   0.0733026  -0.0656878  -0.1300189
   36   0.1101943  -0.1385969  -0.1978347
   37   0.0982535  -0.0688670  -0.0993604
   38  -0.0688670   0.0773065   0.1357985
   39  -0.0993604   0.1357985   0.2050214
 Gradient time:  CPU 259.19 s  wall 265.06 s
 **********************************************************************
 **                                                                  **
 **                       VIBRATIONAL ANALYSIS                       **
 **                       --------------------                       **
 **                                                                  **
 **        VIBRATIONAL FREQUENCIES (CM**-1) AND NORMAL MODES         **
 **     FORCE CONSTANTS (mDYN/ANGSTROM) AND REDUCED MASSES (AMU)     **
 **                  INFRARED INTENSITIES (KM/MOL)                   **
 **                                                                  **
 **********************************************************************
 

 Mode:                 1                      2                      3
 Frequency:      -549.29                 357.67                 399.48
 Force Cnst:      0.2043                 0.2443                 0.3252
 Red. Mass:       1.1493                 3.2418                 3.4589
 IR Active:          YES                    YES                    YES
 IR Intens:       44.857                  2.892                  3.683
 Raman Active:       YES                    YES                    YES
               X      Y      Z        X      Y      Z        X      Y      Z
 C          0.001 -0.003  0.005    0.011  0.073  0.077    0.040  0.019 -0.092
 C         -0.002  0.007 -0.009   -0.004 -0.093 -0.180   -0.058  0.201  0.043
 C         -0.011  0.015  0.019   -0.040 -0.009  0.021   -0.054  0.088 -0.044
 C         -0.006  0.004 -0.001   -0.150  0.077  0.194   -0.080  0.015 -0.035
 C          0.002 -0.002 -0.015   -0.032  0.042 -0.042   -0.056 -0.096  0.235
 N          0.002  0.003 -0.003   -0.021  0.061 -0.080    0.020 -0.097 -0.039
 H         -0.001 -0.001 -0.001    0.033  0.072  0.194    0.066 -0.031 -0.002
 H          0.006 -0.004 -0.037    0.031 -0.271 -0.543   -0.065  0.235  0.109
 H         -0.010  0.015  0.016    0.014 -0.142 -0.104   -0.014  0.065 -0.017
 H         -0.007  0.002  0.004   -0.180  0.105  0.313   -0.088  0.072 -0.003
 H         -0.003 -0.002 -0.001    0.027  0.050 -0.176   -0.181 -0.045  0.742
 C          0.006 -0.097  0.048    0.220 -0.127  0.038    0.185 -0.125 -0.125
 H          0.098  0.849 -0.506    0.316 -0.234  0.156    0.269 -0.149 -0.066
 TransDip   0.055  0.118 -0.171    0.029 -0.040  0.023    0.013  0.007  0.060

 Mode:                 4                      5                      6
 Frequency:       411.49                 463.04                 525.98
 Force Cnst:      0.4056                 0.5617                 0.5951
 Red. Mass:       4.0658                 4.4463                 3.6510
 IR Active:          YES                    YES                    YES
 IR Intens:        3.002                  1.506                  2.272
 Raman Active:       YES                    YES                    YES
               X      Y      Z        X      Y      Z        X      Y      Z
 C         -0.008 -0.091  0.057   -0.011 -0.129  0.005   -0.058 -0.039  0.046
 C         -0.050  0.004  0.194    0.052 -0.003 -0.061    0.095  0.243  0.022
 C         -0.002 -0.177 -0.079    0.039  0.218  0.175    0.086 -0.056 -0.172
 C         -0.122 -0.009  0.168   -0.091 -0.019  0.028   -0.156  0.059  0.051
 C          0.012 -0.024  0.012   -0.019 -0.063 -0.142    0.086  0.039 -0.103
 N          0.073  0.029 -0.196   -0.102 -0.184  0.163    0.008 -0.086  0.174
 H          0.026 -0.164  0.166   -0.014 -0.012  0.100   -0.077 -0.016 -0.046
 H         -0.066  0.123  0.428    0.005  0.008  0.003    0.148  0.297  0.053
 H          0.018 -0.269 -0.185    0.021  0.425  0.481    0.244 -0.331 -0.349
 H         -0.148  0.082  0.276   -0.119 -0.078  0.154   -0.202  0.158  0.251
 H          0.092 -0.036 -0.236    0.130 -0.017 -0.374    0.257  0.100 -0.349
 C          0.084  0.255 -0.143    0.131  0.173 -0.213   -0.086 -0.150 -0.009
 H          0.090  0.367 -0.229    0.191  0.119 -0.161   -0.076 -0.149 -0.007
 TransDip  -0.028  0.017  0.045    0.018  0.029 -0.019    0.018  0.006 -0.044

 Mode:                 7                      8                      9
 Frequency:       674.09                 702.60                 722.94
 Force Cnst:      1.2427                 1.6274                 0.4260
 Red. Mass:       4.6419                 5.5951                 1.3834
 IR Active:          YES                    YES                    YES
 IR Intens:        1.802                  6.307                 30.716
 Raman Active:       YES                    YES                    YES
               X      Y      Z        X      Y      Z        X      Y      Z
 C          0.010  0.050  0.110    0.062  0.327 -0.288    0.006 -0.003  0.002
 C         -0.086  0.259 -0.258   -0.141 -0.078  0.129    0.012 -0.048 -0.089
 C         -0.173 -0.072  0.091   -0.133 -0.116  0.086    0.004 -0.053 -0.094
 C         -0.009 -0.192  0.010   -0.041 -0.082  0.075   -0.041 -0.012  0.012
 C          0.124 -0.173  0.008    0.155 -0.097 -0.123    0.007  0.018  0.029
 N          0.129  0.003 -0.030    0.058  0.055  0.223    0.002  0.068  0.024
 H          0.061 -0.196  0.160    0.044  0.372 -0.429   -0.003  0.014 -0.027
 H          0.199  0.364 -0.375   -0.196 -0.107  0.155   -0.030  0.296  0.600
 H          0.022 -0.123  0.330   -0.167 -0.172 -0.046   -0.066  0.422  0.561
 H          0.042 -0.005 -0.212   -0.065  0.147  0.168   -0.053  0.054  0.051
 H          0.125 -0.229 -0.171    0.083 -0.159 -0.165    0.010 -0.012 -0.087
 C         -0.049  0.135  0.087    0.045 -0.024 -0.106    0.018 -0.044  0.017
 H         -0.056  0.082  0.116    0.124 -0.010 -0.078    0.050 -0.025  0.025
 TransDip   0.027 -0.032  0.010   -0.008  0.005 -0.080   -0.023  0.090  0.151

 Mode:                10                     11                     12
 Frequency:       772.33                 839.91                 886.44
 Force Cnst:      1.9124                 1.2011                 0.7696
 Red. Mass:       5.4415                 2.8897                 1.6623
 IR Active:          YES                    YES                    YES
 IR Intens:        3.694                 21.047                  9.620
 Raman Active:       YES                    YES                    YES
               X      Y      Z        X      Y      Z        X      Y      Z
 C         -0.236 -0.210 -0.041    0.107 -0.106  0.022    0.010 -0.048  0.048
 C         -0.029  0.072 -0.009   -0.015  0.006 -0.006    0.022 -0.018  0.011
 C         -0.045 -0.136  0.153    0.006  0.190 -0.098    0.022  0.012 -0.012
 C          0.174 -0.052 -0.002    0.020 -0.073  0.055   -0.093 -0.030 -0.029
 C          0.038  0.168  0.041    0.001 -0.170  0.078    0.076 -0.033 -0.157
 N         -0.004  0.269  0.111   -0.023  0.207  0.048    0.012  0.083  0.026
 H         -0.195 -0.296  0.184    0.079 -0.024 -0.036    0.008 -0.111 -0.018
 H          0.340  0.153 -0.259   -0.325 -0.184 -0.036   -0.025 -0.073 -0.042
 H         -0.038 -0.192  0.079   -0.019  0.050 -0.385    0.049  0.019  0.046
 H          0.171 -0.012  0.008   -0.019  0.034  0.229   -0.141  0.052  0.167
 H         -0.163  0.018  0.019   -0.116 -0.411 -0.443   -0.362 -0.069  0.853
 C          0.063 -0.119 -0.264   -0.037 -0.037 -0.038   -0.012  0.035  0.021
 H          0.346 -0.115 -0.110   -0.273 -0.089 -0.149    0.005  0.012  0.046
 TransDip   0.029 -0.054 -0.002   -0.015 -0.120 -0.084   -0.051 -0.055  0.065

 Mode:                13                     14                     15
 Frequency:       927.91                 936.29                 953.77
 Force Cnst:      0.7425                 1.7842                 1.2999
 Red. Mass:       1.4636                 3.4543                 2.4255
 IR Active:          YES                    YES                    YES
 IR Intens:        2.031                  5.610                  0.221
 Raman Active:       YES                    YES                    YES
               X      Y      Z        X      Y      Z        X      Y      Z
 C          0.061 -0.021 -0.013    0.229 -0.204 -0.158    0.114 -0.027 -0.021
 C         -0.026 -0.019 -0.118   -0.001  0.072  0.028   -0.049  0.096  0.037
 C         -0.031  0.026  0.078   -0.059 -0.074  0.036   -0.047 -0.101 -0.099
 C          0.055  0.020  0.067   -0.148 -0.028 -0.039    0.156  0.075  0.162
 C         -0.017  0.032 -0.051   -0.069  0.128  0.012   -0.034  0.008 -0.096
 N         -0.038 -0.023  0.009   -0.050  0.075  0.055   -0.087 -0.055  0.013
 H          0.079  0.005  0.127    0.163 -0.061 -0.432    0.144  0.067  0.258
 H         -0.033  0.365  0.599   -0.111 -0.104 -0.176    0.058 -0.049 -0.352
 H          0.048 -0.379 -0.446    0.207 -0.262  0.205   -0.234  0.357  0.315
 H          0.084 -0.058 -0.053   -0.051 -0.213 -0.469    0.178  0.049  0.067
 H         -0.107  0.030  0.174    0.089  0.214 -0.151   -0.245 -0.080  0.152
 C          0.013 -0.004  0.001    0.085  0.053  0.136    0.006 -0.009 -0.016
 H         -0.182 -0.041 -0.088   -0.038  0.021  0.089   -0.430 -0.085 -0.223
 TransDip   0.041  0.016  0.013    0.010 -0.017 -0.073    0.006  0.011  0.007

 Mode:                16                     17                     18
 Frequency:       977.31                1046.04                1129.83
 Force Cnst:      1.2573                 1.4341                 0.8887
 Red. Mass:       2.2342                 2.2244                 1.1817
 IR Active:          YES                    YES                    YES
 IR Intens:        1.535                  7.712                  2.648
 Raman Active:       YES                    YES                    YES
               X      Y      Z        X      Y      Z        X      Y      Z
 C         -0.137 -0.070 -0.120   -0.018 -0.051 -0.035   -0.002 -0.002 -0.025
 C         -0.022  0.037 -0.023    0.036 -0.020  0.005    0.017 -0.033  0.026
 C          0.002  0.055 -0.086   -0.006 -0.067  0.080   -0.033  0.014  0.001
 C          0.101 -0.022  0.127    0.002  0.224 -0.084   -0.038 -0.045 -0.045
 C          0.010 -0.016 -0.033   -0.006 -0.168  0.001   -0.005  0.014  0.011
 N         -0.013 -0.041 -0.001   -0.044  0.026 -0.002    0.012  0.011  0.009
 H         -0.192 -0.152 -0.519   -0.036 -0.070 -0.154    0.015 -0.074 -0.009
 H         -0.038  0.064  0.031    0.326  0.159  0.031    0.596  0.244 -0.081
 H         -0.139  0.137 -0.220    0.011 -0.116  0.042   -0.417  0.241 -0.288
 H          0.099 -0.095  0.159   -0.013  0.734 -0.060   -0.108 -0.165  0.248
 H         -0.141 -0.120  0.014   -0.157 -0.335 -0.170    0.101  0.089 -0.015
 C          0.054  0.065  0.151    0.037  0.021  0.059    0.057  0.016  0.045
 H          0.485  0.159  0.357   -0.047 -0.011  0.037   -0.324 -0.058 -0.123
 TransDip  -0.035  0.008  0.018    0.031 -0.082 -0.017    0.034 -0.025 -0.031

 Mode:                19                     20                     21
 Frequency:      1148.60                1174.59                1209.75
 Force Cnst:      1.2814                 1.1619                 1.1208
 Red. Mass:       1.6485                 1.4294                 1.2998
 IR Active:          YES                    YES                    YES
 IR Intens:       19.632                  3.068                  7.013
 Raman Active:       YES                    YES                    YES
               X      Y      Z        X      Y      Z        X      Y      Z
 C          0.141 -0.024  0.084   -0.072  0.004 -0.029    0.032  0.007 -0.128
 C         -0.020  0.016 -0.014   -0.047  0.021 -0.016   -0.008  0.006  0.001
 C         -0.052 -0.031  0.027    0.019 -0.001  0.001    0.032 -0.005  0.006
 C          0.063 -0.032 -0.069    0.056 -0.047 -0.077   -0.009  0.001 -0.040
 C         -0.028  0.052  0.010   -0.004  0.034  0.010   -0.017  0.005  0.003
 N         -0.043 -0.026 -0.021   -0.008 -0.016 -0.006   -0.002  0.001  0.014
 H          0.041  0.197 -0.361   -0.070 -0.033 -0.018    0.232 -0.339  0.755
 H          0.070  0.069 -0.014   -0.295 -0.099  0.020   -0.037 -0.012  0.003
 H         -0.114 -0.014 -0.044    0.340 -0.209  0.217   -0.012  0.021 -0.030
 H         -0.116  0.249  0.665   -0.101  0.175  0.578   -0.086  0.013  0.280
 H          0.005  0.074 -0.018    0.054  0.072 -0.018   -0.049 -0.046 -0.093
 C         -0.079 -0.006 -0.048    0.104  0.022  0.069   -0.056  0.008  0.048
 H          0.428  0.076  0.186   -0.476 -0.071 -0.193    0.286  0.087  0.208
 TransDip   0.094  0.071  0.079    0.043  0.028 -0.024    0.035  0.021  0.074

 Mode:                22                     23                     24
 Frequency:      1289.21                1298.03                1325.57
 Force Cnst:      1.3278                 1.3200                 1.4152
 Red. Mass:       1.3560                 1.3297                 1.3670
 IR Active:          YES                    YES                    YES
 IR Intens:        8.483                  0.641                 14.107
 Raman Active:       YES                    YES                    YES
               X      Y      Z        X      Y      Z        X      Y      Z
 C         -0.027 -0.064 -0.053   -0.009  0.001 -0.004   -0.008 -0.061 -0.027
 C          0.048 -0.003  0.008    0.038  0.042 -0.026   -0.074 -0.013  0.004
 C         -0.025  0.029 -0.012    0.023 -0.052  0.037   -0.005  0.010 -0.018
 C         -0.012 -0.109  0.026    0.023  0.021  0.007    0.014  0.101 -0.016
 C          0.055  0.028  0.016    0.001 -0.098 -0.012    0.044 -0.086  0.001
 N         -0.035 -0.006 -0.027   -0.075  0.051 -0.009   -0.006  0.033 -0.010
 H         -0.094  0.662  0.330    0.017 -0.206 -0.040   -0.090  0.580  0.159
 H          0.033 -0.022 -0.007   -0.308 -0.119  0.055    0.187  0.122 -0.040
 H         -0.072  0.037 -0.081   -0.264  0.150 -0.133    0.229 -0.130  0.154
 H          0.022  0.581 -0.169    0.024  0.039  0.016   -0.021 -0.571  0.201
 H          0.113  0.094  0.086    0.663  0.461  0.226    0.245  0.078  0.086
 C         -0.000  0.011  0.031    0.000 -0.000 -0.002   -0.018  0.003  0.015
 H          0.010  0.022  0.036    0.002 -0.001  0.001    0.087  0.018  0.070
 TransDip   0.027  0.081  0.037    0.017 -0.018 -0.006    0.021 -0.101  0.062

 Mode:                25                     26                     27
 Frequency:      1341.23                1604.01                1648.28
 Force Cnst:      1.5343                 7.5597                10.9520
 Red. Mass:       1.4477                 4.9870                 6.8420
 IR Active:          YES                    YES                    YES
 IR Intens:       14.056                  4.965                 11.934
 Raman Active:       YES                    YES                    YES
               X      Y      Z        X      Y      Z        X      Y      Z
 C          0.025  0.032  0.000    0.030 -0.038  0.017    0.035  0.036  0.016
 C         -0.071 -0.071  0.042   -0.369  0.019 -0.050   -0.182  0.002 -0.023
 C         -0.013  0.091 -0.076    0.392 -0.053  0.071    0.203 -0.041  0.059
 C          0.031 -0.052  0.054   -0.036 -0.047  0.009   -0.078 -0.002 -0.028
 C         -0.006 -0.020 -0.010   -0.168 -0.018 -0.050    0.474  0.117  0.153
 N         -0.059  0.014 -0.001    0.133  0.020  0.043   -0.372 -0.047 -0.106
 H          0.091 -0.378 -0.054   -0.035  0.288 -0.090    0.056 -0.262 -0.139
 H          0.471  0.178 -0.086    0.042  0.268 -0.194   -0.018  0.091 -0.107
 H          0.441 -0.206  0.212   -0.099  0.376 -0.254   -0.101  0.195 -0.149
 H          0.071  0.283 -0.117    0.007  0.394 -0.201   -0.045 -0.207 -0.129
 H          0.299  0.240  0.107    0.016  0.163  0.008   -0.144 -0.463 -0.112
 C         -0.019 -0.008 -0.016    0.002 -0.011  0.014    0.008 -0.005  0.004
 H          0.073  0.018  0.017    0.004 -0.008  0.008   -0.065  0.011 -0.043
 TransDip   0.116 -0.008  0.028   -0.057 -0.040 -0.017    0.090  0.046  0.044

 Mode:                28                     29                     30
 Frequency:      2988.79                3074.06                3104.98
 Force Cnst:      5.7151                 6.0642                 6.1864
 Red. Mass:       1.0859                 1.0892                 1.0891
 IR Active:          YES                    YES                    YES
 IR Intens:       19.325                 16.277                  6.948
 Raman Active:       YES                    YES                    YES
               X      Y      Z        X      Y      Z        X      Y      Z
 C          0.000 -0.000  0.001   -0.083 -0.015  0.012    0.008  0.003 -0.002
 C          0.001 -0.000  0.000    0.006 -0.006  0.003    0.041 -0.063  0.034
 C          0.002  0.001 -0.001    0.001  0.001 -0.001    0.012  0.015 -0.010
 C         -0.082 -0.002 -0.020    0.001 -0.000  0.000    0.002 -0.000  0.000
 C          0.001 -0.001  0.000    0.000  0.000  0.000   -0.000 -0.000 -0.000
 N         -0.000  0.000  0.000   -0.001  0.001 -0.000   -0.000  0.000 -0.000
 H          0.007  0.002  0.001    0.963  0.165 -0.151   -0.090 -0.019  0.017
 H         -0.003  0.005 -0.001   -0.046  0.070 -0.038   -0.433  0.741 -0.399
 H         -0.030 -0.024  0.015   -0.013 -0.014  0.008   -0.198 -0.187  0.117
 H          0.969  0.016  0.226   -0.005 -0.001 -0.002   -0.017 -0.001 -0.004
 H         -0.023  0.026 -0.009    0.005 -0.009  0.003    0.000  0.001 -0.000
 C          0.001  0.001  0.002    0.003 -0.003 -0.004   -0.001  0.000  0.001
 H          0.009 -0.010 -0.015   -0.036  0.038  0.056    0.009 -0.009 -0.013
 TransDip  -0.131 -0.001 -0.052   -0.129 -0.010  0.001    0.057 -0.042  0.046

 Mode:                31                     32                     33
 Frequency:      3147.11                3155.43                3217.64
 Force Cnst:      6.4197                 6.4061                 6.6623
 Red. Mass:       1.1001                 1.0920                 1.0922
 IR Active:          YES                    YES                    YES
 IR Intens:        9.929                  8.104                 32.084
 Raman Active:       YES                    YES                    YES
               X      Y      Z        X      Y      Z        X      Y      Z
 C         -0.000  0.001 -0.001    0.008  0.001  0.001   -0.002  0.001  0.001
 C          0.019 -0.020  0.012    0.002 -0.003  0.002   -0.000  0.000 -0.000
 C         -0.061 -0.051  0.031   -0.007 -0.005  0.004    0.001  0.001 -0.001
 C         -0.003  0.001 -0.002   -0.003  0.000  0.002    0.004  0.002  0.001
 C          0.001 -0.000  0.000    0.001 -0.001  0.000    0.052 -0.067  0.020
 N         -0.000  0.000 -0.000    0.001 -0.000  0.000   -0.002 -0.000 -0.001
 H          0.002 -0.002  0.002   -0.075 -0.013  0.008    0.010  0.001 -0.001
 H         -0.134  0.224 -0.119   -0.018  0.032 -0.018    0.002 -0.003  0.003
 H          0.639  0.595 -0.365    0.065  0.061 -0.037   -0.009 -0.009  0.006
 H          0.032 -0.003  0.011    0.023  0.000  0.004   -0.033 -0.006 -0.009
 H         -0.009  0.011 -0.004   -0.011  0.015 -0.006   -0.582  0.776 -0.224
 C         -0.004  0.005  0.007    0.036 -0.040 -0.067   -0.001  0.001  0.001
 H          0.046 -0.053 -0.081   -0.433  0.481  0.746    0.008 -0.008 -0.011
 TransDip  -0.034 -0.067  0.067    0.011 -0.052 -0.074    0.099 -0.151  0.013

 STANDARD THERMODYNAMIC QUANTITIES AT   298.15 K  AND     1.00 ATM

   This Molecule has  1 Imaginary Frequencies
   Zero point vibrational energy:       62.121 kcal/mol

   Atom    1 Element C  Has Mass   12.00000
   Atom    2 Element C  Has Mass   12.00000
   Atom    3 Element C  Has Mass   12.00000
   Atom    4 Element C  Has Mass   12.00000
   Atom    5 Element C  Has Mass   12.00000
   Atom    6 Element N  Has Mass   14.00307
   Atom    7 Element H  Has Mass    1.00783
   Atom    8 Element H  Has Mass    1.00783
   Atom    9 Element H  Has Mass    1.00783
   Atom   10 Element H  Has Mass    1.00783
   Atom   11 Element H  Has Mass    1.00783
   Atom   12 Element C  Has Mass   12.00000
   Atom   13 Element H  Has Mass    1.00783
   Molecular Mass:    92.050050 amu
   Principal axes and moments of inertia in amu*Bohr^2:
                             1           2           3
    Eigenvalues --      382.09016   494.65933   605.68550
          X               0.03419     0.99731    -0.06478
          Y               0.96936    -0.01732     0.24502
          Z              -0.24324     0.07117     0.96735
   Rotational Symmetry Number is   1
   The Molecule is an Asymmetric Top
   Translational Enthalpy:        0.889 kcal/mol
   Rotational Enthalpy:           0.889 kcal/mol
   Vibrational Enthalpy:         63.568 kcal/mol
   gas constant (RT):             0.592 kcal/mol
   Translational Entropy:        39.471  cal/mol.K
   Rotational Entropy:           26.240  cal/mol.K
   Vibrational Entropy:           6.696  cal/mol.K

   Total Enthalpy:               65.938 kcal/mol
   Total Entropy:                72.407  cal/mol.K
Archival summary:
1\1\c8-72\FREQ\ProcedureUnspecified\6-31G*\166(2)\hpark21\WedMar217:24:102022WedMar217:24:102022\0\\#,FREQ,ProcedureUnspecified,6-31G*,\\0,2\N\C,1,1.28588\H,2,1.08465,1,123.499\C,2,1.50406,1,116.134,3,170.825,0\H,4,1.10818,2,108.853,1,172,0\C,1,1.50909,2,103.238,3,-158.273,0\H,6,1.09938,1,103.81,2,151.042,0\C,6,1.51681,1,102.273,2,30.8697,0\H,8,1.09316,6,118.676,1,140.004,0\C,4,1.523,2,115.325,1,46.8527,0\H,10,1.09389,4,122.734,2,130.205,0\C,10,1.34528,4,110.165,2,-60.0874,0\H,12,1.09811,10,120.685,4,-159.599,0\\\@

 Total job time:  273.78s(wall), 262.83s(cpu) 
 Wed Mar  2 17:24:10 2022

        *************************************************************
        *                                                           *
        *  Thank you very much for using Q-Chem.  Have a nice day.  *
        *                                                           *
        *************************************************************


