
Running Job 1 of 1 qcts2.in
qchem qcts2.in_61964.0 ./qcts2.d/ 1
/home/leeping/opt/qchem/5.0.2-openmp/exe/qcprog.exe_s qcts2.in_61964.0 ./qcts2.d/
Check license passed

                  Welcome to Q-Chem
     A Quantum Leap Into The Future Of Chemistry


 Q-Chem 5.0, Q-Chem, Inc., Pleasanton, CA (2017)

 Yihan Shao,  Zhengting Gan,  E. Epifanovsky,  A. T. B. Gilbert,  M. Wormit,  
 J. Kussmann,  A. W. Lange,  A. Behn,  Jia Deng,  Xintian Feng,  D. Ghosh,  
 M. Goldey,  P. R. Horn,  L. D. Jacobson,  I. Kaliman,  T. Kus,  A. Landau,  
 Jie Liu,  E. I. Proynov,  R. M. Richard,  R. P. Steele,  E. J. Sundstrom,  
 H. L. Woodcock III,  P. M. Zimmerman,  D. Zuev,  B. Albrecht,  E. Alguire,  
 S. A. Baeppler,  D. Barton,  Z. Benda,  Y. A. Bernard,  E. J. Berquist,  
 K. B. Bravaya,  H. Burton,  D. Casanova,  Chun-Min Chang,  Yunqing Chen,  
 A. Chien,  K. D. Closser,  M. P. Coons,  S. Dasgupta,  A. L. Dempwolff,  
 M. Diedenhofen,  Hainam Do,  R. G. Edgar,  Po-Tung Fang,  S. Fatehi,  
 Qingguo Feng,  J. Fosso-Tande,  Qinghui Ge,  A. Ghysels,  G. Gidofalvi,  
 J. Gomes,  J. Gonthier,  A. Gunina,  M. W. D. Hanson-Heine,  
 P. H. P. Harbach,  A. W. Hauser,  J. E. Herr,  E. G. Hohenstein,  
 Z. C. Holden,  Kerwin Hui,  T.-C. Jagau,  Hyunjun Ji,  B. Kaduk,  
 K. Khistyaev,  Jaehoon Kim,  P. Klunzinger,  K. Koh,  D. Kosenkov,  
 L. Koulias,  T. Kowalczyk,  C. M. Krauter,  A. Kunitsa,  Ka Un Lao,  
 A. Laurent,  K. V. Lawler,  Joonho Lee,  D. Lefrancois,  S. Lehtola,  
 D. S. Levine,  Yi-Pei Li,  You-Sheng Lin,  Fenglai Liu,  E. Livshits,  
 A. Luenser,  P. Manohar,  E. Mansoor,  S. F. Manzer,  Shan-Ping Mao,  
 Yuezhi Mao,  N. Mardirossian,  A. V. Marenich,  T. Markovich,  
 L. A. Martinez-Martinez,  S. A. Maurer,  N. J. Mayhall,  S. C. McKenzie,  
 J.-M. Mewes,  A. F. Morrison,  J. W. Mullinax,  K. Nanda,  
 T. S. Nguyen-Beck,  R. Olivares-Amaya,  J. A. Parkhill,  T. M. Perrine,  
 F. Plasser,  S. Prager,  A. Prociuk,  E. Ramos,  D. R. Rehn,  F. Rob,  
 M. Schneider,  N. Sergueev,  S. M. Sharada,  S. Sharma,  D. W. Small,  
 T. Stauch,  T. Stein,  Yu-Chuan Su,  A. J. W. Thom,  A. Tkatchenko,  
 T. Tsuchimochi,  L. Vogt,  O. Vydrov,  M. A. Watson,  J. Wenzel,  
 M. de Wergifosse,  T. A. Wesolowski,  A. White,  J. Witte,  A. Yamada,  
 Jun Yang,  K. Yao,  S. Yeganeh,  S. R. Yost,  Zhi-Qiang You,  A. Zech,  
 Igor Ying Zhang,  Xing Zhang,  Yan Zhao,  Ying Zhu,  B. R. Brooks,  
 G. K. L. Chan,  C. J. Cramer,  M. S. Gordon,  W. J. Hehre,  A. Klamt,  
 M. W. Schmidt,  C. D. Sherrill,  D. G. Truhlar,  A. Aspuru-Guzik,  R. Baer,  
 A. T. Bell,  N. A. Besley,  Jeng-Da Chai,  R. A. DiStasio Jr.,  A. Dreuw,  
 B. D. Dunietz,  T. R. Furlani,  Chao-Ping Hsu,  Yousung Jung,  Jing Kong,  
 D. S. Lambrecht,  WanZhen Liang,  C. Ochsenfeld,  V. A. Rassolov,  
 L. V. Slipchenko,  J. E. Subotnik,  T. Van Voorhis,  J. M. Herbert,  
 A. I. Krylov,  P. M. W. Gill,  M. Head-Gordon

 Contributors to earlier versions of Q-Chem not listed above: 
 R. D. Adamson,  B. Austin,  J. Baker,  G. J. O. Beran,  K. Brandhorst,  
 S. T. Brown,  E. F. C. Byrd,  A. K. Chakraborty,  C.-L. Cheng,  
 Siu Hung Chien,  D. M. Chipman,  D. L. Crittenden,  H. Dachsel,  
 R. J. Doerksen,  A. D. Dutoi,  L. Fusti-Molnar,  W. A. Goddard III,  
 A. Golubeva-Zadorozhnaya,  S. R. Gwaltney,  G. Hawkins,  A. Heyden,  
 S. Hirata,  G. Kedziora,  F. J. Keil,  C. Kelley,  Jihan Kim,  R. A. King,  
 R. Z. Khaliullin,  P. P. Korambath,  W. Kurlancheek,  A. M. Lee,  M. S. Lee,  
 S. V. Levchenko,  Ching Yeh Lin,  D. Liotard,  R. C. Lochan,  I. Lotan,  
 P. E. Maslen,  N. Nair,  D. P. O'Neill,  D. Neuhauser,  E. Neuscamman,  
 C. M. Oana,  R. Olson,  B. Peters,  R. Peverati,  P. A. Pieniazek,  
 Y. M. Rhee,  J. Ritchie,  M. A. Rohrdanz,  E. Rosta,  N. J. Russ,  
 H. F. Schaefer III,  N. E. Schultz,  N. Shenvi,  A. C. Simmonett,  A. Sodt,  
 D. Stuck,  K. S. Thanthiriwatte,  V. Vanovschi,  Tao Wang,  A. Warshel,  
 C. F. Williams,  Q. Wu,  X. Xu,  W. Zhang

 Please cite Q-Chem as follows:
 Y. Shao et al., Mol. Phys. 113, 184-215 (2015)
 DOI: 10.1080/00268976.2014.952696

 Q-Chem 5.0.2 for Intel X86 EM64T Linux

 Parts of Q-Chem use Armadillo 5.200.1 (Boston Tea Smuggler).
 http://arma.sourceforge.net/

 Q-Chem begins on Wed Mar  2 17:34:23 2022  

Host: 
0

     Scratch files written to ./qcts2.d//
 Dec517 15110_ 26548  26544 5633   
Processing $rem in /home/leeping/opt/qchem/5.0.2-openmp/config/preferences.
 MEM_STATIC 2000
 MEM_TOTAL  8000
 SYMMETRY   OFF
 SYM_IGNORE TRUE 

Checking the input file for inconsistencies... 	...done.

--------------------------------------------------------------
User input:
--------------------------------------------------------------
$molecule
0 2
C        1.2162822352    0.1244111442   -0.0309853898
C        0.6069047239   -0.8817577524    0.9582389111
C       -0.7047276325   -0.9487422303    0.6864653176
C       -0.9611156418    0.0110511223   -0.4943925700
C       -0.5809164843    1.4146141623    0.0469193395
N        0.6603540796    1.5116991538    0.3326865896
H        2.3009311857    0.1448153533   -0.1194463519
H        1.1535525221   -1.3773462299    1.7525081208
H       -1.4750529475   -1.5037083156    1.2098659796
H       -1.9106343682   -0.0823450893   -1.0209894079
H       -1.2804107067    2.2361119205    0.1949323962
C        0.3551563903   -0.2054161296   -1.2271459693
H        0.5838308790   -0.4767341890   -2.2477029587
$end

$rem
method                b3lyp
basis                 6-31+g(d,p)
unrestricted          true
symmetry              off
sym_ignore            true
incdft                false
incfock               0
scf_convergence       8
thresh                14
jobtype               sp
scf_guess             core
scf_guess_mix         5
scf_algorithm         diis
max_scf_cycles        100
$end

--------------------------------------------------------------
 ----------------------------------------------------------------
             Standard Nuclear Orientation (Angstroms)
    I     Atom           X                Y                Z
 ----------------------------------------------------------------
    1      C       1.2162822352     0.1244111442    -0.0309853898
    2      C       0.6069047239    -0.8817577524     0.9582389111
    3      C      -0.7047276325    -0.9487422303     0.6864653176
    4      C      -0.9611156418     0.0110511223    -0.4943925700
    5      C      -0.5809164843     1.4146141623     0.0469193395
    6      N       0.6603540796     1.5116991538     0.3326865896
    7      H       2.3009311857     0.1448153533    -0.1194463519
    8      H       1.1535525221    -1.3773462299     1.7525081208
    9      H      -1.4750529475    -1.5037083156     1.2098659796
   10      H      -1.9106343682    -0.0823450893    -1.0209894079
   11      H      -1.2804107067     2.2361119205     0.1949323962
   12      C       0.3551563903    -0.2054161296    -1.2271459693
   13      H       0.5838308790    -0.4767341890    -2.2477029587
 ----------------------------------------------------------------
 Nuclear Repulsion Energy =   278.7462921325 hartrees
 There are       25 alpha and       24 beta electrons
 Requested basis set is 6-31+G(d,p)
 There are 53 shells and 163 basis functions

 Total QAlloc Memory Limit   8000 MB
 Mega-Array Size      1956 MB
 MEM_STATIC part      2000 MB

                       Distance Matrix (Angstroms)
             C (  1)   C (  2)   C (  3)   C (  4)   C (  5)   N (  6)
   C (  2)  1.536972
   C (  3)  2.314449  1.341166
   C (  4)  2.229049  2.316449  1.543167
   C (  5)  2.213734  2.741304  2.451490  1.551631
   N (  6)  1.538142  2.474431  2.835909  2.359061  1.277435
   H (  7)  1.088442  2.254991  3.298385  3.286248  3.153587  2.182725
   H (  8)  2.332393  1.084110  2.184801  3.383494  3.703034  3.256643
   H (  9)  3.381386  2.187393  1.084129  2.337333  3.266272  3.797643
   H ( 10)  3.286406  3.300668  2.262798  1.089777  2.269243  3.314121
   H ( 11)  3.277773  3.723669  3.273578  2.351173  1.089063  2.076131
   C ( 12)  1.510339  2.301461  2.310367  1.521959  2.263619  2.339809
   H ( 13)  2.382269  3.231507  3.239216  2.387235  3.193607  3.258548
             H (  7)   H (  8)   H (  9)   H ( 10)   H ( 11)   C ( 12)
   H (  8)  2.671641
   H (  9)  4.329291  2.687005
   H ( 10)  4.312965  4.331115  2.680806
   H ( 11)  4.159130  4.626802  3.879978  2.692748
   C ( 12)  2.266208  3.299878  3.312741  2.278476  3.264728
   H ( 13)  2.804324  4.139731  4.153127  2.807619  4.098951  1.080482

 
 A cutoff of  1.0D-14 yielded   1410 shell pairs
 There are     13522 function pairs
 
 -------------------------------------------------------
 OpenMP Integral Computing Module                       
 Release: version 1.0, May 2013, Q-Chem Inc. Pittsburgh 
 -------------------------------------------------------
 Integral Job Info:
 Integral job number is                      11
 Integral operator is                         1
 short-range coefficients                     0
 long-range coefficients              100000000
 Omega coefficients                           0
 if combine SR and LR in K                    0
 Integral screening is                        0
 Integral computing path is                   2
 max size of driver memory is            800000
 size of driver memory is                593474
 size of scratch memory is              2361544
 max col of scratch BK array               1296
 max len of scratch array in speh3          155
 max len of scratch index in speh4           18
 max int batch size is                      520
 min int batch size is                       52
 fixed nKL is                                52
 max L of basis functions is                  2
 order of int derivative is                   0
 number of shells is                         53
 number of basis is                         163
 number of cartesian basis is               163
 number of contracted shell pairs          1410
 number of primitive shell pairs           4805
 maxK2 (contraction) of shell pair           36
 max number of K2 of shell pair               1
 max number of CS2 of shell pair            127
 max number of PS2 of shell pair            672
 mem total for path MDJ                  535308
 -------------------------------------------------------
 Smallest overlap matrix eigenvalue = 2.20E-05

 Scale SEOQF with 1.000000e-01/1.000000e-01/1.000000e-01

 Standard Electronic Orientation quadrupole field applied
 Nucleus-field energy     =     0.0000000016 hartrees
 Guess MOs from core Hamiltonian diagonalization
 Mixing HOMO and LUMO in initial guess
 Adding  50% of the LUMO to the HOMO
 An unrestricted hybrid HF-DFT SCF calculation will be
 performed using Pulay DIIS extrapolation
 Exchange:     0.2000 Hartree-Fock + 0.0800 Slater + 0.7200 B88
 Correlation:  0.1900 VWN1RPA + 0.8100 LYP
 Using SG-1 standard quadrature grid
 SCF converges when DIIS error is below 1.0E-08
 using 4 threads for integral computing
 -------------------------------------------------------
 OpenMP Integral computing Module                
 Release: version 1.0, May 2013, Q-Chem Inc. Pittsburgh 
 -------------------------------------------------------
 -------------------------------------------------------
 OpenMP BLAS3 based DFT computing Module                
 Release: version 1.0, May 2013, Q-Chem Inc. Pittsburgh 
 -------------------------------------------------------
 ---------------------------------------
  Cycle       Energy         DIIS Error
 ---------------------------------------
    1    -235.0618338636      1.00E-01
    2    -215.4298925908      7.08E-02
    3    -253.2807166618      7.85E-02
    4    -280.8871605756      3.76E-02
    5    -280.4473521766      3.43E-02
    6    -286.1219878772      1.34E-02
    7    -286.2378247027      1.30E-02
    8    -286.7854495543      5.02E-03
    9    -286.8448747827      2.84E-03
   10    -286.8675185804      9.01E-04
   11    -286.8699374914      2.98E-04
   12    -286.8702316857      6.57E-05
   13    -286.8702484534      2.32E-05
   14    -286.8702505914      6.59E-06
   15    -286.8702508956      1.93E-06
   16    -286.8702509637      9.54E-07
   17    -286.8702509869      3.27E-07
   18    -286.8702509959      1.02E-07
   19    -286.8702509991      5.65E-08
   20    -286.8702510018      2.60E-08
   21    -286.8702510026      8.36E-09 Convergence criterion met
 ---------------------------------------
 <S^2> = 0.7554
 SCF time:  CPU 107.44 s  wall 33.29 s
 SCF   energy in the final basis set = -286.87025100
 Total energy in the final basis set = -286.87025100
 
 --------------------------------------------------------------
 
                    Orbital Energies (a.u.)
 --------------------------------------------------------------
 
 Alpha MOs
 -- Occupied --
-14.337 -10.235 -10.230 -10.220 -10.211 -10.207 -10.204  -0.963
 -0.829  -0.734  -0.716  -0.585  -0.581  -0.540  -0.521  -0.476
 -0.435  -0.420  -0.390  -0.380  -0.359  -0.304  -0.277  -0.269
 -0.194
 -- Virtual --
 -0.039   0.003   0.006   0.021   0.024   0.033   0.048   0.048
  0.067   0.073   0.073   0.085   0.105   0.107   0.108   0.122
  0.124   0.131   0.138   0.149   0.171   0.172   0.186   0.190
  0.194   0.200   0.207   0.214   0.229   0.235   0.241   0.247
  0.253   0.258   0.276   0.280   0.308   0.328   0.334   0.348
  0.366   0.395   0.423   0.453   0.620   0.683   0.693   0.710
  0.714   0.723   0.734   0.738   0.751   0.774   0.787   0.800
  0.814   0.841   0.856   0.868   0.899   0.944   0.952   0.972
  1.009   1.019   1.032   1.068   1.072   1.094   1.121   1.155
  1.217   1.274   1.283   1.346   1.365   1.408   1.439   1.486
  1.551   1.612   1.633   1.679   1.748   1.770   1.812   1.831
  1.848   1.897   1.941   1.969   2.037   2.058   2.090   2.146
  2.156   2.194   2.220   2.229   2.304   2.336   2.372   2.385
  2.401   2.441   2.450   2.482   2.499   2.502   2.521   2.526
  2.577   2.635   2.641   2.657   2.670   2.731   2.779   2.797
  2.835   2.872   2.938   3.055   3.121   3.279   3.323   3.336
  3.488   3.616   3.723   4.139   4.396   4.477   4.565   4.609
  4.762   4.858
 
 Beta MOs
 -- Occupied --
-14.335 -10.235 -10.231 -10.221 -10.206 -10.203 -10.197  -0.958
 -0.823  -0.733  -0.700  -0.583  -0.566  -0.537  -0.519  -0.465
 -0.431  -0.417  -0.389  -0.378  -0.354  -0.298  -0.271  -0.262
 -- Virtual --
 -0.055  -0.033   0.003   0.008   0.022   0.025   0.035   0.048
  0.049   0.071   0.073   0.074   0.086   0.106   0.107   0.109
  0.122   0.130   0.132   0.140   0.150   0.171   0.173   0.187
  0.192   0.198   0.202   0.209   0.220   0.232   0.239   0.242
  0.249   0.257   0.260   0.277   0.283   0.310   0.330   0.336
  0.351   0.373   0.398   0.425   0.454   0.623   0.684   0.712
  0.714   0.722   0.733   0.740   0.749   0.753   0.784   0.791
  0.803   0.820   0.844   0.860   0.876   0.901   0.946   0.953
  0.975   1.010   1.027   1.034   1.071   1.081   1.095   1.123
  1.157   1.219   1.280   1.286   1.349   1.368   1.409   1.441
  1.490   1.560   1.621   1.654   1.686   1.753   1.776   1.816
  1.841   1.853   1.902   1.946   1.970   2.051   2.061   2.093
  2.153   2.164   2.202   2.230   2.242   2.308   2.339   2.380
  2.387   2.409   2.441   2.457   2.485   2.500   2.506   2.522
  2.529   2.579   2.637   2.655   2.669   2.674   2.734   2.782
  2.799   2.838   2.875   2.941   3.057   3.123   3.280   3.325
  3.337   3.489   3.621   3.723   4.141   4.403   4.479   4.577
  4.620   4.767   4.858
 --------------------------------------------------------------
 
          Ground-State Mulliken Net Atomic Charges

     Atom                 Charge (a.u.)    Spin (a.u.)
  --------------------------------------------------------
      1 C                     0.037526      -0.104090
      2 C                    -0.139319       0.008912
      3 C                    -0.122760       0.078099
      4 C                     0.026886      -0.087058
      5 C                    -0.115199      -0.021605
      6 N                    -0.198967       0.069182
      7 H                     0.126673       0.001897
      8 H                     0.137279      -0.000572
      9 H                     0.136764      -0.002008
     10 H                     0.122874       0.001801
     11 H                     0.138005       0.000508
     12 C                    -0.291044       1.104344
     13 H                     0.141282      -0.049412
  --------------------------------------------------------
  Sum of atomic charges =    -0.000000
  Sum of spin   charges =     1.000000

 -----------------------------------------------------------------
                    Cartesian Multipole Moments
 -----------------------------------------------------------------
    Charge (ESU x 10^10)
                 0.0000
    Dipole Moment (Debye)
         X      -1.4447      Y      -1.5893      Z      -0.6178
       Tot       2.2349
    Quadrupole Moments (Debye-Ang)
        XX     -37.8250     XY      -3.8038     YY     -45.9999
        XZ      -0.3414     YZ      -2.2344     ZZ     -40.6800
    Octopole Moments (Debye-Ang^2)
       XXX      -9.1492    XXY      -7.6911    XYY     -13.6313
       YYY     -18.9494    XXZ      -1.1410    XYZ      -1.6402
       YYZ      -0.3737    XZZ      -1.9504    YZZ     -11.0188
       ZZZ      -7.8919
    Hexadecapole Moments (Debye-Ang^3)
      XXXX    -221.8022   XXXY      -5.8372   XXYY     -87.7062
      XYYY     -23.4255   YYYY    -310.0500   XXXZ      -4.5192
      XXYZ       0.4939   XYYZ      -5.8403   YYYZ       7.5856
      XXZZ     -69.1470   XYZZ      -4.5747   YYZZ     -82.4872
      XZZZ      -5.2763   YZZZ      14.2451   ZZZZ    -191.6511
 -----------------------------------------------------------------
Archival summary:
1\1\c8-72\SP\ProcedureUnspecified\6-31+G**\166(2)\hpark21\WedMar217:35:002022WedMar217:35:002022\0\\#,ProcedureUnspecified,6-31+G**,\\0,2\N\C,1,1.27744\H,2,1.08906,1,122.437\C,1,1.53814,2,103.283,3,179.539,0\H,4,1.08844,1,111.252,2,163.182,0\C,4,1.51034,1,100.262,2,34.557,0\H,6,1.08048,4,133.018,1,124.236,0\C,6,1.52196,4,94.6309,1,-54.5337,0\H,8,1.08978,6,120.578,4,177.216,0\C,4,1.53697,1,107.155,2,-67.3049,0\H,10,1.08411,4,124.812,1,-108.809,0\C,10,1.34117,4,106.859,1,67.7631,0\H,12,1.08413,10,128.509,4,-175.919,0\\\@

 Total job time:  36.39s(wall), 109.15s(cpu) 
 Wed Mar  2 17:35:00 2022

        *************************************************************
        *                                                           *
        *  Thank you very much for using Q-Chem.  Have a nice day.  *
        *                                                           *
        *************************************************************


