13   
From optimize.out: Frame 1 / 26, Energy=    -286.6936324126
C        0.0376060000    0.3588470000   -0.0000000000
C       -0.2396620000   -0.0643450000   -0.0000000000
C       -0.0846530000    0.2445410000   -0.0000000000
C       -0.1745360000   -0.1332040000   -0.0000000000
C       -0.0317060000    0.0655350000   -0.0000000000
N       -0.3333240000   -0.1375790000   -0.0000000000
H        0.1517480000   -0.0204400000   -0.0000000000
H        0.1516400000    0.0142940000   -0.0000000000
H        0.1687610000   -0.0127750000   -0.0000000000
H        0.1604220000    0.0045650000   -0.0000000000
H        0.1750400000   -0.0018700000   -0.0000000000
C       -0.1154430000    0.6187830000   -0.0000000000
H        0.1341070000    0.0636470000    0.0000000000
13   
From optimize.out: Frame 2 / 26, Energy=    -286.7268543876
C        0.0473220000    0.2612000000   -0.0000000000
C       -0.2443530000   -0.0605980000   -0.0000000000
C       -0.0910210000    0.2713230000   -0.0000000000
C       -0.1724610000   -0.1113740000   -0.0000000000
C       -0.0287460000    0.0534980000   -0.0000000000
N       -0.3319270000   -0.0841350000   -0.0000000000
H        0.1526790000   -0.0142130000   -0.0000000000
H        0.1487920000    0.0147410000   -0.0000000000
H        0.1736020000   -0.0144350000   -0.0000000000
H        0.1586110000    0.0063930000   -0.0000000000
H        0.1711020000    0.0001640000   -0.0000000000
C       -0.1143860000    0.6184430000   -0.0000000000
H        0.1307850000    0.0589910000    0.0000000000
13   
From optimize.out: Frame 3 / 26, Energy=    -286.7533419934
C        0.0585660000    0.1869640000   -0.0000000000
C       -0.2484520000   -0.0586740000   -0.0000000000
C       -0.0958580000    0.3082760000   -0.0000000000
C       -0.1685430000   -0.1089280000   -0.0000000000
C       -0.0281180000    0.0438880000   -0.0000000000
N       -0.3280820000   -0.0459150000   -0.0000000000
H        0.1505260000   -0.0090560000   -0.0000000000
H        0.1468110000    0.0148750000   -0.0000000000
H        0.1754040000   -0.0163040000   -0.0000000000
H        0.1563120000    0.0092850000   -0.0000000000
H        0.1663960000    0.0017880000   -0.0000000000
C       -0.1124270000    0.6205500000   -0.0000000000
H        0.1274650000    0.0532510000    0.0000000000
13   
From optimize.out: Frame 4 / 26, Energy=    -286.7730641996
C        0.0673280000    0.1384940000   -0.0000000000
C       -0.2510730000   -0.0588440000   -0.0000000000
C       -0.1012750000    0.3469480000   -0.0000000000
C       -0.1645480000   -0.1223920000   -0.0000000000
C       -0.0268570000    0.0372990000   -0.0000000000
N       -0.3268800000   -0.0231360000   -0.0000000000
H        0.1491640000   -0.0054300000   -0.0000000000
H        0.1451840000    0.0152380000   -0.0000000000
H        0.1751110000   -0.0182410000   -0.0000000000
H        0.1544310000    0.0118120000   -0.0000000000
H        0.1626850000    0.0032220000   -0.0000000000
C       -0.1092620000    0.6289720000   -0.0000000000
H        0.1259920000    0.0460580000    0.0000000000
13   
From optimize.out: Frame 5 / 26, Energy=    -286.7889023469
C        0.0741600000    0.1041320000   -0.0000000000
C       -0.2529380000   -0.0597210000   -0.0000000000
C       -0.1061240000    0.3845300000   -0.0000000000
C       -0.1595470000   -0.1409040000   -0.0000000000
C       -0.0260600000    0.0309320000   -0.0000000000
N       -0.3272190000   -0.0070460000   -0.0000000000
H        0.1479470000   -0.0028050000   -0.0000000000
H        0.1438300000    0.0154860000   -0.0000000000
H        0.1741370000   -0.0200450000   -0.0000000000
H        0.1525800000    0.0139080000   -0.0000000000
H        0.1592170000    0.0044010000   -0.0000000000
C       -0.1056770000    0.6392030000   -0.0000000000
H        0.1256940000    0.0379290000    0.0000000000
13   
From optimize.out: Frame 6 / 26, Energy=    -286.8015363767
C        0.0796570000    0.0775860000   -0.0000000000
C       -0.2544660000   -0.0609190000   -0.0000000000
C       -0.1107050000    0.4207310000   -0.0000000000
C       -0.1538590000   -0.1608060000   -0.0000000000
C       -0.0255780000    0.0246400000   -0.0000000000
N       -0.3287520000    0.0062400000   -0.0000000000
H        0.1470300000   -0.0008740000   -0.0000000000
H        0.1425790000    0.0155680000   -0.0000000000
H        0.1726530000   -0.0217260000   -0.0000000000
H        0.1509240000    0.0154040000   -0.0000000000
H        0.1561430000    0.0053980000   -0.0000000000
C       -0.1020210000    0.6496050000   -0.0000000000
H        0.1263980000    0.0291530000    0.0000000000
13   
From optimize.out: Frame 7 / 26, Energy=    -286.8110639237
C        0.0841660000    0.0567600000   -0.0000000000
C       -0.2557810000   -0.0623290000   -0.0000000000
C       -0.1149280000    0.4556730000   -0.0000000000
C       -0.1481250000   -0.1800520000   -0.0000000000
C       -0.0257250000    0.0191560000   -0.0000000000
N       -0.3307710000    0.0180100000   -0.0000000000
H        0.1461660000    0.0004770000   -0.0000000000
H        0.1414560000    0.0154650000   -0.0000000000
H        0.1708110000   -0.0233030000   -0.0000000000
H        0.1496320000    0.0162150000   -0.0000000000
H        0.1534240000    0.0061550000   -0.0000000000
C       -0.0983750000    0.6578060000   -0.0000000000
H        0.1280510000    0.0199680000    0.0000000000
13   
From optimize.out: Frame 8 / 26, Energy=    -286.8175231788
C        0.0876340000    0.0406870000   -0.0000000000
C       -0.2568960000   -0.0638990000   -0.0000000000
C       -0.1184950000    0.4889720000   -0.0000000000
C       -0.1432660000   -0.1971910000   -0.0000000000
C       -0.0265320000    0.0151180000   -0.0000000000
N       -0.3329480000    0.0289620000   -0.0000000000
H        0.1453900000    0.0013310000   -0.0000000000
H        0.1405020000    0.0152120000   -0.0000000000
H        0.1687020000   -0.0248190000   -0.0000000000
H        0.1488470000    0.0163520000   -0.0000000000
H        0.1512460000    0.0066280000   -0.0000000000
C       -0.0946980000    0.6620140000   -0.0000000000
H        0.1305130000    0.0106330000    0.0000000000
13   
From optimize.out: Frame 9 / 26, Energy=    -286.8212493953
C        0.0899190000    0.0284850000   -0.0000000000
C       -0.2578390000   -0.0654280000   -0.0000000000
C       -0.1209600000    0.5227480000   -0.0000000000
C       -0.1391320000   -0.2109900000   -0.0000000000
C       -0.0282630000    0.0119570000   -0.0000000000
N       -0.3347010000    0.0393250000   -0.0000000000
H        0.1446630000    0.0018210000   -0.0000000000
H        0.1397430000    0.0147100000   -0.0000000000
H        0.1664350000   -0.0264680000   -0.0000000000
H        0.1484030000    0.0160430000   -0.0000000000
H        0.1496190000    0.0067790000   -0.0000000000
C       -0.0912570000    0.6594220000   -0.0000000000
H        0.1333700000    0.0015950000    0.0000000000
13   
From optimize.out: Frame 10 / 26, Energy=    -286.8230279420
C        0.0910020000    0.0193030000   -0.0000000000
C       -0.2587040000   -0.0665560000   -0.0000000000
C       -0.1223500000    0.5633980000   -0.0000000000
C       -0.1347970000   -0.2208450000   -0.0000000000
C       -0.0307150000    0.0082470000   -0.0000000000
N       -0.3357450000    0.0482160000   -0.0000000000
H        0.1442370000    0.0020390000   -0.0000000000
H        0.1391690000    0.0137520000   -0.0000000000
H        0.1640060000   -0.0286110000   -0.0000000000
H        0.1479630000    0.0155920000   -0.0000000000
H        0.1484540000    0.0066020000   -0.0000000000
C       -0.0887390000    0.6451780000   -0.0000000000
H        0.1362190000   -0.0063150000    0.0000000000
13   
From optimize.out: Frame 11 / 26, Energy=    -286.8240569261
C        0.0918220000    0.0113370000   -0.0000000000
C       -0.2598760000   -0.0669080000   -0.0000000000
C       -0.1233910000    0.6237440000   -0.0000000000
C       -0.1287910000   -0.2270160000   -0.0000000000
C       -0.0344480000    0.0024240000   -0.0000000000
N       -0.3356490000    0.0540130000   -0.0000000000
H        0.1442300000    0.0020140000   -0.0000000000
H        0.1386390000    0.0121740000   -0.0000000000
H        0.1612080000   -0.0317540000   -0.0000000000
H        0.1471940000    0.0152620000   -0.0000000000
H        0.1473430000    0.0061450000   -0.0000000000
C       -0.0873090000    0.6108380000   -0.0000000000
H        0.1390280000   -0.0122740000    0.0000000000
13   
From optimize.out: Frame 12 / 26, Energy=    -286.8252943726
C        0.0931070000    0.0017670000   -0.0000000000
C       -0.2610150000   -0.0661550000   -0.0000000000
C       -0.1243210000    0.7059570000   -0.0000000000
C       -0.1206760000   -0.2242270000   -0.0000000000
C       -0.0406260000   -0.0060020000   -0.0000000000
N       -0.3343750000    0.0573490000   -0.0000000000
H        0.1446870000    0.0018660000   -0.0000000000
H        0.1381150000    0.0100610000   -0.0000000000
H        0.1577840000   -0.0358700000   -0.0000000000
H        0.1460890000    0.0146680000   -0.0000000000
H        0.1460590000    0.0055110000   -0.0000000000
C       -0.0866240000    0.5510070000   -0.0000000000
H        0.1417960000   -0.0159330000    0.0000000000
13   
From optimize.out: Frame 13 / 26, Energy=    -286.8305542471
C        0.0972650000   -0.0108160000   -0.0000000000
C       -0.2589380000   -0.0623580000   -0.0000000000
C       -0.1235070000    0.8565740000   -0.0000000000
C       -0.1090980000   -0.1747750000   -0.0000000000
C       -0.0540650000   -0.0242830000   -0.0000000000
N       -0.3305920000    0.0496180000   -0.0000000000
H        0.1470030000    0.0012810000   -0.0000000000
H        0.1370590000    0.0068850000   -0.0000000000
H        0.1516150000   -0.0418310000   -0.0000000000
H        0.1463060000    0.0123570000   -0.0000000000
H        0.1435500000    0.0048600000   -0.0000000000
C       -0.0918620000    0.3929940000   -0.0000000000
H        0.1452630000   -0.0105060000    0.0000000000
13   
From optimize.out: Frame 14 / 26, Energy=    -286.8369988490
C        0.0982360000   -0.0170560000   -0.0000000000
C       -0.2574110000   -0.0566590000   -0.0000000000
C       -0.1161440000    0.9417840000   -0.0000000000
C       -0.0966540000   -0.0853370000   -0.0000000000
C       -0.0707020000   -0.0392800000   -0.0000000000
N       -0.3263190000    0.0448520000   -0.0000000000
H        0.1474170000    0.0008130000   -0.0000000000
H        0.1361060000    0.0043640000   -0.0000000000
H        0.1477730000   -0.0433920000   -0.0000000000
H        0.1443780000    0.0072270000   -0.0000000000
H        0.1400710000    0.0039800000   -0.0000000000
C       -0.0927590000    0.2450100000   -0.0000000000
H        0.1460080000   -0.0063060000    0.0000000000
13   
From optimize.out: Frame 15 / 26, Energy=    -286.8423508947
C        0.0973650000   -0.0155890000   -0.0000000000
C       -0.2528380000   -0.0536450000   -0.0000000000
C       -0.1081660000    0.9807710000   -0.0000000000
C       -0.0890740000   -0.0207570000   -0.0000000000
C       -0.0834980000   -0.0483890000   -0.0000000000
N       -0.3237790000    0.0397020000   -0.0000000000
H        0.1480900000    0.0003930000   -0.0000000000
H        0.1346560000    0.0029960000   -0.0000000000
H        0.1459060000   -0.0418930000   -0.0000000000
H        0.1448540000    0.0030140000    0.0000000000
H        0.1374070000    0.0033250000   -0.0000000000
C       -0.0961780000    0.1534730000   -0.0000000000
H        0.1452550000   -0.0034000000    0.0000000000
13   
From optimize.out: Frame 16 / 26, Energy=    -286.8462081473
C        0.0952070000   -0.0130210000   -0.0000000000
C       -0.2496050000   -0.0518330000   -0.0000000000
C       -0.1010620000    0.9917080000   -0.0000000000
C       -0.0849070000    0.0100880000   -0.0000000000
C       -0.0923280000   -0.0517000000   -0.0000000000
N       -0.3219080000    0.0376300000   -0.0000000000
H        0.1484250000    0.0001560000   -0.0000000000
H        0.1340450000    0.0024600000   -0.0000000000
H        0.1448160000   -0.0392040000   -0.0000000000
H        0.1451190000    0.0011780000    0.0000000000
H        0.1362960000    0.0029620000   -0.0000000000
C       -0.0982310000    0.1116040000   -0.0000000000
H        0.1441330000   -0.0020290000    0.0000000000
13   
From optimize.out: Frame 17 / 26, Energy=    -286.8489012577
C        0.0931240000   -0.0108110000   -0.0000000000
C       -0.2461950000   -0.0503360000   -0.0000000000
C       -0.0979270000    0.9929910000   -0.0000000000
C       -0.0837380000    0.0268810000   -0.0000000000
C       -0.0968810000   -0.0519730000   -0.0000000000
N       -0.3216540000    0.0350800000   -0.0000000000
H        0.1488030000   -0.0000160000   -0.0000000000
H        0.1335840000    0.0022690000   -0.0000000000
H        0.1432250000   -0.0357960000   -0.0000000000
H        0.1460720000    0.0002190000    0.0000000000
H        0.1367970000    0.0027610000   -0.0000000000
C       -0.0990080000    0.0896010000   -0.0000000000
H        0.1437990000   -0.0008700000    0.0000000000
13   
From optimize.out: Frame 18 / 26, Energy=    -286.8504452116
C        0.0921020000   -0.0096770000   -0.0000000000
C       -0.2465200000   -0.0488590000   -0.0000000000
C       -0.0959850000    0.9909960000   -0.0000000000
C       -0.0840280000    0.0341160000   -0.0000000000
C       -0.0983140000   -0.0509570000   -0.0000000000
N       -0.3221300000    0.0328650000   -0.0000000000
H        0.1494140000   -0.0001000000   -0.0000000000
H        0.1334980000    0.0022750000   -0.0000000000
H        0.1420390000   -0.0333950000   -0.0000000000
H        0.1453180000    0.0002330000    0.0000000000
H        0.1380380000    0.0026830000   -0.0000000000
C       -0.0974680000    0.0803390000   -0.0000000000
H        0.1440350000   -0.0005190000    0.0000000000
13   
From optimize.out: Frame 19 / 26, Energy=    -286.8511747418
C        0.0914940000   -0.0090180000   -0.0000000000
C       -0.2459950000   -0.0466140000   -0.0000000000
C       -0.0960830000    0.9858110000   -0.0000000000
C       -0.0848330000    0.0379420000   -0.0000000000
C       -0.0981190000   -0.0484690000   -0.0000000000
N       -0.3232950000    0.0278360000   -0.0000000000
H        0.1496650000   -0.0001640000   -0.0000000000
H        0.1335060000    0.0025160000   -0.0000000000
H        0.1406190000   -0.0299060000   -0.0000000000
H        0.1458710000    0.0003240000    0.0000000000
H        0.1391750000    0.0027780000   -0.0000000000
C       -0.0964540000    0.0763370000   -0.0000000000
H        0.1444480000    0.0006280000    0.0000000000
13   
From optimize.out: Frame 20 / 26, Energy=    -286.8512761882
C        0.0911560000   -0.0093150000   -0.0000000000
C       -0.2445880000   -0.0459640000   -0.0000000000
C       -0.0968250000    0.9830710000   -0.0000000000
C       -0.0881350000    0.0385300000   -0.0000000000
C       -0.0976650000   -0.0469920000   -0.0000000000
N       -0.3243970000    0.0270350000   -0.0000000000
H        0.1494340000   -0.0001280000   -0.0000000000
H        0.1334160000    0.0025520000   -0.0000000000
H        0.1390920000   -0.0288270000   -0.0000000000
H        0.1457460000    0.0005640000    0.0000000000
H        0.1404440000    0.0026420000   -0.0000000000
C       -0.0933730000    0.0769150000   -0.0000000000
H        0.1456940000   -0.0000850000    0.0000000000
13   
From optimize.out: Frame 21 / 26, Energy=    -286.8514348422
C        0.0918080000   -0.0094190000   -0.0000000000
C       -0.2471980000   -0.0449640000   -0.0000000000
C       -0.0967260000    0.9791600000   -0.0000000000
C       -0.0879110000    0.0391710000   -0.0000000000
C       -0.0944500000   -0.0461520000   -0.0000000000
N       -0.3255600000    0.0247130000   -0.0000000000
H        0.1505130000   -0.0001430000   -0.0000000000
H        0.1338650000    0.0028190000   -0.0000000000
H        0.1392010000   -0.0273310000   -0.0000000000
H        0.1454520000    0.0010700000    0.0000000000
H        0.1404010000    0.0029050000   -0.0000000000
C       -0.0948820000    0.0775830000   -0.0000000000
H        0.1454880000    0.0005880000    0.0000000000
13   
From optimize.out: Frame 22 / 26, Energy=    -286.8515533734
C        0.0917450000   -0.0087630000   -0.0000000000
C       -0.2460820000   -0.0447250000   -0.0000000000
C       -0.0962950000    0.9791570000   -0.0000000000
C       -0.0872700000    0.0386770000   -0.0000000000
C       -0.0960350000   -0.0459370000   -0.0000000000
N       -0.3243580000    0.0232240000   -0.0000000000
H        0.1494500000   -0.0001720000   -0.0000000000
H        0.1337250000    0.0028620000   -0.0000000000
H        0.1396420000   -0.0275820000   -0.0000000000
H        0.1456510000    0.0008810000    0.0000000000
H        0.1396180000    0.0029760000   -0.0000000000
C       -0.0951940000    0.0787410000   -0.0000000000
H        0.1454040000    0.0006610000    0.0000000000
13   
From optimize.out: Frame 23 / 26, Energy=    -286.8516095087
C        0.0918350000   -0.0091520000   -0.0000000000
C       -0.2457480000   -0.0448850000   -0.0000000000
C       -0.0966570000    0.9787360000   -0.0000000000
C       -0.0877880000    0.0386370000   -0.0000000000
C       -0.0953410000   -0.0460100000   -0.0000000000
N       -0.3247550000    0.0240080000   -0.0000000000
H        0.1496270000   -0.0001550000   -0.0000000000
H        0.1338100000    0.0027960000   -0.0000000000
H        0.1392730000   -0.0275250000   -0.0000000000
H        0.1459660000    0.0008380000    0.0000000000
H        0.1397740000    0.0029350000   -0.0000000000
C       -0.0954030000    0.0793870000   -0.0000000000
H        0.1454060000    0.0003890000    0.0000000000
13   
From optimize.out: Frame 24 / 26, Energy=    -286.8516269519
C        0.0919010000   -0.0089810000   -0.0000000000
C       -0.2458150000   -0.0444440000   -0.0000000000
C       -0.0965890000    0.9774320000   -0.0000000000
C       -0.0881200000    0.0395310000   -0.0000000000
C       -0.0949570000   -0.0455840000   -0.0000000000
N       -0.3249270000    0.0230940000   -0.0000000000
H        0.1496790000   -0.0001640000   -0.0000000000
H        0.1338090000    0.0028330000   -0.0000000000
H        0.1390310000   -0.0270270000   -0.0000000000
H        0.1459240000    0.0009000000    0.0000000000
H        0.1398650000    0.0029740000   -0.0000000000
C       -0.0953690000    0.0790960000   -0.0000000000
H        0.1455680000    0.0003390000    0.0000000000
13   
From optimize.out: Frame 25 / 26, Energy=    -286.8516345401
C        0.0920350000   -0.0089160000   -0.0000000000
C       -0.2458870000   -0.0441020000   -0.0000000000
C       -0.0965760000    0.9763230000   -0.0000000000
C       -0.0882410000    0.0401420000   -0.0000000000
C       -0.0946320000   -0.0452930000   -0.0000000000
N       -0.3249500000    0.0223900000   -0.0000000000
H        0.1496590000   -0.0001680000   -0.0000000000
H        0.1338940000    0.0028570000   -0.0000000000
H        0.1389540000   -0.0267450000   -0.0000000000
H        0.1460140000    0.0009160000    0.0000000000
H        0.1398190000    0.0030190000   -0.0000000000
C       -0.0956830000    0.0792600000   -0.0000000000
H        0.1455930000    0.0003160000    0.0000000000
