13   
From optimize.out: Frame 1 / 1, Energy=    -286.9243179979
C        1.4287593682    0.8425195606   -0.3250872097
C        0.2766459415   -1.4163105594   -0.2011434153
C       -0.9821599900   -1.0609185183    0.1815044956
C       -1.4663085310    0.2730374794    0.4321864887
C       -0.7711985315    1.4644581620    0.3445855300
N        0.5055704975    1.7716839771    0.0152833887
H        2.3961927978    1.2938132753   -0.5562728852
H        0.4722278096   -2.4767490943   -0.3472949383
H       -1.7075845728   -1.8610258723    0.3144518885
H       -2.5090420399    0.3578883204    0.7286078105
H       -1.3559728150    2.3548527029    0.5861931606
C        1.3907341015   -0.5349550234   -0.4358252828
H        2.3221359647   -1.0082944096   -0.7371890318
13   
From optimize.out: Frame 52 / 53, Energy=    -286.9243180064
C        1.4314648320    0.8390090203   -0.3090266177
C        0.2792561601   -1.4176217785   -0.1948193193
C       -0.9761406174   -1.0630093630    0.1979493935
C       -1.4700432224    0.2738367034    0.4002987909
C       -0.7673310444    1.4663396621    0.3440148900
N        0.5231980971    1.7634728039    0.0966091224
H        2.4011298981    1.2888967586   -0.5282414076
H        0.4861059699   -2.4775878188   -0.3157000984
H       -1.6924106678   -1.8623765029    0.3767953078
H       -2.5211759469    0.3626858950    0.6627557972
H       -1.3612136809    2.3559508077    0.5667004442
C        1.3742711922   -0.5298560898   -0.4768915513
H        2.2928890304   -0.9997400981   -0.8204447518
13   
From optimize.out: Frame 51 / 53, Energy=    -286.9243169585
C        1.4375786258    0.8448985169   -0.2761128108
C        0.2737792437   -1.4157270071   -0.2080328289
C       -0.9667072974   -1.0633866306    0.2400506369
C       -1.4704646844    0.2782451779    0.4163547731
C       -0.7789291655    1.4619654116    0.3371574609
N        0.5422196112    1.7522627351    0.1298241219
H        2.4240580998    1.2816061038   -0.4549192718
H        0.4701400423   -2.4788930266   -0.3401783645
H       -1.6689631790   -1.8678505296    0.4482679386
H       -2.5337314988    0.3572274726    0.6316491452
H       -1.3733185672    2.3628787776    0.4949174814
C        1.3612190911   -0.5242527027   -0.5393636847
H        2.2831196783   -0.9889742987   -0.8796145974
13   
From optimize.out: Frame 50 / 53, Energy=    -286.9243058893
C        1.4424580957    0.8511127486   -0.2493130847
C        0.2675695176   -1.4033877916   -0.2314637949
C       -0.9627619714   -1.0695945281    0.2757177531
C       -1.4665987236    0.2749935735    0.4257897728
C       -0.7860593659    1.4549123944    0.3098493731
N        0.5584244883    1.7383325036    0.1657542086
H        2.4462123217    1.2682730994   -0.3670606337
H        0.4718737448   -2.4678693245   -0.3533512749
H       -1.6517175676   -1.8777636168    0.5060812452
H       -2.5317196036    0.3660918491    0.6326867160
H       -1.3852861863    2.3598578744    0.4128749426
C        1.3439587817   -0.5197359578   -0.5735001507
H        2.2536464683   -0.9752228242   -0.9540650725
13   
From optimize.out: Frame 49 / 53, Energy=    -286.9242651204
C        1.4378088665    0.8465275245   -0.2329269967
C        0.2661087418   -1.3943442656   -0.2519375262
C       -0.9472406356   -1.0634036965    0.3067952220
C       -1.4638139470    0.2758558518    0.4419858826
C       -0.7993842028    1.4554803876    0.2807311914
N        0.5577408940    1.7263511946    0.1884108315
H        2.4584636927    1.2372030976   -0.2765979299
H        0.4698312426   -2.4518636944   -0.4002131917
H       -1.6230235130   -1.8755434578    0.5641950988
H       -2.5288490663    0.3665200011    0.6492931405
H       -1.3970631330    2.3646740339    0.3300702788
C        1.3316853657   -0.5239118100   -0.5957855612
H        2.2377356943   -0.9635451667   -1.0040204399
13   
From optimize.out: Frame 47 / 53, Energy=    -286.9241344066
C        1.4389793256    0.8406199015   -0.2087621238
C        0.2788859838   -1.3898737869   -0.2440647206
C       -0.9208897019   -1.0498891364    0.3480276481
C       -1.4661889451    0.2813481275    0.4468823242
C       -0.8124438731    1.4579290411    0.2577393513
N        0.5511956972    1.7075256806    0.2155503868
H        2.4598085294    1.2373124103   -0.2081526927
H        0.4525331356   -2.4353721916   -0.4696620188
H       -1.5871008202   -1.8646938755    0.6232586486
H       -2.5346111902    0.3510575950    0.6429179881
H       -1.3996104533    2.3749677474    0.2559438886
C        1.3342547079   -0.5290258037   -0.5975373300
H        2.2051876042   -0.9819057092   -1.0621413498
13   
From optimize.out: Frame 46 / 53, Energy=    -286.9240864637
C        1.4406879965    0.8303314452   -0.1794477149
C        0.2909697799   -1.3950002500   -0.2188042042
C       -0.9032722047   -1.0395437087    0.3767029171
C       -1.4680531546    0.2861147132    0.4444887921
C       -0.8177706512    1.4587849276    0.2401179212
N        0.5453772752    1.6862679249    0.2289876800
H        2.4627505030    1.2221230179   -0.1371720459
H        0.4197097363   -2.4376844365   -0.4823802808
H       -1.5664936502   -1.8516549118    0.6670509378
H       -2.5417896959    0.3294998791    0.6148468301
H       -1.3903571919    2.3842831921    0.2086621814
C        1.3481606118   -0.5365043910   -0.5953601286
H        2.1800806459   -0.9370174020   -1.1676928853
13   
From optimize.out: Frame 44 / 53, Energy=    -286.9238486599
C        1.4507676470    0.8296608310   -0.1571504059
C        0.3096627603   -1.3876897221   -0.1955590821
C       -0.8933338605   -1.0342961637    0.3824911405
C       -1.4687719653    0.2860381704    0.4296274663
C       -0.8182333556    1.4605576626    0.2337471340
N        0.5409903503    1.6790926405    0.2382152627
H        2.4768320910    1.2026852937   -0.0651451345
H        0.4426842357   -2.4356552961   -0.4363398520
H       -1.5497367101   -1.8462488059    0.6896471969
H       -2.5457548750    0.3147300142    0.5778324743
H       -1.3848531022    2.3893078887    0.1951008851
C        1.3427699302   -0.5248395165   -0.6138001794
H        2.0969768542   -0.9333429968   -1.2786669058
13   
From optimize.out: Frame 43 / 53, Energy=    -286.9236289837
C        1.4692501937    0.8341672865   -0.1369673221
C        0.3194579965   -1.3858031842   -0.1633378145
C       -0.8939963649   -1.0406464761    0.3856726585
C       -1.4683697511    0.2837692711    0.4099260452
C       -0.8117346855    1.4555028656    0.2352481121
N        0.5478225617    1.6729661717    0.2505756881
H        2.4924867579    1.2024260276   -0.0153578560
H        0.4760765117   -2.4389957420   -0.3694952329
H       -1.5530931184   -1.8485953467    0.6947062374
H       -2.5488083147    0.3146785368    0.5348174400
H       -1.3773257464    2.3848303494    0.1929463974
C        1.3407504683   -0.5195627148   -0.6284322686
H        2.0074834911   -0.9147370450   -1.3903020847
13   
From optimize.out: Frame 42 / 53, Energy=    -286.9232922759
C        1.4805409558    0.8321359915   -0.1152435735
C        0.3268111265   -1.3874045780   -0.1428166665
C       -0.8951616083   -1.0466898221    0.3814434235
C       -1.4659181468    0.2804831464    0.3873741982
C       -0.8026689165    1.4515829999    0.2342671410
N        0.5574926636    1.6696923557    0.2602811192
H        2.5049329729    1.1834856084    0.0352984022
H        0.5156266147   -2.4465866523   -0.2924349154
H       -1.5540467993   -1.8512254053    0.6983272110
H       -2.5478148387    0.3193038345    0.4996058712
H       -1.3689246531    2.3807280019    0.1948865776
C        1.3295291045   -0.5136845260   -0.6502507232
H        1.9196015246   -0.8718209546   -1.4907380654
13   
From optimize.out: Frame 41 / 53, Energy=    -286.9229402241
C        1.4928487144    0.8280802322   -0.0929349801
C        0.3328172816   -1.3893600788   -0.1272040653
C       -0.8961014257   -1.0547754227    0.3778091629
C       -1.4621544789    0.2757547903    0.3652095546
C       -0.7912455293    1.4467821532    0.2330479501
N        0.5703876612    1.6677023624    0.2695288685
H        2.5185607390    1.1612317892    0.0822904233
H        0.5603907220   -2.4503743285   -0.2178119514
H       -1.5541900516   -1.8563854323    0.7020366437
H       -2.5453146436    0.3265014518    0.4657825453
H       -1.3601711265    2.3745153684    0.1959587495
C        1.3103304058   -0.5071082240   -0.6739643565
H        1.8238417316   -0.8225646612   -1.5797485448
13   
From optimize.out: Frame 40 / 53, Energy=    -286.9227382723
C        1.5045808160    0.8192937666   -0.0679340443
C        0.3363147749   -1.3939075419   -0.1192100227
C       -0.8963575292   -1.0628860428    0.3741961792
C       -1.4569292076    0.2703059026    0.3449824449
C       -0.7781212394    1.4416919860    0.2289735267
N        0.5853559999    1.6644559470    0.2762495919
H        2.5317444249    1.1326495081    0.1304609468
H        0.6019590610   -2.4531581097   -0.1470124088
H       -1.5519354376   -1.8617754929    0.7089341372
H       -2.5408348464    0.3342176304    0.4368061839
H       -1.3510807641    2.3670000834    0.1923796033
C        1.2883370277   -0.4999950228   -0.6983873292
H        1.7269669198   -0.7578926141   -1.6604388089
13   
From optimize.out: Frame 39 / 53, Energy=    -286.9224577322
C        1.5149475965    0.8070410581   -0.0416123233
C        0.3381282419   -1.4006704404   -0.1210336839
C       -0.8956429689   -1.0694351120    0.3684837645
C       -1.4506091009    0.2643242510    0.3259106665
C       -0.7649033757    1.4373856636    0.2221880615
N        0.5998505679    1.6604115070    0.2792250105
H        2.5438901517    1.0960786639    0.1830909372
H        0.6394569643   -2.4538392227   -0.0781313019
H       -1.5455098275   -1.8653902425    0.7208687281
H       -2.5346226165    0.3398271138    0.4135091499
H       -1.3429088277    2.3594313962    0.1863941961
C        1.2675587986   -0.4886513867   -0.7261464937
H        1.6303643962   -0.6865132494   -1.7327467115
13   
From optimize.out: Frame 38 / 53, Energy=    -286.9220368676
C        1.5245702545    0.7928850729   -0.0149714653
C        0.3334845063   -1.4141638265   -0.1360850909
C       -0.8968919182   -1.0740731886    0.3543353763
C       -1.4463491991    0.2573578239    0.2987299194
C       -0.7549248982    1.4338809017    0.2078793224
N        0.6100814746    1.6557714837    0.2756087474
H        2.5529289955    1.0554942071    0.2459195202
H        0.6660654249   -2.4544478885   -0.0026478640
H       -1.5347645067   -1.8639761319    0.7419565199
H       -2.5279524124    0.3434509747    0.4039636666
H       -1.3366325739    2.3535756811    0.1873149306
C        1.2619315708   -0.4680227308   -0.7617833007
H        1.5484532822   -0.6177323787   -1.8002202818
13   
From optimize.out: Frame 36 / 53, Energy=    -286.9210087512
C        1.5221096878    0.7692307693    0.0067507229
C        0.3255228914   -1.4258714589   -0.1531351188
C       -0.8987114574   -1.0719064335    0.3322824211
C       -1.4471110465    0.2520404809    0.2669905564
C       -0.7498796673    1.4316347749    0.1878022140
N        0.6130491372    1.6472152102    0.2625460846
H        2.5432702280    1.0037811002    0.3212674608
H        0.6963293109   -2.4389602450    0.0774910032
H       -1.5216746320   -1.8557805744    0.7584739065
H       -2.5228090548    0.3466041125    0.4143953907
H       -1.3289304946    2.3530538053    0.1973067555
C        1.2672641054   -0.4405577205   -0.8100609795
H        1.5015709918   -0.5704838208   -1.8621104175
13   
From optimize.out: Frame 35 / 53, Energy=    -286.9198313756
C        1.4980852567    0.7275022764    0.0198642113
C        0.3424579136   -1.4178796288   -0.1397540919
C       -0.8811178693   -1.0577572514    0.3373478236
C       -1.4437233132    0.2527290892    0.2467938879
C       -0.7432077021    1.4344578495    0.1804653650
N        0.6135313778    1.6346184009    0.2533984409
H        2.5102039975    0.9218393170    0.3866782871
H        0.7468384225   -2.4064337180    0.1236516056
H       -1.5064508037   -1.8447802615    0.7558057231
H       -2.5181949986    0.3418871159    0.4017621929
H       -1.3131191396    2.3613723368    0.2028521324
C        1.2345773317   -0.4225929882   -0.8568696427
H        1.4601195267   -0.5249625378   -1.9119959352
13   
From optimize.out: Frame 34 / 53, Energy=    -286.9182493869
C        1.4706462202    0.6808260808    0.0317706993
C        0.3811052425   -1.3977410774   -0.1168904725
C       -0.8649584117   -1.0421471589    0.3359946035
C       -1.4456118065    0.2566761210    0.2265590010
C       -0.7400874721    1.4456919876    0.1716381660
N        0.6073978414    1.6267480992    0.2679043438
H        2.4804356678    0.8353204007    0.4242261752
H        0.8079602995   -2.3672924166    0.1596219241
H       -1.4877858268   -1.8352514159    0.7480883743
H       -2.5187899967    0.3419549738    0.3887146843
H       -1.3094618108    2.3728638384    0.2138911547
C        1.2003589260   -0.4099457711   -0.8977608899
H        1.4187911272   -0.5077036615   -1.9537577641
13   
From optimize.out: Frame 33 / 53, Energy=    -286.9169382053
C        1.4415551160    0.6327620087    0.0396107476
C        0.4205916589   -1.3623512086   -0.1076670024
C       -0.8603534022   -1.0250091437    0.3190191027
C       -1.4574225666    0.2591161705    0.2084890351
C       -0.7423240802    1.4594484104    0.1670559288
N        0.5983925988    1.6166619512    0.2828386197
H        2.4451234470    0.7503559801    0.4568294892
H        0.8687933252   -2.3102427976    0.2119846930
H       -1.4638786929   -1.8279913613    0.7392760264
H       -2.5285214073    0.3453992382    0.3854501199
H       -1.3109813212    2.3867182986    0.2332446464
C        1.1852645629   -0.4054189564   -0.9414353865
H        1.4037607615   -0.5194485901   -1.9946960199
13   
From optimize.out: Frame 32 / 53, Energy=    -286.9147668342
C        1.4139108087    0.5865686823    0.0416182813
C        0.4506009871   -1.3156932695   -0.1093709003
C       -0.8567887775   -1.0051231983    0.3071621799
C       -1.4702706707    0.2583261548    0.1964839298
C       -0.7457938637    1.4691257850    0.1729089017
N        0.5919016061    1.6017330965    0.2807406172
H        2.4029305982    0.6644995855    0.5009093288
H        0.9182640716   -2.2420032407    0.2687435847
H       -1.4355856731   -1.8217547177    0.7337361624
H       -2.5417301135    0.3420846391    0.3760297659
H       -1.3068638386    2.4001484437    0.2529793501
C        1.1729632313   -0.4056391625   -0.9870917428
H        1.4064616340   -0.5322727981   -2.0348494587
13   
From optimize.out: Frame 31 / 53, Energy=    -286.9120832099
C        1.3894943571    0.5384723268    0.0390673201
C        0.4770084990   -1.2583479502   -0.0880267331
C       -0.8597461203   -0.9881062912    0.2964251120
C       -1.4806393316    0.2557147764    0.1852042308
C       -0.7453266225    1.4703972593    0.1797984587
N        0.5805268169    1.5816636099    0.2905900811
H        2.3696988492    0.5848012966    0.5218504240
H        0.9616936568   -2.1613587549    0.3234550261
H       -1.4233499615   -1.8182292042    0.7177697501
H       -2.5519619281    0.3386602445    0.3613444098
H       -1.3017152848    2.4033662922    0.2736129090
C        1.1694090281   -0.4100519380   -1.0282869842
H        1.4149080417   -0.5369816672   -2.0728040045
13   
From optimize.out: Frame 30 / 53, Energy=    -286.9081933223
C        1.3679045359    0.4888405862    0.0327865443
C        0.5005331864   -1.1923601280   -0.0464755904
C       -0.8682915266   -0.9737226410    0.2865193015
C       -1.4887934974    0.2516495423    0.1743846925
C       -0.7414178827    1.4645417091    0.1872027393
N        0.5648880292    1.5573904459    0.3113065040
H        2.3445622766    0.5107389929    0.5223358782
H        1.0001364286   -2.0706688805    0.3760515881
H       -1.4251792697   -1.8170234873    0.6927416846
H       -2.5594667519    0.3353838937    0.3423734372
H       -1.2958868101    2.3977649360    0.2949359879
C        1.1733286914   -0.4179087774   -1.0654130736
H        1.4276825904   -0.5346261920   -2.1087496936
13   
From optimize.out: Frame 28 / 53, Energy=    -286.8979404929
C        1.3463899611    0.4399448954    0.0400464656
C        0.5286408500   -1.1400623126   -0.0127571191
C       -0.8774744560   -0.9658809486    0.2716507541
C       -1.4973025099    0.2483997591    0.1862828625
C       -0.7372344691    1.4684997835    0.1898308076
N        0.5581598429    1.5538636978    0.2854001562
H        2.3179176911    0.4579208793    0.5386247933
H        1.0268407963   -2.0082031605    0.4275042376
H       -1.4293708273   -1.8310705281    0.6342102989
H       -2.5660618150    0.3311316118    0.3643239585
H       -1.2860580837    2.4047434914    0.3053377056
C        1.1752626715   -0.4271747052   -1.0946928088
H        1.4402903482   -0.5321124633   -2.1357621120
13   
From optimize.out: Frame 27 / 53, Energy=    -286.8927948754
C        1.3368005193    0.3869355680    0.0735777494
C        0.5494596601   -1.1041416218    0.0036687051
C       -0.8869516926   -0.9603599786    0.2668074540
C       -1.5052853076    0.2432125249    0.2269371607
C       -0.7349150870    1.4686450107    0.1844781928
N        0.5532905979    1.5366576196    0.2495450673
H        2.3071253986    0.4360941372    0.5695507206
H        1.0116753342   -1.9970836707    0.4258394715
H       -1.4277546513   -1.8453765511    0.5933146655
H       -2.5707968281    0.3238791347    0.4208636722
H       -1.2660855866    2.4197081068    0.2479772788
C        1.1810525127   -0.4209029069   -1.1107611789
H        1.4523851304   -0.4872673727   -2.1517989589
13   
From optimize.out: Frame 26 / 53, Energy=    -286.8872506593
C        1.3319058436    0.3815674576    0.0959514526
C        0.5393027853   -1.1055062399   -0.0215055053
C       -0.9076146669   -0.9626841616    0.2830210693
C       -1.5144561005    0.2458463349    0.2817611925
C       -0.7329769528    1.4813300670    0.1650656569
N        0.5549224228    1.5534133028    0.1918818359
H        2.2906703653    0.4293341657    0.6163270894
H        1.0266416590   -2.0149264725    0.3780168328
H       -1.4514650701   -1.8597665757    0.5779340991
H       -2.5782526062    0.3337621071    0.4918749997
H       -1.2702954448    2.4302144215    0.1972125185
C        1.2033104205   -0.4215309181   -1.1125805928
H        1.5083073448   -0.4910534887   -2.1449606486
13   
From optimize.out: Frame 24 / 53, Energy=    -286.8789717210
C        1.3256036518    0.3388391436    0.1054151574
C        0.5386946154   -1.0846837431   -0.0243969644
C       -0.8892915981   -0.9545298548    0.3077198831
C       -1.5176635618    0.2469759713    0.3156302828
C       -0.7450975677    1.4658863485    0.1340718196
N        0.5480333687    1.4887368102    0.1548576667
H        2.2609505527    0.3890456540    0.6678884466
H        1.0095032283   -1.9831074965    0.3768802663
H       -1.4363309843   -1.8616788871    0.5511109892
H       -2.5823471091    0.3145283061    0.5176017614
H       -1.2131404551    2.4491266836    0.1649631828
C        1.2014192821   -0.3840856318   -1.1187889870
H        1.4996665769   -0.4250533041   -2.1529535045
13   
From optimize.out: Frame 23 / 53, Energy=    -286.8748252133
C        1.3236317456    0.2944735440    0.1112612643
C        0.5350005050   -1.0857621153   -0.0373006932
C       -0.8658761642   -0.9500742765    0.3278211243
C       -1.5155349502    0.2491805067    0.3197246658
C       -0.7491146320    1.4467310784    0.1088206852
N        0.5493128127    1.4340506877    0.1437950347
H        2.2287188203    0.3250648135    0.7208263427
H        1.0187320771   -1.9445807826    0.4027997182
H       -1.4197704794   -1.8556165474    0.5519697533
H       -2.5816070860    0.3015461381    0.5088172782
H       -1.1614097575    2.4555266788    0.1508271027
C        1.1869983397   -0.3230623512   -1.1336218418
H        1.4509187690   -0.3474773743   -2.1757404345
13   
From optimize.out: Frame 19 / 53, Energy=    -286.8643568777
C        1.3457140735    0.2620151425    0.1083803426
C        0.5192392073   -1.0973058719   -0.0476056969
C       -0.8485719480   -0.9535545601    0.3441013944
C       -1.5107434549    0.2486712263    0.3159249363
C       -0.7484724584    1.4200782298    0.0951324727
N        0.5596628964    1.3990963314    0.1412991983
H        2.2265951377    0.2689515500    0.7496341868
H        1.0489144023   -1.8884961832    0.4396524896
H       -1.4131466290   -1.8551556419    0.5498180519
H       -2.5775664974    0.2994927468    0.4890789867
H       -1.1354027820    2.4388031563    0.1484395444
C        1.1689855961   -0.2574001295   -1.1400594216
H        1.3647924562   -0.2851959965   -2.1937964852
13   
From optimize.out: Frame 18 / 53, Energy=    -286.8557364104
C        1.3776342875    0.2374872927    0.0966803175
C        0.5139198772   -1.1110034370   -0.0372626012
C       -0.8339294286   -0.9597422169    0.3437851807
C       -1.5043962937    0.2462543905    0.3019058920
C       -0.7451248538    1.3983183119    0.1021664968
N        0.5742322371    1.3813216472    0.1520195412
H        2.2517403448    0.2182877844    0.7412014262
H        1.0846041095   -1.8270645081    0.4931449880
H       -1.4070146890   -1.8588948646    0.5335326545
H       -2.5725237139    0.3001725224    0.4543249482
H       -1.1350167674    2.4152914713    0.1670699173
C        1.1402484515   -0.2061075434   -1.1425021668
H        1.2556264388   -0.2343208505   -2.2060665942
13   
From optimize.out: Frame 17 / 53, Energy=    -286.8546643413
C        1.4033128532    0.2037550068    0.0857406970
C        0.5181491808   -1.1047716531   -0.0195661220
C       -0.8248623431   -0.9609922781    0.3442501891
C       -1.5094959442    0.2468735470    0.2859859359
C       -0.7419064804    1.3842841961    0.1118225556
N        0.5921333806    1.3714372369    0.1640099451
H        2.2746628689    0.1471316381    0.7275380167
H        1.1465609716   -1.7574727895    0.5283608030
H       -1.3997297272   -1.8626824158    0.5251570339
H       -2.5802660791    0.3029371894    0.4192799998
H       -1.1449982199    2.3948564563    0.1909741895
C        1.1089590529   -0.1733937754   -1.1472966222
H        1.1574804859   -0.1919623587   -2.2162566214
13   
From optimize.out: Frame 16 / 53, Energy=    -286.8543376527
C        1.4385356481    0.1899205287    0.0676273527
C        0.5201660693   -1.1083887924    0.0029679238
C       -0.8210828221   -0.9677736310    0.3401141018
C       -1.5111483086    0.2419566862    0.2696333947
C       -0.7358507623    1.3692633221    0.1277638418
N        0.6101442105    1.3670538257    0.1767740197
H        2.3197752503    0.1139304480    0.6906646726
H        1.1938668111   -1.7031610272    0.5691558298
H       -1.4025929753   -1.8695349987    0.5048728009
H       -2.5845123108    0.2995463319    0.3826677351
H       -1.1537654268    2.3721237216    0.2225900712
C        1.0771375906   -0.1451314444   -1.1430823725
H        1.0493270261   -0.1598049704   -2.2117493715
13   
From optimize.out: Frame 14 / 53, Energy=    -286.8530768202
C        1.4851196543    0.2031349281    0.0440633220
C        0.5154694174   -1.1340062624    0.0308902436
C       -0.8267548995   -0.9855807527    0.3306665459
C       -1.5076847582    0.2308217553    0.2539910010
C       -0.7250649605    1.3536004769    0.1489400962
N        0.6286818406    1.3716318902    0.1900140021
H        2.3856934606    0.1286276049    0.6369477473
H        1.2124852255   -1.6840568732    0.6233017907
H       -1.4234355812   -1.8821610703    0.4727601692
H       -2.5832205401    0.2921952367    0.3460872629
H       -1.1575007982    2.3485519066    0.2586570475
C        1.0521352094   -0.1129573625   -1.1362419613
H        0.9440767299   -0.1298014776   -2.2000772671
13   
From optimize.out: Frame 13 / 53, Energy=    -286.8524845659
C        1.5362880359    0.2340235472    0.0230414671
C        0.5016654317   -1.1719847225    0.0632262004
C       -0.8483554648   -1.0137764370    0.3230137039
C       -1.5080085231    0.2174394650    0.2444266069
C       -0.7106483818    1.3401382177    0.1672806278
N        0.6490378771    1.3866298263    0.1991384303
H        2.4553465703    0.1732642414    0.5879494108
H        1.2088400315   -1.7076259860    0.6755529365
H       -1.4655104450   -1.9020925770    0.4421363330
H       -2.5853830310    0.2876332324    0.3190178161
H       -1.1546749585    2.3284942450    0.2876326250
C        1.0454400698   -0.0773809945   -1.1380587806
H        0.8759627879   -0.0947620582   -2.1943573773
13   
From optimize.out: Frame 12 / 53, Energy=    -286.8505188634
C        1.5882412637    0.2689934351    0.0030028446
C        0.4855022278   -1.2126640043    0.0965582999
C       -0.8741688038   -1.0445110554    0.3160851334
C       -1.5096026618    0.2036614490    0.2366208913
C       -0.6953878399    1.3273724029    0.1845682513
N        0.6698428507    1.4042849275    0.2070313220
H        2.5251592746    0.2247643927    0.5410374914
H        1.1997665846   -1.7422370314    0.7266450959
H       -1.5129765712   -1.9238777738    0.4124396717
H       -2.5887290376    0.2840271581    0.2947723562
H       -1.1501358814    2.3095381882    0.3143225808
C        1.0438169267   -0.0410587976   -1.1424624226
H        0.8186716675   -0.0582932908   -2.1906215158
13   
From optimize.out: Frame 8 / 53, Energy=    -286.8200852775
C        1.6000494979    0.2644914724   -0.0139632938
C        0.5034654310   -1.2080000363    0.1284776350
C       -0.8688226746   -1.0567241630    0.2991682457
C       -1.5036984077    0.1970302279    0.2232869617
C       -0.6814482002    1.3232068650    0.2035938223
N        0.6872524749    1.4044547610    0.2227272880
H        2.5502713464    0.2068130011    0.4985107392
H        1.2246442772   -1.7198719940    0.7819337426
H       -1.5097743133   -1.9394963963    0.3684758046
H       -2.5848200005    0.2753167510    0.2632807687
H       -1.1389866299    2.3022826083    0.3452118872
C        0.9984773364   -0.0228718841   -1.1421904054
H        0.7233898626   -0.0266312130   -2.1785131958
13   
From optimize.out: Frame 7 / 53, Energy=    -286.8001095274
C        1.5951604735    0.2442727827   -0.0289531228
C        0.5344051356   -1.1852594207    0.1584395892
C       -0.8511475321   -1.0609395838    0.2789602642
C       -1.4950280074    0.1935684519    0.2083041742
C       -0.6686471549    1.3226895137    0.2224927920
N        0.7025363487    1.3975682926    0.2408864860
H        2.5562711753    0.1616438079    0.4596008549
H        1.2621271738   -1.6755103499    0.8365101990
H       -1.4862851067   -1.9519499642    0.3206718728
H       -2.5781561681    0.2649273372    0.2302372642
H       -1.1256573553    2.3000593675    0.3764510363
C        0.9374854873   -0.0127866956   -1.1400452952
H        0.6169355302    0.0017164607   -2.1635561149
13   
From optimize.out: Frame 6 / 53, Energy=    -286.7743865877
C        1.5897632305    0.2260614030   -0.0437867181
C        0.5665565957   -1.1681158759    0.1875559758
C       -0.8324736227   -1.0661368601    0.2583336180
C       -1.4844952493    0.1904988511    0.1934880141
C       -0.6548368018    1.3236398927    0.2412686231
N        0.7186391715    1.3932163025    0.2588583445
H        2.5618621940    0.1178989870    0.4201096869
H        1.2995295900   -1.6400982572    0.8899017894
H       -1.4636092474   -1.9639956934    0.2720348439
H       -2.5696503115    0.2550042469    0.1975750002
H       -1.1119260613    2.2990349440    0.4073297437
C        0.8739201721   -0.0000890924   -1.1364895115
H        0.5067203402    0.0330811517   -2.1461794098
13   
From optimize.out: Frame 5 / 53, Energy=    -286.7503844796
C        1.5894837500    0.2410810424   -0.0528560145
C        0.5926988382   -1.2193232505    0.1992704900
C       -0.8167860921   -1.0827698611    0.2425592259
C       -1.4611887215    0.1907299669    0.1862837636
C       -0.6356814212    1.3365362530    0.2523130143
N        0.7379354063    1.4180670800    0.2675143115
H        2.5708200750    0.1163668478    0.3872171279
H        1.3168859659   -1.7134528742    0.9134902866
H       -1.4665225072   -1.9694266129    0.2344169743
H       -2.5478457582    0.2538520430    0.1808183293
H       -1.1002395865    2.3074088580    0.4237119119
C        0.8156936641    0.0370568753   -1.1215926018
H        0.4047463870    0.0838736323   -2.1131468190
13   
From optimize.out: Frame 4 / 53, Energy=    -286.7184695886
C        1.5900544963    0.2615739560   -0.0609429827
C        0.6177699498   -1.2817309860    0.2080636286
C       -0.8016384803   -1.1012540359    0.2276346929
C       -1.4358277548    0.1915082788    0.1803632449
C       -0.6156929056    1.3513790172    0.2620430038
N        0.7577072569    1.4476948015    0.2745996281
H        2.5803115185    0.1218454273    0.3555125643
H        1.3308661792   -1.8046535416    0.9320655835
H       -1.4736747943   -1.9737442991    0.1987341435
H       -2.5238954032    0.2541588673    0.1667489044
H       -1.0889254675    2.3173190768    0.4376417629
C        0.7585175019    0.0781559816   -1.1048553234
H        0.3044279031    0.1377474561   -2.0776088509
13   
From optimize.out: Frame 3 / 53, Energy=    -286.6895537762
C        1.5918058925    0.2833038997   -0.0716332785
C        0.6418417891   -1.3418455115    0.2167025745
C       -0.7858799493   -1.1190430926    0.2113104899
C       -1.4104877754    0.1916878424    0.1750038027
C       -0.5961954906    1.3649024744    0.2733817578
N        0.7767781785    1.4763158913    0.2811807561
H        2.5919718563    0.1317478978    0.3179238078
H        1.3428401927   -1.8928373963    0.9503378091
H       -1.4786539028   -1.9774759798    0.1597372312
H       -2.4998530410    0.2535803629    0.1531456926
H       -1.0780353243    2.3257283351    0.4538588927
C        0.7016727485    0.1170594677   -1.0850084787
H        0.2021948258    0.1868758090   -2.0359410572
13   