13   
From optimize.out: Frame 52 / 53, Energy=    -286.9243180064
C        1.4287593682    0.8425195606   -0.3250872097
C        0.2766459415   -1.4163105594   -0.2011434153
C       -0.9821599900   -1.0609185183    0.1815044956
C       -1.4663085310    0.2730374794    0.4321864887
C       -0.7711985315    1.4644581620    0.3445855300
N        0.5055704975    1.7716839771    0.0152833887
H        2.3961927978    1.2938132753   -0.5562728852
H        0.4722278096   -2.4767490943   -0.3472949383
H       -1.7075845728   -1.8610258723    0.3144518885
H       -2.5090420399    0.3578883204    0.7286078105
H       -1.3559728150    2.3548527029    0.5861931606
C        1.3907341015   -0.5349550234   -0.4358252828
H        2.3221359647   -1.0082944096   -0.7371890318
13   
From optimize.out: Frame 51 / 53, Energy=    -286.9243169585
C        1.4293265043    0.8422263392   -0.3257063931
C        0.2763356877   -1.4167588551   -0.2009815976
C       -0.9827600253   -1.0605057724    0.1809839826
C       -1.4674374592    0.2729931743    0.4313620645
C       -0.7708129181    1.4641101562    0.3450028170
N        0.5054103005    1.7710015356    0.0146702367
H        2.3960018236    1.2947315950   -0.5576125556
H        0.4719723586   -2.4773987003   -0.3457273555
H       -1.7077692222   -1.8610032318    0.3142749627
H       -2.5101704048    0.3579824626    0.7275091619
H       -1.3546164468    2.3546372546    0.5887196880
C        1.3913401989   -0.5347984355   -0.4356865538
H        2.3231796029   -1.0072175226   -0.7368084579
13   
From optimize.out: Frame 50 / 53, Energy=    -286.9243058893
C        1.4307017755    0.8418375342   -0.3245213229
C        0.2768716504   -1.4159398278   -0.1988647545
C       -0.9821051019   -1.0589473282    0.1832877532
C       -1.4701449127    0.2729808436    0.4292285989
C       -0.7699587640    1.4639710506    0.3480378291
N        0.5076471002    1.7698537337    0.0246196251
H        2.3961453758    1.2949071413   -0.5603476982
H        0.4726710322   -2.4777332269   -0.3395962228
H       -1.7042565178   -1.8618500568    0.3189029959
H       -2.5158488279    0.3579594473    0.7145922484
H       -1.3538340867    2.3549291078    0.5903505247
C        1.3913793013   -0.5339265316   -0.4397474648
H        2.3207319757   -1.0080418870   -0.7459421120
13   
From optimize.out: Frame 49 / 53, Energy=    -286.9242651204
C        1.4328599506    0.8405340042   -0.3230193263
C        0.2775636157   -1.4179182317   -0.1941049777
C       -0.9817071552   -1.0579121746    0.1869495269
C       -1.4726007995    0.2727621692    0.4234512288
C       -0.7680663090    1.4639502331    0.3509476777
N        0.5114894105    1.7676816116    0.0418214327
H        2.3969926464    1.2957541635   -0.5609230640
H        0.4732195182   -2.4802306390   -0.3298133560
H       -1.7014541017   -1.8624653559    0.3274586376
H       -2.5214022218    0.3586783079    0.6965099680
H       -1.3531018344    2.3549708816    0.5904092475
C        1.3894782245   -0.5322854809   -0.4464862228
H        2.3167290556   -1.0035194889   -0.7632007723
13   
From optimize.out: Frame 48 / 53, Energy=    -286.9242052561
C        1.4330231066    0.8397574467   -0.3207502083
C        0.2779399226   -1.4191338717   -0.1911061482
C       -0.9805203272   -1.0580317333    0.1894128299
C       -1.4729284684    0.2729084179    0.4155567144
C       -0.7664763504    1.4649514300    0.3522402962
N        0.5155073558    1.7672789893    0.0617113658
H        2.3971542071    1.2942681563   -0.5599010487
H        0.4754315727   -2.4817214733   -0.3218664526
H       -1.6986848383   -1.8624326638    0.3395705744
H       -2.5239057924    0.3598537661    0.6799501867
H       -1.3551963387    2.3543473296    0.5889747745
C        1.3871625673   -0.5303343169   -0.4540666156
H        2.3114933832   -1.0017114769   -0.7797262687
13   
From optimize.out: Frame 47 / 53, Energy=    -286.9241344066
C        1.4325107772    0.8393219298   -0.3191831653
C        0.2779036370   -1.4216613619   -0.1899832141
C       -0.9793406156   -1.0604775888    0.1914139805
C       -1.4708894715    0.2728458781    0.4076532713
C       -0.7649622629    1.4657888281    0.3504490924
N        0.5181888813    1.7668280429    0.0761461246
H        2.3975725039    1.2931406623   -0.5537872266
H        0.4782023728   -2.4834295978   -0.3160284804
H       -1.6995125396   -1.8612360954    0.3500786116
H       -2.5219012470    0.3616197803    0.6711292847
H       -1.3572741423    2.3534317628    0.5857362988
C        1.3830385309   -0.5292793693   -0.4597972300
H        2.3064635756   -0.9968928711   -0.7938273476
13   
From optimize.out: Frame 46 / 53, Energy=    -286.9240864637
C        1.4291448540    0.8380347715   -0.3201089466
C        0.2783093419   -1.4231627407   -0.1902406127
C       -0.9793620498   -1.0618673565    0.1907547337
C       -1.4697553441    0.2729013106    0.4030023292
C       -0.7633897263    1.4668929834    0.3509013200
N        0.5183653186    1.7676281307    0.0820212266
H        2.3931193231    1.2917986396   -0.5570878682
H        0.4816262527   -2.4835035523   -0.3138787127
H       -1.7020750012   -1.8599031602    0.3506035738
H       -2.5197975573    0.3637129342    0.6695013781
H       -1.3572454078    2.3534638059    0.5875604945
C        1.3832292252   -0.5306048218   -0.4588155518
H        2.3078307710   -0.9953909444   -0.7942133640
13   
From optimize.out: Frame 45 / 53, Energy=    -286.9239348211
C        1.4303153791    0.8385484162   -0.3151356608
C        0.2804656002   -1.4169253344   -0.1933461626
C       -0.9783844989   -1.0638094750    0.1909531290
C       -1.4693954050    0.2723477668    0.3970930138
C       -0.7646083776    1.4666286506    0.3440088334
N        0.5202412286    1.7653051456    0.0914019069
H        2.3973675309    1.2896020683   -0.5405770623
H        0.4912432144   -2.4761222896   -0.3107757065
H       -1.6972843822   -1.8622125487    0.3628932401
H       -2.5177503413    0.3652608579    0.6699161857
H       -1.3592811892    2.3535151238    0.5780643975
C        1.3756424284   -0.5302541744   -0.4629208446
H        2.2914288126   -1.0018842070   -0.8115752697
13   
From optimize.out: Frame 44 / 53, Energy=    -286.9238486599
C        1.4331498525    0.8396810545   -0.3117282462
C        0.2749227294   -1.4250707260   -0.1902610805
C       -0.9750681068   -1.0630643297    0.1904555395
C       -1.4688529644    0.2748824174    0.3991532185
C       -0.7664688160    1.4660687034    0.3454938511
N        0.5196339217    1.7667598510    0.0898554379
H        2.3978135991    1.2940065455   -0.5418486870
H        0.4734840657   -2.4874800419   -0.3030959628
H       -1.6977489236   -1.8580682283    0.3658683364
H       -2.5204231764    0.3588543024    0.6607477826
H       -1.3570504491    2.3535736598    0.5851329369
C        1.3797713439   -0.5270324366   -0.4818699216
H        2.3068369238   -0.9931107717   -0.8079032047
13   
From optimize.out: Frame 43 / 53, Energy=    -286.9236289837
C        1.4319397061    0.8387856674   -0.2943008592
C        0.2769841843   -1.4201541027   -0.1971253353
C       -0.9681697876   -1.0606716237    0.2129020561
C       -1.4704760412    0.2779429976    0.4056903368
C       -0.7742974417    1.4664989270    0.3406645499
N        0.5290255961    1.7603495380    0.1086271157
H        2.4076667157    1.2856503237   -0.4981332087
H        0.4715401680   -2.4830473897   -0.3209375045
H       -1.6812138583   -1.8603167450    0.4066020355
H       -2.5278387640    0.3553928499    0.6463252070
H       -1.3646683902    2.3618324431    0.5453783196
C        1.3697974535   -0.5313783846   -0.5137882556
H        2.2997104594   -0.9908845011   -0.8419044571
13   
From optimize.out: Frame 42 / 53, Energy=    -286.9232922759
C        1.4373099435    0.8415631563   -0.2842033884
C        0.2744359122   -1.4191284172   -0.2016769908
C       -0.9684110379   -1.0603042940    0.2266042864
C       -1.4731205966    0.2793961127    0.4133639785
C       -0.7780615633    1.4647352858    0.3448050301
N        0.5357902681    1.7552733397    0.1187124867
H        2.4178354482    1.2865868391   -0.4774493376
H        0.4681399586   -2.4814512916   -0.3380744692
H       -1.6722238549   -1.8645526434    0.4352575329
H       -2.5352512775    0.3532448714    0.6340716424
H       -1.3697265776    2.3655877034    0.5174688171
C        1.3684272332   -0.5269988947   -0.5310961695
H        2.2948561439   -0.9939517677   -0.8577834185
13   
From optimize.out: Frame 41 / 53, Energy=    -286.9229402241
C        1.4397673871    0.8464190612   -0.2644891146
C        0.2766200134   -1.4101645347   -0.2144539059
C       -0.9597530103   -1.0616275979    0.2570065620
C       -1.4683027943    0.2790891943    0.4266011019
C       -0.7839060690    1.4612253807    0.3319026982
N        0.5477180017    1.7469942698    0.1425369670
H        2.4342314445    1.2750122615   -0.4248100036
H        0.4736754794   -2.4717980436   -0.3570035759
H       -1.6563567817   -1.8698070188    0.4685077409
H       -2.5346030342    0.3549219304    0.6292951935
H       -1.3813716034    2.3653213348    0.4578890827
C        1.3503058049   -0.5197164360   -0.5510891103
H        2.2619751617   -0.9958698016   -0.9018936360
13   
From optimize.out: Frame 40 / 53, Energy=    -286.9227382723
C        1.4403157673    0.8510378240   -0.2604681953
C        0.2716543048   -1.4109555283   -0.2187777631
C       -0.9643982523   -1.0674677398    0.2650046840
C       -1.4678597555    0.2774265879    0.4242721692
C       -0.7817456825    1.4573057445    0.3290796014
N        0.5544000772    1.7460436427    0.1495805446
H        2.4371397005    1.2754609145   -0.4156021487
H        0.4712201100   -2.4750203096   -0.3509276364
H       -1.6606133452   -1.8743056133    0.4785478261
H       -2.5350292838    0.3616903158    0.6222880279
H       -1.3806868885    2.3607681421    0.4515442425
C        1.3507683846   -0.5181398116   -0.5585350113
H        2.2648348635   -0.9838441689   -0.9160063409
13   
From optimize.out: Frame 39 / 53, Energy=    -286.9224577322
C        1.4443339614    0.8496139269   -0.2462764701
C        0.2712536494   -1.3991123562   -0.2287254466
C       -0.9642821373   -1.0703890560    0.2799226631
C       -1.4693726197    0.2746231404    0.4239275070
C       -0.7860410254    1.4546778503    0.3109682729
N        0.5584289132    1.7359832788    0.1677503335
H        2.4499409983    1.2647143790   -0.3608569376
H        0.4745740849   -2.4638680193   -0.3587573120
H       -1.6488547903   -1.8796461040    0.5174154131
H       -2.5360578631    0.3658239480    0.6243780120
H       -1.3838388344    2.3613691437    0.4094211302
C        1.3407922056   -0.5207021599   -0.5757339188
H        2.2491234575   -0.9730879718   -0.9634332466
13   
From optimize.out: Frame 38 / 53, Energy=    -286.9220368676
C        1.4436770944    0.8488704107   -0.2360347906
C        0.2684388385   -1.3945602218   -0.2367009344
C       -0.9599594590   -1.0719523919    0.2846003981
C       -1.4661607638    0.2725715232    0.4189986680
C       -0.7860277321    1.4538515930    0.2958676700
N        0.5638005694    1.7321895503    0.1827442329
H        2.4502481067    1.2644121755   -0.3355583349
H        0.4717941472   -2.4627039158   -0.3488466722
H       -1.6423523746   -1.8816021310    0.5281896989
H       -2.5304490491    0.3678522433    0.6305642996
H       -1.3850382639    2.3598589329    0.3898016541
C        1.3328787477   -0.5236156086   -0.5841204331
H        2.2391501384   -0.9651721599   -0.9895054566
13   
From optimize.out: Frame 37 / 53, Energy=    -286.9215562015
C        1.4450636584    0.8546233805   -0.2449023836
C        0.2572846042   -1.4003731269   -0.2511812166
C       -0.9631239593   -1.0706599931    0.2853272197
C       -1.4642560458    0.2733256081    0.4388736880
C       -0.7952481429    1.4513756930    0.2888868401
N        0.5592973077    1.7309870074    0.1756252823
H        2.4592975741    1.2589152235   -0.3097049130
H        0.4730862216   -2.4604939568   -0.3643293242
H       -1.6465043511   -1.8794265760    0.5317486351
H       -2.5260551870    0.3729414211    0.6586267242
H       -1.3955396412    2.3577671682    0.3641468274
C        1.3456407920   -0.5174916677   -0.5898552945
H        2.2510571693   -0.9714901814   -0.9832620850
13   
From optimize.out: Frame 36 / 53, Energy=    -286.9210087512
C        1.4328759723    0.8425410913   -0.2271594415
C        0.2686906369   -1.3919275462   -0.2577316893
C       -0.9364872795   -1.0575025065    0.3231360827
C       -1.4627951889    0.2780231204    0.4514921141
C       -0.8058106918    1.4576607402    0.2721027732
N        0.5549494338    1.7224450560    0.1954164589
H        2.4611062294    1.2189572704   -0.2424687562
H        0.4678598955   -2.4446022116   -0.4326780195
H       -1.6069365006   -1.8718497695    0.5897807389
H       -2.5293552539    0.3635479922    0.6524339531
H       -1.4019953982    2.3690917544    0.2952866464
C        1.3258408492   -0.5265092879   -0.6022974555
H        2.2320572956   -0.9598757031   -1.0173134053
13   
From optimize.out: Frame 35 / 53, Energy=    -286.9198313756
C        1.4385974953    0.8408034413   -0.2078440161
C        0.2820503293   -1.3861473495   -0.2485822300
C       -0.9178481037   -1.0475321592    0.3478613272
C       -1.4670151903    0.2813304374    0.4438123667
C       -0.8143256124    1.4595719738    0.2551139826
N        0.5497444075    1.7081296890    0.2197422598
H        2.4586660680    1.2404052219   -0.2048733834
H        0.4601962104   -2.4312962437   -0.4758886980
H       -1.5800586484   -1.8642985083    0.6277153094
H       -2.5342013973    0.3508064260    0.6474418392
H       -1.4015791505    2.3768787524    0.2529993707
C        1.3305704994   -0.5256001486   -0.6012172148
H        2.1952030927   -1.0030515326   -1.0562809133
13   
From optimize.out: Frame 34 / 53, Energy=    -286.9182493869
C        1.4450811950    0.8364782772   -0.1890063228
C        0.2827898647   -1.3967259967   -0.2177380853
C       -0.9088248173   -1.0463605848    0.3803767360
C       -1.4674316969    0.2856115411    0.4518773642
C       -0.8158710131    1.4545456191    0.2471464416
N        0.5505203801    1.6885768027    0.2285218103
H        2.4617496478    1.2436643207   -0.1711858812
H        0.4143049895   -2.4344271574   -0.5016261380
H       -1.5796870587   -1.8570270788    0.6549182488
H       -2.5418617057    0.3369705968    0.6194423204
H       -1.3924787363    2.3775907993    0.2123958098
C        1.3508981408   -0.5422670219   -0.5839268310
H        2.2008108101   -0.9466301174   -1.1311954728
13   
From optimize.out: Frame 33 / 53, Energy=    -286.9169382053
C        1.4354456126    0.8213157430   -0.1639083880
C        0.3023381469   -1.3939485413   -0.2164042429
C       -0.8944862004   -1.0300000190    0.3757179675
C       -1.4689620547    0.2873453955    0.4353158229
C       -0.8205830819    1.4639980131    0.2294299030
N        0.5383851216    1.6806322503    0.2307312953
H        2.4645169803    1.1928383200   -0.0860594751
H        0.4214026182   -2.4425672154   -0.4590797549
H       -1.5482606035   -1.8433374216    0.6871879634
H       -2.5426514578    0.3174661091    0.6049995070
H       -1.3862910611    2.3935976381    0.1984216506
C        1.3469372735   -0.5306518452   -0.6089511718
H        2.1522087063   -0.9166884267   -1.2274010769
13   
From optimize.out: Frame 32 / 53, Energy=    -286.9147668342
C        1.4642340532    0.8375816573   -0.1524824949
C        0.3160145126   -1.3815588833   -0.1780534001
C       -0.8920890743   -1.0379651213    0.3889309539
C       -1.4685897976    0.2849423191    0.4259760070
C       -0.8165223058    1.4576293285    0.2379516042
N        0.5429275229    1.6782536161    0.2444342725
H        2.4876102310    1.2124680329   -0.0493253831
H        0.4607913982   -2.4282920947   -0.4204153098
H       -1.5508277382   -1.8489609575    0.6915694785
H       -2.5485187503    0.3120106462    0.5550143501
H       -1.3842155549    2.3854350629    0.1920182356
C        1.3385930605   -0.5194770718   -0.6172351021
H        2.0505924427   -0.9520665345   -1.3183832118
13   
From optimize.out: Frame 31 / 53, Energy=    -286.9120832099
C        1.4703556645    0.8320426475   -0.1305408729
C        0.3202390271   -1.3885914032   -0.1573936324
C       -0.8951392645   -1.0412989353    0.3842690514
C       -1.4687423323    0.2836171976    0.4033061820
C       -0.8102253673    1.4548118479    0.2334711360
N        0.5493028756    1.6698589817    0.2528502970
H        2.4932190693    1.1993290129   -0.0022072240
H        0.4783286456   -2.4450256610   -0.3498753065
H       -1.5545392690   -1.8478035615    0.6961702393
H       -2.5492092589    0.3156784413    0.5281397716
H       -1.3741647266    2.3852736963    0.1931739233
C        1.3447091280   -0.5209988641   -0.6316836242
H        1.9958658085   -0.8968934003   -1.4196799406
13   
From optimize.out: Frame 30 / 53, Energy=    -286.9081933223
C        1.4844982158    0.8330884745   -0.1101861486
C        0.3297753713   -1.3861469200   -0.1369128919
C       -0.8948967965   -1.0483801712    0.3804144711
C       -1.4648469300    0.2794819894    0.3820313188
C       -0.8002598126    1.4505461006    0.2350356986
N        0.5599809971    1.6700552544    0.2630010540
H        2.5096310086    1.1778914358    0.0495021946
H        0.5301069827   -2.4466515213   -0.2716280810
H       -1.5535615966   -1.8523043417    0.6990041036
H       -2.5474035690    0.3199963110    0.4885143921
H       -1.3675153852    2.3790840193    0.1956120982
C        1.3237004172   -0.5102171830   -0.6571576836
H        1.8907910970   -0.8664434479   -1.5172305258
13   
From optimize.out: Frame 29 / 53, Energy=    -286.9033974484
C        1.4969989232    0.8258882658   -0.0843378836
C        0.3345617522   -1.3910496459   -0.1209400765
C       -0.8971076987   -1.0582232119    0.3763965786
C       -1.4611727071    0.2739069611    0.3557143528
C       -0.7867799126    1.4448460322    0.2323458518
N        0.5755701982    1.6664366314    0.2734555103
H        2.5228352754    1.1539641909    0.0984731714
H        0.5759708807   -2.4528914745   -0.1890720202
H       -1.5553032958   -1.8585043177    0.7029379792
H       -2.5446502866    0.3301628626    0.4535361330
H       -1.3560811848    2.3725298114    0.1972342037
C        1.3045173718   -0.5062340733   -0.6823954811
H        1.7906406840   -0.8008320321   -1.6133483195
13   
From optimize.out: Frame 28 / 53, Energy=    -286.8979404929
C        1.5110827294    0.8148894204   -0.0554419893
C        0.3376941246   -1.3956733892   -0.1169218709
C       -0.8956388843   -1.0666960331    0.3730137734
C       -1.4535708091    0.2675812788    0.3370892442
C       -0.7714520934    1.4390598207    0.2265385552
N        0.5930324773    1.6632957282    0.2786050279
H        2.5393007048    1.1171722072    0.1547441437
H        0.6225026035   -2.4534424120   -0.1154261293
H       -1.5494845021   -1.8646094630    0.7132560217
H       -2.5379163105    0.3374553558    0.4233447449
H       -1.3474721198    2.3623760237    0.1883440310
C        1.2748229437   -0.4952274576   -0.7100698040
H        1.6770991358   -0.7261810797   -1.6970757485
13   
From optimize.out: Frame 27 / 53, Energy=    -286.8927948754
C        1.5173201912    0.7978958896   -0.0273785416
C        0.3402828429   -1.4043595065   -0.1229393979
C       -0.8957184439   -1.0722768739    0.3646872906
C       -1.4474841533    0.2612569512    0.3161443083
C       -0.7573352533    1.4357934888    0.2195376528
N        0.6076996683    1.6566874142    0.2812796268
H        2.5474054159    1.0737290763    0.2101761593
H        0.6600013397   -2.4531471062   -0.0393696088
H       -1.5426703469   -1.8670347140    0.7257743801
H       -2.5315087248    0.3430059304    0.4013920372
H       -1.3370738687    2.3567354656    0.1831707811
C        1.2581683300   -0.4847047769   -0.7420142244
H        1.5809130028   -0.6435812386   -1.7704604635
13   
From optimize.out: Frame 26 / 53, Energy=    -286.8872506593
C        1.5361943181    0.7927938914   -0.0039452365
C        0.3279052795   -1.4239910312   -0.1477684008
C       -0.8951781177   -1.0767441574    0.3503627749
C       -1.4430546647    0.2535505843    0.2838513636
C       -0.7525970064    1.4319516366    0.1981360424
N        0.6128656769    1.6576020535    0.2714535687
H        2.5644596062    1.0428993349    0.2742546165
H        0.6649677154   -2.4622697095    0.0209282693
H       -1.5263273090   -1.8619011035    0.7611674037
H       -2.5238082176    0.3413599336    0.4000379505
H       -1.3380822102    2.3491757443    0.1892084953
C        1.2605566807   -0.4518966344   -0.7744665281
H        1.5120982488   -0.5925305426   -1.8232203197
13   
From optimize.out: Frame 25 / 53, Energy=    -286.8813378799
C        1.5201786728    0.7667248878    0.0101028272
C        0.3180452980   -1.4298830280   -0.1626496452
C       -0.9093963314   -1.0737536038    0.3142005986
C       -1.4524578896    0.2507351686    0.2613390269
C       -0.7507365970    1.4308593580    0.1820483123
N        0.6124415344    1.6441996516    0.2608966614
H        2.5397519171    1.0053706523    0.3307642646
H        0.7021649790   -2.4325748297    0.1048630054
H       -1.5239744370   -1.8554307811    0.7569071485
H       -2.5243810013    0.3534903643    0.4319914713
H       -1.3289706597    2.3530410082    0.2022673762
C        1.2868839592   -0.4390898536   -0.8196944028
H        1.5104505553   -0.5736889947   -1.8730366445
13   
From optimize.out: Frame 24 / 53, Energy=    -286.8789717210
C        1.4921277364    0.7163948810    0.0225528839
C        0.3468695538   -1.4160066820   -0.1321276427
C       -0.8685490147   -1.0523340196    0.3514374199
C       -1.4380473880    0.2528833205    0.2434376550
C       -0.7395531616    1.4336644305    0.1818273795
N        0.6157772784    1.6309843184    0.2451666353
H        2.5004298722    0.8948245411    0.4100711714
H        0.7574143650   -2.4011250850    0.1254236055
H       -1.5009176693   -1.8409440323    0.7571641390
H       -2.5143687705    0.3349834436    0.3872242765
H       -1.3046655456    2.3633205336    0.2003210739
C        1.2124572067   -0.4161002474   -0.8682702661
H        1.4410255373   -0.5005454024   -1.9242283312
13   
From optimize.out: Frame 23 / 53, Energy=    -286.8748252133
C        1.4541748577    0.6535530243    0.0388386353
C        0.4073561103   -1.3837355765   -0.1052070814
C       -0.8622052484   -1.0343361890    0.3241535293
C       -1.4514119687    0.2595843231    0.2136169708
C       -0.7404971649    1.4549143465    0.1638253921
N        0.6009727482    1.6234998974    0.2853389158
H        2.4651047299    0.7896944653    0.4350797946
H        0.8467173596   -2.3413505724    0.1858441377
H       -1.4777167359   -1.8308864935    0.7411293585
H       -2.5221800563    0.3473005276    0.3898574830
H       -1.3131394387    2.3801813495    0.2242962732
C        1.1910823383   -0.4052267090   -0.9203733886
H        1.4017424689   -0.5131923932   -1.9764000204
13   
From optimize.out: Frame 19 / 53, Energy=    -286.8643568777
C        1.4025443472    0.5684722845    0.0428637417
C        0.4627889771   -1.2982343585   -0.1131423649
C       -0.8545808405   -0.9968005036    0.3024126895
C       -1.4757105376    0.2581720114    0.1917441121
C       -0.7476892644    1.4739366527    0.1753229335
N        0.5899796986    1.5963355494    0.2780680175
H        2.3848926768    0.6295683338    0.5215569908
H        0.9384568831   -2.2161763446    0.2916629791
H       -1.4222442343   -1.8189580011    0.7328979906
H       -2.5474256294    0.3406406382    0.3728114340
H       -1.3052383124    2.4067520378    0.2607241516
C        1.1670397836   -0.4053028631   -1.0058460806
H        1.4071864522   -0.5384054367   -2.0510765950
13   
From optimize.out: Frame 18 / 53, Energy=    -286.8557364104
C        1.3566106187    0.4628775752    0.0295009885
C        0.5128392572   -1.1578410374   -0.0247396455
C       -0.8727617401   -0.9661983659    0.2813374428
C       -1.4930590479    0.2495229654    0.1687248508
C       -0.7393731699    1.4614785944    0.1910760151
N        0.5567071753    1.5446928371    0.3221435351
H        2.3314130076    0.4719960356    0.5225898256
H        1.0202463440   -2.0232278240    0.4035655358
H       -1.4261362046   -1.8163927611    0.6796491770
H       -2.5633926232    0.3336699919    0.3324494739
H       -1.2928378590    2.3948347935    0.3060903686
C        1.1753791184   -0.4220187926   -1.0848342152
H        1.4343651236   -0.5333940122   -2.1275533525
13   
From optimize.out: Frame 17 / 53, Energy=    -286.8546643413
C        1.3439105165    0.4278162047    0.0448982802
C        0.5352169953   -1.1282896198   -0.0051686966
C       -0.8776071867   -0.9629594045    0.2748792065
C       -1.4988661582    0.2473542585    0.1907691607
C       -0.7365391253    1.4686810969    0.1920450276
N        0.5578191182    1.5534994039    0.2794502965
H        2.3145745027    0.4466063122    0.5449731396
H        1.0309422494   -2.0025749598    0.4268975091
H       -1.4294664151   -1.8336353532    0.6255446715
H       -2.5675619200    0.3290819473    0.3698657100
H       -1.2842320441    2.4069152150    0.2969741142
C        1.1736611436   -0.4261402578   -1.0997790727
H        1.4381483235   -0.5263548434   -2.1413493464
13   
From optimize.out: Frame 16 / 53, Energy=    -286.8543376527
C        1.3373768385    0.4205843388    0.0477766804
C        0.5416999828   -1.1244077282   -0.0027988143
C       -0.8812414187   -0.9652517528    0.2630682805
C       -1.5007789709    0.2475208023    0.1992974238
C       -0.7353968090    1.4739261845    0.1888526314
N        0.5590000143    1.5607606217    0.2566884223
H        2.3059814678    0.4442149888    0.5514350292
H        1.0338564493   -1.9928954541    0.4489831317
H       -1.4318211561   -1.8423499597    0.5978520661
H       -2.5682816004    0.3290332304    0.3885504596
H       -1.2805907407    2.4122263911    0.3068562792
C        1.1748727541   -0.4316264827   -1.1034774582
H        1.4453231891   -0.5317351801   -2.1430841315
13   
From optimize.out: Frame 14 / 53, Energy=    -286.8530768202
C        1.3440242530    0.4034935222    0.0623111295
C        0.5506447557   -1.1010463921    0.0304469384
C       -0.8902738369   -0.9613990639    0.2834496541
C       -1.5064649145    0.2422681996    0.2179618184
C       -0.7358036585    1.4716851308    0.1974419086
N        0.5512552828    1.5446686565    0.2676535568
H        2.3200518355    0.4460801563    0.5481340977
H        1.0164075446   -2.0049474233    0.4227853534
H       -1.4379733876   -1.8531787533    0.5808849287
H       -2.5735348791    0.3282185374    0.4019654852
H       -1.2770536272    2.4184636576    0.2574592583
C        1.1901237386   -0.4280021907   -1.1133889525
H        1.4485968937   -0.5063040370   -2.1571051766
13   
From optimize.out: Frame 13 / 53, Energy=    -286.8524845659
C        1.3333576929    0.3638755721    0.0906317602
C        0.5525801210   -1.0959918910   -0.0050567405
C       -0.8881720369   -0.9576083821    0.2612532353
C       -1.5068816809    0.2416057554    0.2438476426
C       -0.7342988288    1.4648319195    0.1767324531
N        0.5515055255    1.5218300962    0.2382407207
H        2.3019853013    0.4278982457    0.5874562074
H        0.9991895246   -1.9955953354    0.4163215107
H       -1.4213588963   -1.8433702010    0.5966443816
H       -2.5707745401    0.3195550701    0.4443247602
H       -1.2544628508    2.4237651168    0.2161865432
C        1.1799683474   -0.4127535463   -1.1130247426
H        1.4573623211   -0.4580424200   -2.1535577320
13   
From optimize.out: Frame 12 / 53, Energy=    -286.8505188634
C        1.3311400665    0.3874740152    0.0985399736
C        0.5343086986   -1.1090108633   -0.0284578950
C       -0.9149425316   -0.9645317351    0.2908245632
C       -1.5173358273    0.2474404753    0.2966562192
C       -0.7324454663    1.4874457833    0.1602247833
N        0.5562227536    1.5649246392    0.1737141246
H        2.2860162484    0.4295113121    0.6280655671
H        1.0367004952   -2.0220656536    0.3633657623
H       -1.4625421876   -1.8657840292    0.5711596676
H       -2.5810316460    0.3389727515    0.5107557817
H       -1.2758410445    2.4327662858    0.1891863484
C        1.2119538442   -0.4245502984   -1.1124048693
H        1.5277965967   -0.5025926828   -2.1416300268
13   
From optimize.out: Frame 10 / 53, Energy=    -286.8446363577
C        1.3251673755    0.3242746116    0.1072347024
C        0.5406055904   -1.0691556764   -0.0181634543
C       -0.8821201671   -0.9504256621    0.3121938878
C       -1.5188335502    0.2457580356    0.3260354081
C       -0.7513629899    1.4577275777    0.1263993206
N        0.5433689759    1.4611471244    0.1468830736
H        2.2584714428    0.3860776289    0.6737883069
H        0.9921718716   -1.9695515887    0.3756636846
H       -1.4267847180   -1.8616933196    0.5389118021
H       -2.5835621725    0.3049010963    0.5248811089
H       -1.1934377500    2.4546981178    0.1545989545
C        1.2001456228   -0.3789770995   -1.1167264279
H        1.4961704685   -0.4047808460   -2.1517003673
13   
From optimize.out: Frame 9 / 53, Energy=    -286.8346429800
C        1.3138305138    0.2876240473    0.1138193934
C        0.5404064650   -1.0991639738   -0.0445279478
C       -0.8597980436   -0.9493919378    0.3283601492
C       -1.5127946537    0.2517348535    0.3126356133
C       -0.7463736687    1.4514646951    0.1057557269
N        0.5501696159    1.4317301250    0.1463240675
H        2.2100998254    0.3019220891    0.7391367004
H        1.0255520864   -1.9512727463    0.4167174059
H       -1.4169837502   -1.8513054971    0.5601358624
H       -2.5797379565    0.3000090756    0.4993732342
H       -1.1516177731    2.4630858919    0.1545845870
C        1.1811751648   -0.3073771534   -1.1448454116
H        1.4460721743   -0.3290594691   -2.1874693807
13   