13   
From optimize.out: Frame 1 / 1, Energy=    -286.9243179979
C        1.4287593682    0.8425195606   -0.3250872097
C        0.2766459415   -1.4163105594   -0.2011434153
C       -0.9821599900   -1.0609185183    0.1815044956
C       -1.4663085310    0.2730374794    0.4321864887
C       -0.7711985315    1.4644581620    0.3445855300
N        0.5055704975    1.7716839771    0.0152833887
H        2.3961927978    1.2938132753   -0.5562728852
H        0.4722278096   -2.4767490943   -0.3472949383
H       -1.7075845728   -1.8610258723    0.3144518885
H       -2.5090420399    0.3578883204    0.7286078105
H       -1.3559728150    2.3548527029    0.5861931606
C        1.3907341015   -0.5349550234   -0.4358252828
H        2.3221359647   -1.0082944096   -0.7371890318
13   
From optimize.out: Frame 52 / 53, Energy=    -286.9243180064
C        1.4287593682    0.8425195606   -0.3250872097
C        0.2766459415   -1.4163105594   -0.2011434153
C       -0.9821599900   -1.0609185183    0.1815044956
C       -1.4663085310    0.2730374794    0.4321864887
C       -0.7711985315    1.4644581620    0.3445855300
N        0.5055704975    1.7716839771    0.0152833887
H        2.3961927978    1.2938132753   -0.5562728852
H        0.4722278096   -2.4767490943   -0.3472949383
H       -1.7075845728   -1.8610258723    0.3144518885
H       -2.5090420399    0.3578883204    0.7286078105
H       -1.3559728150    2.3548527029    0.5861931606
C        1.3907341015   -0.5349550234   -0.4358252828
H        2.3221359647   -1.0082944096   -0.7371890318
13   
From optimize.out: Frame 51 / 53, Energy=    -286.9243169585
C        1.4302854163    0.8385352680   -0.3152629660
C        0.2804104047   -1.4170849982   -0.1932666674
C       -0.9784095220   -1.0637597611    0.1909480505
C       -1.4694046186    0.2723619363    0.3972442792
C       -0.7645771828    1.4666354169    0.3441852658
N        0.5201932095    1.7653646088    0.0911617822
H        2.3972587862    1.2896582956   -0.5409997024
H        0.4909970414   -2.4763112336   -0.3108551366
H       -1.6974070115   -1.8621534334    0.3625786518
H       -2.5178027455    0.3652212344    0.6699055676
H       -1.3592290777    2.3535138102    0.5783074766
C        1.3758366336   -0.5302631502   -0.4628157582
H        2.2918486664   -1.0017179939   -0.8111308433
13   
From optimize.out: Frame 50 / 53, Energy=    -286.9243058893
C        1.4355244948    0.8406397216   -0.2875605055
C        0.2752831390   -1.4194694280   -0.2001636970
C       -0.9683308292   -1.0604264205    0.2220486910
C       -1.4722413584    0.2789129939    0.4108127145
C       -0.7768101017    1.4653216455    0.3434284401
N        0.5335412103    1.7569610288    0.1153593924
H        2.4144546387    1.2862754748   -0.4843261267
H        0.4692704299   -2.4819819481   -0.3323769239
H       -1.6752127711   -1.8631443296    0.4257304085
H       -2.5327868311    0.3539590122    0.6381455984
H       -1.3680448765    2.3643391880    0.5267479198
C        1.3688827919   -0.5284549485   -0.5253417885
H        2.2964700635   -0.9929319902   -0.8525041230
13   
From optimize.out: Frame 49 / 53, Energy=    -286.9242651204
C        1.4405070791    0.8509700302   -0.2597925074
C        0.2716352290   -1.4103916583   -0.2192513862
C       -0.9643927239   -1.0676068277    0.2657149498
C       -1.4679317851    0.2772931119    0.4242557593
C       -0.7819501898    1.4571806268    0.3282172957
N        0.5545918957    1.7455646547    0.1504456337
H        2.4377491882    1.2749492569   -0.4129956527
H        0.4713797974   -2.4744893335   -0.3513004182
H       -1.6600535039   -1.8745598815    0.4803983663
H       -2.5350782559    0.3618871238    0.6223875349
H       -1.3808369570    2.3607967566    0.4495387022
C        1.3502934048   -0.5182618086   -0.5593538753
H        2.2640868215   -0.9833320513   -0.9182644022
13   
From optimize.out: Frame 48 / 53, Energy=    -286.9242052561
C        1.4442491128    0.8512437628   -0.2396930612
C        0.2638372282   -1.3969582998   -0.2426746852
C       -0.9612649540   -1.0714192207    0.2849002439
C       -1.4653749841    0.2728826163    0.4271979846
C       -0.7898315555    1.4528301758    0.2929877718
N        0.5619427767    1.7316934487    0.1798073539
H        2.4539814085    1.2621444420   -0.3248926656
H        0.4723271845   -2.4617922109   -0.3552339445
H       -1.6440652468   -1.8807046193    0.5296579160
H       -2.5286363884    0.3699517522    0.6421412792
H       -1.3893705421    2.3589959883    0.3792179141
C        1.3381436501   -0.5210892147   -0.5864863147
H        2.2440623103   -0.9677786206   -0.9869297922
13   
From optimize.out: Frame 47 / 53, Energy=    -286.9241344066
C        1.4343198895    0.8439725217   -0.2292615090
C        0.2673393249   -1.3929281233   -0.2569556322
C       -0.9396430187   -1.0590613192    0.3186567365
C       -1.4629682616    0.2774665899    0.4499971657
C       -0.8045593102    1.4569161290    0.2740912394
N        0.5554645414    1.7234570504    0.1930717301
H        2.4608919518    1.2236912267   -0.2504344553
H        0.4684790764   -2.4464849614   -0.4245805141
H       -1.6116242401   -1.8727474198    0.5829054757
H       -2.5289642836    0.3646608641    0.6531676320
H       -1.4012305624    2.3677500917    0.3034447492
C        1.3281866167   -0.5254409394   -0.6008233898
H        2.2343082761   -0.9612517104   -1.0132792281
13   
From optimize.out: Frame 46 / 53, Energy=    -286.9240864637
C        1.4403362681    0.8396435360   -0.2027921985
C        0.2822486550   -1.3889842890   -0.2403105700
C       -0.9154282747   -1.0472179710    0.3565811802
C       -1.4671268874    0.2824785267    0.4459752057
C       -0.8147400518    1.4582240260    0.2529772791
N        0.5499525047    1.7028860738    0.2220967247
H        2.4594930101    1.2412792341   -0.1958392031
H        0.4478892853   -2.4321358797   -0.4827908623
H       -1.5799589970   -1.8623484853    0.6350104855
H       -2.5362557083    0.3470959884    0.6399330396
H       -1.3991386376    2.3770697063    0.2421104692
C        1.3360218854   -0.5300698044   -0.5965803485
H        2.1967069481   -0.9879206619   -1.0763712018
13   
From optimize.out: Frame 44 / 53, Energy=    -286.9238486599
C        1.4407153166    0.8296081392   -0.1776344589
C        0.2916471833   -1.3954675328   -0.2171337219
C       -0.9023279959   -1.0389476192    0.3782658499
C       -1.4681251014    0.2863971498    0.4443733367
C       -0.8180060496    1.4588284949    0.2391190853
N        0.5450218995    1.6849771293    0.2295229270
H        2.4630035250    1.2206350808   -0.1326151418
H        0.4175209221   -2.4381154143   -0.4823483894
H       -1.5654477448   -1.8508243008    0.6695396432
H       -2.5422195421    0.3281331215    0.6128982876
H       -1.3896751032    2.3848434914    0.2060641240
C        1.3491034735   -0.5370041901   -0.5952653495
H        2.1787892169   -0.9330635497   -1.1747861923
13   
From optimize.out: Frame 43 / 53, Energy=    -286.9236289837
C        1.4496722546    0.8293540158   -0.1582619519
C        0.3090967192   -1.3878258329   -0.1974520629
C       -0.8933015911   -1.0339362051    0.3822475475
C       -1.4687780931    0.2861578457    0.4307002823
C       -0.8185763318    1.4608507431    0.2336411485
N        0.5406298808    1.6794567793    0.2375030185
H        2.4759291792    1.2025389113   -0.0679062594
H        0.4408677249   -2.4355127510   -0.4399725993
H       -1.5495292275   -1.8461164548    0.6893532160
H       -2.5455509504    0.3147701341    0.5802978937
H       -1.3852653896    2.3895638651    0.1952572175
C        1.3428137389   -0.5251295072   -0.6130449160
H        2.1019920858   -0.9341715436   -1.2723625346
13   
From optimize.out: Frame 42 / 53, Energy=    -286.9232922759
C        1.4677354878    0.8344134587   -0.1399323425
C        0.3184308472   -1.3855813388   -0.1662364418
C       -0.8938337198   -1.0398719937    0.3862644424
C       -1.4686770443    0.2841843771    0.4130093376
C       -0.8129205877    1.4560177881    0.2353888694
N        0.5465740923    1.6734520595    0.2492480639
H        2.4908183701    1.2049527862   -0.0223747740
H        0.4708223397   -2.4378633473   -0.3800678919
H       -1.5529506568   -1.8482989510    0.6942010182
H       -2.5489137069    0.3141085489    0.5396426490
H       -1.3784666897    2.3853427646    0.1926792650
C        1.3420913242   -0.5203475054   -0.6254993569
H        2.0192899437   -0.9205086468   -1.3763228383
13   
From optimize.out: Frame 41 / 53, Energy=    -286.9229402241
C        1.4785806967    0.8326508801   -0.1187029620
C        0.3257851790   -1.3871697394   -0.1454824329
C       -0.8949982498   -1.0454172441    0.3820273026
C       -1.4664768422    0.2812122411    0.3909331363
C       -0.8044295949    1.4523309724    0.2343810551
N        0.5555130630    1.6699731301    0.2587537794
H        2.5027639334    1.1868613359    0.0278659660
H        0.5084419172   -2.4459712296   -0.3043682452
H       -1.5539706738   -1.8504211275    0.6978183595
H       -2.5481591048    0.3181896302    0.5050944232
H       -1.3702975992    2.3816739008    0.1945919183
C        1.3324908713   -0.5147284485   -0.6464988407
H        1.9347564043   -0.8791843014   -1.4764134596
13   
From optimize.out: Frame 40 / 53, Energy=    -286.9227382723
C        1.4908556378    0.8294267005   -0.0970406263
C        0.3322095570   -1.3886402747   -0.1287896774
C       -0.8960211839   -1.0533859970    0.3783711117
C       -1.4629783489    0.2766467252    0.3686474316
C       -0.7934044076    1.4476472454    0.2336677367
N        0.5679091188    1.6682149495    0.2683178243
H        2.5163462363    1.1657228771    0.0744071183
H        0.5534317550   -2.4498249430   -0.2296429598
H       -1.5544473638   -1.8554574324    0.7010047350
H       -2.5460033460    0.3251666631    0.4707256745
H       -1.3617003513    2.3757507787    0.1964370443
C        1.3139445921   -0.5081915129   -0.6699927435
H        1.8398581045   -0.8330757797   -1.5661126694
13   
From optimize.out: Frame 39 / 53, Energy=    -286.9224577322
C        1.5028043707    0.8213544617   -0.0724267856
C        0.3358529389   -1.3929555866   -0.1192837429
C       -0.8965022427   -1.0617157705    0.3750021617
C       -1.4580391494    0.2712994688    0.3480369475
C       -0.7804616740    1.4424609137    0.2299520419
N        0.5827682768    1.6651419282    0.2755781790
H        2.5296224453    1.1387982674    0.1216684759
H        0.5951515957   -2.4531185750   -0.1587146477
H       -1.5529047467   -1.8610209031    0.7071911515
H       -2.5418744926    0.3331688814    0.4410910230
H       -1.3525324655    2.3683443462    0.1935696098
C        1.2922771123   -0.5016970661   -0.6938030385
H        1.7438380312   -0.7700603660   -1.6478613754
13   
From optimize.out: Frame 38 / 53, Energy=    -286.9220368676
C        1.5130885468    0.8094247104   -0.0464174608
C        0.3385265941   -1.3984666352   -0.1188569626
C       -0.8956644688   -1.0684906970    0.3703361772
C       -1.4516134873    0.2655475275    0.3303538576
C       -0.7669124578    1.4380094470    0.2242872337
N        0.5977490925    1.6611706536    0.2794651145
H        2.5419069846    1.1032019432    0.1725697442
H        0.6345612935   -2.4533474488   -0.0909681850
H       -1.5472932340   -1.8653893653    0.7172816241
H       -2.5358557853    0.3392402868    0.4162852831
H       -1.3441282928    2.3605621561    0.1866804385
C        1.2694672213   -0.4918436171   -0.7203423599
H        1.6461679933   -0.6996189612   -1.7206745045
13   
From optimize.out: Frame 37 / 53, Energy=    -286.9215562015
C        1.5233516430    0.7962654854   -0.0198901502
C        0.3363274453   -1.4106329938   -0.1308738012
C       -0.8955457763   -1.0737044475    0.3601097212
C       -1.4460686575    0.2587942900    0.3058247137
C       -0.7558210901    1.4345657792    0.2126985136
N        0.6093505278    1.6569796981    0.2781395931
H        2.5528552853    1.0638770657    0.2306531926
H        0.6615884041   -2.4560623426   -0.0201007045
H       -1.5374477347   -1.8653942077    0.7370846418
H       -2.5290479361    0.3424799325    0.4009593227
H       -1.3373960962    2.3543196667    0.1851002045
C        1.2589315559   -0.4742205447   -0.7523847442
H        1.5589224295   -0.6272673813   -1.7873205032
13   
From optimize.out: Frame 36 / 53, Energy=    -286.9210087512
C        1.5288894674    0.7809036319    0.0024621861
C        0.3234080712   -1.4266784132   -0.1545558431
C       -0.9016631469   -1.0753801444    0.3338689470
C       -1.4473435430    0.2522664530    0.2735833254
C       -0.7517484603    1.4314534405    0.1907983133
N        0.6126722225    1.6514891219    0.2666384876
H        2.5531902520    1.0257822336    0.3000290723
H        0.6819336541   -2.4487256618    0.0592115044
H       -1.5252541472   -1.8589499431    0.7592242708
H       -2.5240694684    0.3468927100    0.4146121805
H       -1.3339263666    2.3509387189    0.1951647446
C        1.2725647412   -0.4460553698   -0.7950952861
H        1.5113467240   -0.5839367775   -1.8459419027
13   
From optimize.out: Frame 35 / 53, Energy=    -286.9198313756
C        1.5088881358    0.7464669970    0.0151139906
C        0.3296470971   -1.4242977813   -0.1503645009
C       -0.8929552353   -1.0651321943    0.3291884658
C       -1.4466576446    0.2515998024    0.2541337023
C       -0.7462352502    1.4319884032    0.1819593866
N        0.6137841755    1.6388804634    0.2545653062
H        2.5239247448    0.9608757040    0.3626853939
H        0.7244029261   -2.4199162680    0.1131386727
H       -1.5146940591   -1.8495998466    0.7570105875
H       -2.5203510658    0.3460413055    0.4139726193
H       -1.3191878208    2.3571785301    0.2014839871
C        1.2569270981   -0.4298365083   -0.8392462486
H        1.4825068986   -0.5442486072   -1.8936413625
13   
From optimize.out: Frame 34 / 53, Energy=    -286.9182493869
C        1.4856224988    0.7056235977    0.0253443107
C        0.3572371316   -1.4104753174   -0.1275133775
C       -0.8674616740   -1.0492491373    0.3467608790
C       -1.4403381174    0.2540318925    0.2383263000
C       -0.7397149666    1.4373067300    0.1787417847
N        0.6132397374    1.6297014661    0.2520522850
H        2.4943750365    0.8768049298    0.4143577247
H        0.7727211670   -2.3908795536    0.1357798665
H       -1.4969409595   -1.8392201399    0.7544157294
H       -2.5157076484    0.3370946288    0.3876756160
H       -1.3061179963    2.3662105282    0.2044304952
C        1.2087934899   -0.4142364902   -0.8772008980
H        1.4342923012   -0.5027131347   -1.9331707157
13   
From optimize.out: Frame 33 / 53, Energy=    -286.9169382053
C        1.4553786718    0.6555462832    0.0383220732
C        0.4054375583   -1.3847591724   -0.1060609653
C       -0.8624064641   -1.0349070559    0.3250189375
C       -1.4509880623    0.2593717764    0.2145628427
C       -0.7404672224    1.4542403278    0.1643963909
N        0.6014423279    1.6237372931    0.2840647052
H        2.4662251957    0.7930290494    0.4342865548
H        0.8438847891   -2.3432465393    0.1839276800
H       -1.4784526382   -1.8312055051    0.7416379602
H       -2.5219322929    0.3469098463    0.3897739612
H       -1.3128706582    2.3796465472    0.2235358123
C        1.1917603203   -0.4055716029   -0.9187207478
H        1.4029884749   -0.5127912478   -1.9747452048
13   
From optimize.out: Frame 32 / 53, Energy=    -286.9147668342
C        1.4276838340    0.6098990709    0.0409038713
C        0.4357980795   -1.3398658806   -0.1092785845
C       -0.8582932520   -1.0150770587    0.3129985534
C       -1.4638792862    0.2588596821    0.2023942575
C       -0.7441873488    1.4646744740    0.1697246489
N        0.5953323403    1.6095621815    0.2816083011
H        2.4239488440    0.7075355808    0.4794502537
H        0.8937878586   -2.2771251095    0.2401385735
H       -1.4492544306   -1.8247661206    0.7369059379
H       -2.5351332708    0.3438834146    0.3811113505
H       -1.3090854613    2.3938144654    0.2429870005
C        1.1787463788   -0.4052657828   -0.9642284481
H        1.4045357144   -0.5261289171   -2.0147157157
13   
From optimize.out: Frame 31 / 53, Energy=    -286.9120832099
C        1.4006309574    0.5640736902    0.0423071103
C        0.4648738436   -1.2923862127   -0.1094599106
C       -0.8553381739   -0.9955257580    0.3015347908
C       -1.4764331974    0.2578117315    0.1907852346
C       -0.7473428538    1.4734177068    0.1759791351
N        0.5885937169    1.5941843494    0.2799040027
H        2.3826649576    0.6230045901    0.5216000139
H        0.9418638592   -2.2081389888    0.2963243295
H       -1.4224063561   -1.8188511448    0.7306798877
H       -2.5480907416    0.3403502728    0.3711301387
H       -1.3047217661    2.4062556197    0.2626139014
C        1.1673871622   -0.4059991726   -1.0091363662
H        1.4083185918   -0.5381966836   -2.0542622681
13   
From optimize.out: Frame 30 / 53, Energy=    -286.9081933223
C        1.3790817317    0.5145352726    0.0360381442
C        0.4883542973   -1.2265224680   -0.0679868968
C       -0.8638675122   -0.9811691536    0.2916476063
C       -1.4845720309    0.2537541414    0.1799860404
C       -0.7434414636    1.4675731669    0.1833694934
N        0.5729843349    1.5699568264    0.3005814723
H        2.3575756495    0.5490815463    0.5220845553
H        0.9802343467   -2.1176196392    0.3488219937
H       -1.4242322245   -1.8176476951    0.7056988827
H       -2.5555814541    0.3370800826    0.3521948375
H       -1.2989042507    2.4006647958    0.2838968863
C        1.1712994553   -0.4138412387   -1.0461926471
H        1.4210691205   -0.5358456374   -2.0901403682
13   
From optimize.out: Frame 28 / 53, Energy=    -286.8979404929
C        1.3575325060    0.4649968549    0.0297691782
C        0.5118347510   -1.1606587233   -0.0265138830
C       -0.8723968505   -0.9668125491    0.2817604218
C       -1.4927108643    0.2496965512    0.1691868461
C       -0.7395400735    1.4617286270    0.1907598516
N        0.5573749529    1.5457293034    0.3212589420
H        2.3324863415    0.4751585026    0.5225690966
H        1.0186048342   -2.0271002897    0.4013196580
H       -1.4260580930   -1.8164442453    0.6807178776
H       -2.5630721666    0.3338098924    0.3332595362
H       -1.2930867353    2.3950739720    0.3051798713
C        1.1752117484   -0.4216833049   -1.0832489279
H        1.4338196492   -0.5334945912   -2.1260184683
13   
From optimize.out: Frame 27 / 53, Energy=    -286.8927948754
C        1.3375643714    0.4201021830    0.0481867175
C        0.5419523273   -1.1237486723   -0.0018609052
C       -0.8814962358   -0.9651430630    0.2636432675
C       -1.5009393793    0.2473726190    0.1998239725
C       -0.7354082868    1.4738629612    0.1890949469
N        0.5587815246    1.5603066449    0.2569977640
H        2.3063784125    0.4442676078    0.5513419053
H        1.0333641913   -1.9932354570    0.4482440557
H       -1.4319947192   -1.8426554551    0.5973733994
H       -2.5684298027    0.3290102468    0.3889289162
H       -1.2804909537    2.4124023531    0.3054627203
C        1.1753030057   -0.4315242364   -1.1037570753
H        1.4454155448   -0.5310177320   -2.1434796848
13   
From optimize.out: Frame 26 / 53, Energy=    -286.8872506593
C        1.3365418031    0.3757020577    0.0821776749
C        0.5520023886   -1.0975007269    0.0055415804
C       -0.8887994522   -0.9587399511    0.2678791619
C       -1.5067572706    0.2418035038    0.2361203794
C       -0.7347480405    1.4668776944    0.1829145013
N        0.5514308247    1.5286477105    0.2470208439
H        2.3073784023    0.4333257881    0.5757180341
H        1.0043293328   -1.9983870581    0.4182510538
H       -1.4263185432   -1.8462981844    0.5919399751
H       -2.5715985380    0.3221412304    0.4316799526
H       -1.2612064983    2.4221825606    0.2285069982
C        1.1829998669   -0.4173054697   -1.1131334641
H        1.4547457243   -0.4724491553   -2.1546166914
13   
From optimize.out: Frame 25 / 53, Energy=    -286.8813378799
C        1.3316666920    0.3818700314    0.0966619896
C        0.5386476609   -1.1059192140   -0.0229007618
C       -0.9085852725   -0.9628876285    0.2838021829
C       -1.5148532539    0.2460548892    0.2841156289
C       -0.7328855891    1.4820756102    0.1641449027
N        0.5551025412    1.5546908658    0.1890374236
H        2.2898084610    0.4291282530    0.6184219566
H        1.0277926673   -2.0157796782    0.3759413019
H       -1.4527622841   -1.8604613590    0.5772115891
H       -2.5785958643    0.3343615841    0.4949802339
H       -1.2707643091    2.4306287547    0.1955981550
C        1.2043581649   -0.4217488929   -1.1125520722
H        1.5110703857   -0.4920132158   -2.1444625300
13   
From optimize.out: Frame 24 / 53, Energy=    -286.8789717210
C        1.3276213841    0.3502414464    0.1036622860
C        0.5380183769   -1.0855310375   -0.0223931468
C       -0.8956059418   -0.9562214457    0.3034138410
C       -1.5182181785    0.2464493022    0.3139643362
C       -0.7435903183    1.4699379419    0.1402972398
N        0.5486502270    1.5037863494    0.1579071882
H        2.2697888189    0.4039232922    0.6550021354
H        1.0104674148   -1.9911281222    0.3706108186
H       -1.4414764437   -1.8633740757    0.5521615315
H       -2.5825224512    0.3189001690    0.5190774143
H       -1.2272949166    2.4456869527    0.1688099295
C        1.2049972847   -0.3977018288   -1.1149508225
H        1.5091647437   -0.4449689437   -2.1475627512
13   
From optimize.out: Frame 23 / 53, Energy=    -286.8748252133
C        1.3201639816    0.3080993052    0.1101407803
C        0.5405177087   -1.0823994945   -0.0297991214
C       -0.8722685537   -0.9499694397    0.3193286820
C       -1.5161683525    0.2483958357    0.3201215622
C       -0.7491610102    1.4549635262    0.1172885071
N        0.5463703604    1.4481642689    0.1466363626
H        2.2371231839    0.3489365460    0.7026290714
H        1.0069038468   -1.9614844311    0.3937822740
H       -1.4224591732   -1.8571087732    0.5482787978
H       -2.5818743986    0.3027420590    0.5136235008
H       -1.1749809825    2.4583999658    0.1545926136
C        1.1917732286   -0.3473772840   -1.1291364191
H        1.4740601606   -0.3713620842   -2.1674866114
13   
From optimize.out: Frame 19 / 53, Energy=    -286.8643568777
C        1.3290516811    0.2731771852    0.1130125226
C        0.5263774014   -1.0910177175   -0.0490252614
C       -0.8558851907   -0.9502381309    0.3410943716
C       -1.5145449754    0.2504069069    0.3191043374
C       -0.7490421454    1.4338641889    0.0955859184
N        0.5539117131    1.4119918915    0.1393541865
H        2.2155832355    0.2877545326    0.7492677350
H        1.0372189883   -1.9181612557    0.4168935163
H       -1.4155681903   -1.8532842757    0.5577385255
H       -2.5811892903    0.2996769757    0.5013054014
H       -1.1401986361    2.4510358802    0.1449418044
C        1.1795354356   -0.2850593710   -1.1406323252
H        1.4147499730   -0.3101468102   -2.1886407323
13   
From optimize.out: Frame 18 / 53, Energy=    -286.8557364104
C        1.3613565079    0.2515363640    0.1040317131
C        0.5125379647   -1.1032091083   -0.0462730284
C       -0.8417063722   -0.9566679800    0.3469243477
C       -1.5071746376    0.2470417922    0.3129401565
C       -0.7479376438    1.4071361532    0.0947067838
N        0.5650620315    1.3869901497    0.1431251497
H        2.2369329664    0.2512995579    0.7499782069
H        1.0598939028   -1.8606470044    0.4610183137
H       -1.4108732991   -1.8569124558    0.5423824157
H       -2.5741654672    0.2993197951    0.4776009899
H       -1.1309004975    2.4273192363    0.1517231767
C        1.1590815459   -0.2314339982   -1.1395215873
H        1.3178929981   -0.2617725016   -2.1986366380
13   
From optimize.out: Frame 17 / 53, Energy=    -286.8546643413
C        1.3880489704    0.2284985592    0.0919768226
C        0.5148040384   -1.1159903249   -0.0314976416
C       -0.8289536640   -0.9617091438    0.3417767108
C       -1.5026186820    0.2457506032    0.2948460615
C       -0.7433252032    1.3926765706    0.1069392943
N        0.5800994246    1.3776948837    0.1577102601
H        2.2612142506    0.1971665283    0.7355859559
H        1.1004139419   -1.8055780978    0.5136999491
H       -1.4045459125   -1.8601632291    0.5278704905
H       -2.5714733040    0.3007181057    0.4394327085
H       -1.1376503972    2.4075959894    0.1768889123
C        1.1281988530   -0.1899034294   -1.1444091709
H        1.2157876840   -0.2167570151   -2.2108203530
13   
From optimize.out: Frame 16 / 53, Energy=    -286.8543376527
C        1.4121306558    0.1894608876    0.0821381454
C        0.5200816384   -1.0982907312   -0.0126733945
C       -0.8224988252   -0.9605781515    0.3456790944
C       -1.5134688743    0.2475222612    0.2808675241
C       -0.7410868975    1.3794359996    0.1146435701
N        0.5990852847    1.3678222527    0.1676492144
H        2.2824320101    0.1182269491    0.7228887973
H        1.1732196798   -1.7296828020    0.5368302415
H       -1.3969474619   -1.8641377265    0.5235894954
H       -2.5853455831    0.3042191334    0.4076379680
H       -1.1492429885    2.3874969470    0.1991111227
C        1.0978443999   -0.1638563024   -1.1489646759
H        1.1237969618   -0.1776387171   -2.2193971030
13   
From optimize.out: Frame 14 / 53, Energy=    -286.8530768202
C        1.4517327632    0.1901502555    0.0603749135
C        0.5202082676   -1.1134357652    0.0107853953
C       -0.8203751092   -0.9713699044    0.3373327396
C       -1.5099884987    0.2391750330    0.2640186194
C       -0.7332337618    1.3641790565    0.1343213039
N        0.6156714197    1.3666697688    0.1813345628
H        2.3384392601    0.1117830730    0.6745591772
H        1.2041861691   -1.6899055448    0.5853120362
H       -1.4054145815   -1.8722325349    0.4955182679
H       -2.5840958445    0.2972108834    0.3701877073
H       -1.1560257244    2.3644402418    0.2343247606
C        1.0667884058   -0.1357728313   -1.1401424195
H        1.0121072346   -0.1508917314   -2.2079270643
13   
From optimize.out: Frame 13 / 53, Energy=    -286.8524845659
C        1.4976218940    0.2079972404    0.0379551934
C        0.5136948814   -1.1417092044    0.0384188161
C       -0.8291439110   -0.9909022255    0.3281702861
C       -1.5068220868    0.2276937408    0.2502360036
C       -0.7220060260    1.3496391636    0.1544143299
N        0.6335537946    1.3734900336    0.1932641529
H        2.4033885295    0.1349353013    0.6228635636
H        1.2155929360   -1.6818667473    0.6375276440
H       -1.4301838242   -1.8858789644    0.4642380459
H       -2.5828927687    0.2903170499    0.3370624773
H       -1.1580531625    2.3426022729    0.2677686500
C        1.0466480925   -0.1044137560   -1.1347813741
H        0.9186016514   -0.1219039046   -2.1971377887
13   
From optimize.out: Frame 12 / 53, Energy=    -286.8505188634
C        1.5494766297    0.2429008329    0.0179545598
C        0.4975623193   -1.1823113672    0.0716877251
C       -0.8549083135   -1.0215785778    0.3212548507
C       -1.5084132034    0.2139418449    0.2424450859
C       -0.7067744148    1.3368975500    0.1716691798
N        0.6543193265    1.3911116645    0.2011420814
H        2.4730688840    0.1863378194    0.5760405790
H        1.2065366904   -1.7164121777    0.6885229437
H       -1.4775599650   -1.9076228612    0.4345976830
H       -2.5862324320    0.2867178119    0.3128629815
H       -1.1535226905    2.3236821526    0.2944080074
C        1.0450280266   -0.0681604182   -1.1391766678
H        0.8614191426   -0.0855042742   -2.1934090096
13   
From optimize.out: Frame 9 / 53, Energy=    -286.8346429800
C        1.6013313654    0.2778044255   -0.0020460738
C        0.4814297573   -1.2229135299    0.1049566342
C       -0.8806727160   -1.0522549301    0.3143394152
C       -1.5100043200    0.2001899490    0.2346541682
C       -0.6915428036    1.3241559364    0.1889240297
N        0.6750848585    1.4087332954    0.2090200099
H        2.5427492386    0.2377403375    0.5292175945
H        1.1974804448   -1.7509576081    0.7395182434
H       -1.5249361058   -1.9293667579    0.4049573200
H       -2.5895720952    0.2831185739    0.2886634857
H       -1.1489922184    2.3047620324    0.3210473649
C        1.0434079606   -0.0319070804   -1.1435719614
H        0.8042366338   -0.0491046438   -2.1896802306
13   
From optimize.out: Frame 8 / 53, Energy=    -286.8200852775
C        1.5997072909    0.2609374510   -0.0171447107
C        0.5093480669   -1.2040187352    0.1347567933
C       -0.8656591916   -1.0579172679    0.2951181555
C       -1.5020149836    0.1961867099    0.2202523762
C       -0.6787533484    1.3229535012    0.2075100651
N        0.6905007376    1.4033125649    0.2263865782
H        2.5522794457    0.1985566500    0.4903132476
H        1.2318959245   -1.7115733892    0.7932569697
H       -1.5057267264   -1.9422006011    0.3587367118
H       -2.5835513830    0.2732339790    0.2565046073
H       -1.1363155414    2.3016207021    0.3516628398
C        0.9864826724   -0.0204598513   -1.1418215857
H        0.7018070363   -0.0206317136   -2.1755320480
13   
From optimize.out: Frame 7 / 53, Energy=    -286.8001095274
C        1.5940364060    0.2401529310   -0.0318724072
C        0.5405997628   -1.1806217290    0.1642944677
C       -0.8475599489   -1.0616867629    0.2749656983
C       -1.4933006819    0.1929211642    0.2053503308
C       -0.6661486942    1.3226242505    0.2261968330
N        0.7055118015    1.3961481893    0.2444711641
H        2.5572580137    0.1525181876    0.4520081143
H        1.2696009657   -1.6665948185    0.8472032946
H       -1.4814787350   -1.9543602090    0.3112614549
H       -2.5768223590    0.2628737630    0.2237434321
H       -1.1230224306    2.2996733732    0.3825791927
C        0.9253723667   -0.0108897323   -1.1396061593
H        0.5959535333    0.0072413930   -2.1605954158
13   