13   
From optimize.out: Frame 2 / 3, Energy=    -286.9243477216
C        1.6276639315    0.3392271855   -0.3027601267
C        1.1393237710   -0.9428352096   -0.4738965665
C       -0.2056741721   -1.4171572286   -0.2711846395
C       -1.2783094952   -0.6848475977    0.1421864018
C       -0.2471559984    1.6191039934    0.4195377458
N        1.0602970564    1.5047078549    0.0861278080
H        2.6912210000    0.4564990081   -0.5222194936
H        1.8652133641   -1.6818652093   -0.8043903605
H       -0.3710696079   -2.4737481844   -0.4722864989
H       -2.2282300129   -1.2058790824    0.2435343208
H       -0.5060666194    2.6396143676    0.7102013760
C       -1.2952218083    0.7195564842    0.4640634259
H       -2.2519914088    1.1276236189    0.7810866077
13   
From optimize.out: Frame 1 / 3, Energy=    -286.9243436157
C        1.6291414729    0.3400558407   -0.3109900093
C        1.1450707294   -0.9426747006   -0.4725965616
C       -0.2131946824   -1.4017512008   -0.3111473415
C       -1.2816874253   -0.6769792821    0.1247459611
C       -0.2521310734    1.6232034518    0.3991792149
N        1.0390302146    1.5193063029    0.0189740931
H        2.7005438781    0.4518749836   -0.4900255804
H        1.8709468921   -1.7142207458   -0.7302199054
H       -0.3737489420   -2.4572924337   -0.5145695495
H       -2.2237576413   -1.2101520811    0.2388484489
H       -0.5106589890    2.6401562106    0.6979119655
C       -1.2938695749    0.7152095517    0.4886827305
H       -2.2356848587    1.1132641030    0.8612065336
13   
From optimize.out: Frame 99 / 100, Energy=    -286.9243436242
C        1.6295220226    0.3231075634   -0.3022001327
C        1.1409954326   -0.9449295117   -0.4784108534
C       -0.2199915450   -1.3971048067   -0.3456761626
C       -1.2728529759   -0.6726750614    0.1324632405
C       -0.2536631971    1.6302020490    0.3672426077
N        1.0163138406    1.5214016613   -0.0316736083
H        2.7065082003    0.4510892922   -0.4091644889
H        1.8756819050   -1.7125000947   -0.7032995088
H       -0.3917082703   -2.4456390277   -0.5818771037
H       -2.2128695380   -1.2075468164    0.2592935108
H       -0.5165019759    2.6593076560    0.6313516190
C       -1.2862002147    0.7049827506    0.5244591162
H       -2.2152336843    1.0903043462    0.9374917642
13   
From optimize.out: Frame 98 / 100, Energy=    -286.9243390424
C        1.6299937958    0.3157276763   -0.2930637760
C        1.1456871941   -0.9496824462   -0.4641368160
C       -0.2256232140   -1.4003941861   -0.3641020513
C       -1.2664607282   -0.6759241414    0.1529067630
C       -0.2526409559    1.6373257281    0.3394605544
N        1.0023239800    1.5229437540   -0.0698214881
H        2.7091356772    0.4552372203   -0.3423450201
H        1.8803746391   -1.7182455458   -0.6899236247
H       -0.4058134375   -2.4321929085   -0.6613643802
H       -2.2224804133   -1.1863514265    0.2686605459
H       -0.5380785661    2.6793975768    0.5526552482
C       -1.2700100869    0.6887508195    0.5563214384
H       -2.1864078845    1.0634078794    1.0147526066
13   
From optimize.out: Frame 96 / 100, Energy=    -286.9243279196
C        1.6300618881    0.3163144883   -0.2733341949
C        1.1525752080   -0.9530774357   -0.4472002366
C       -0.2237458136   -1.4022260301   -0.3698909202
C       -1.2622234203   -0.6784353075    0.1719370724
C       -0.2519223745    1.6436981795    0.3194808717
N        0.9899942835    1.5309942102   -0.0944644900
H        2.7138702130    0.4489739219   -0.3074173710
H        1.8874380754   -1.7295704289   -0.6739241579
H       -0.4244567849   -2.4099662362   -0.7333709151
H       -2.2359658262   -1.1631048419    0.2482645168
H       -0.5741299863    2.6841458624    0.4599081343
C       -1.2475575686    0.6717930101    0.6022394533
H       -2.1539378936    1.0404606079    1.0977722372
13   
From optimize.out: Frame 94 / 100, Energy=    -286.9243147723
C        1.6298704001    0.3164182992   -0.2526736674
C        1.1543599091   -0.9539137084   -0.4316558421
C       -0.2177864609   -1.4019854042   -0.3726551294
C       -1.2546461657   -0.6802158699    0.1849075270
C       -0.2556126765    1.6465045570    0.3069016454
N        0.9774392458    1.5443932508   -0.1139534171
H        2.7126971807    0.4358499009   -0.2846951069
H        1.8915170663   -1.7346405533   -0.6513453454
H       -0.4498749008   -2.3802971399   -0.7942918138
H       -2.2435521423   -1.1479440880    0.2136897202
H       -0.6128047333    2.6795671239    0.3644707207
C       -1.2226834612    0.6531866398    0.6539238318
H       -2.1089232613    1.0230769920    1.1773768769
13   
From optimize.out: Frame 93 / 100, Energy=    -286.9243056910
C        1.6300153318    0.3130534778   -0.2355601418
C        1.1518836906   -0.9531937761   -0.4196231450
C       -0.2118292638   -1.4001336283   -0.3748971819
C       -1.2455550325   -0.6845470390    0.1989041941
C       -0.2612021221    1.6453662000    0.2987355523
N        0.9646609603    1.5570864546   -0.1392486106
H        2.7080844147    0.4187855523   -0.2619822552
H        1.8944553421   -1.7321952433   -0.6233702754
H       -0.4783977542   -2.3454793559   -0.8492503932
H       -2.2434774090   -1.1446455428    0.1698030568
H       -0.6514546007    2.6752725544    0.2734030753
C       -1.1982413245    0.6346655650    0.7100534198
H       -2.0589422328    1.0159647813    1.2530327048
13   
From optimize.out: Frame 91 / 100, Energy=    -286.9242510302
C        1.6317459452    0.3069999844   -0.2234871421
C        1.1493969784   -0.9541054442   -0.4118256208
C       -0.2116602734   -1.3874933446   -0.3744611622
C       -1.2407691213   -0.6814036312    0.2168714668
C       -0.2657603079    1.6289258821    0.2846378168
N        0.9515453127    1.5487694905   -0.1772494375
H        2.7088562467    0.4054544346   -0.2395563817
H        1.9029949739   -1.7220083951   -0.5978388915
H       -0.5006861050   -2.3042072489   -0.8846322869
H       -2.2352757034   -1.1370105055    0.1094752102
H       -0.6963559295    2.6541115697    0.1951791210
C       -1.1723740716    0.6209928491    0.7767186741
H       -2.0216579446    1.0209743590    1.3261686337
13   
From optimize.out: Frame 90 / 100, Energy=    -286.9242081202
C        1.6341952227    0.2998911906   -0.2135695329
C        1.1526243125   -0.9580759826   -0.4015189222
C       -0.2172059001   -1.3648419406   -0.3712941610
C       -1.2446549126   -0.6698433011    0.2382545513
C       -0.2664988308    1.6084107246    0.2669234167
N        0.9375133907    1.5191198556   -0.2206017582
H        2.7181195862    0.3987110688   -0.2282884313
H        1.9169958618   -1.7142261644   -0.5762050989
H       -0.5090853726   -2.2623218571   -0.9074737235
H       -2.2277419679   -1.1126841451    0.0421109023
H       -0.7485299456    2.6164675731    0.1315816787
C       -1.1444778988    0.6148936739    0.8476878023
H       -2.0012535454    1.0244993043    1.3923932768
13   
From optimize.out: Frame 89 / 100, Energy=    -286.9241426512
C        1.6372624945    0.2960824325   -0.2032161256
C        1.1622992384   -0.9666497377   -0.3808462975
C       -0.2255451909   -1.3367768081   -0.3673175617
C       -1.2521157731   -0.6502773584    0.2529800892
C       -0.2639180045    1.5914892044    0.2518039570
N        0.9242903372    1.4778633866   -0.2555980063
H        2.7321633972    0.4028310343   -0.2346799667
H        1.9327082893   -1.7149366030   -0.5639282162
H       -0.5031425048   -2.2251165235   -0.9193829328
H       -2.2302933359   -1.0584609199   -0.0162060333
H       -0.8059332954    2.5547359518    0.0782323230
C       -1.1150633728    0.6125750107    0.9137865375
H       -1.9927122792    1.0166409304    1.4443722335
13   
From optimize.out: Frame 88 / 100, Energy=    -286.9240333394
C        1.6414963550    0.2947902221   -0.1908033223
C        1.1744260362   -0.9779638980   -0.3446854754
C       -0.2304609965   -1.3099229066   -0.3645693869
C       -1.2576005057   -0.6296227418    0.2558191357
C       -0.2588071586    1.5823453415    0.2494529181
N        0.9122330523    1.4423589816   -0.2744750998
H        2.7373858596    0.4132975620   -0.2627820468
H        1.9460738742   -1.7228396844   -0.5541459954
H       -0.4869780464   -2.1933609126   -0.9335047976
H       -2.2451570598   -0.9805912792   -0.0547980836
H       -0.8599111370    2.4768767790    0.0270409132
C       -1.0878751394    0.6063937833    0.9701183597
H       -1.9848251340    0.9982387532    1.4773328810
13   
From optimize.out: Frame 86 / 100, Energy=    -286.9237188127
C        1.6460653775    0.2946056947   -0.1803537286
C        1.1808370169   -0.9866835771   -0.3005566502
C       -0.2279664175   -1.2893572209   -0.3676378965
C       -1.2535959391   -0.6041784119    0.2403894639
C       -0.2623132181    1.5704131948    0.2545248814
N        0.9000128427    1.4233280516   -0.2750350142
H        2.7280287932    0.4270010901   -0.2972770232
H        1.9518296717   -1.7314776922   -0.5427364644
H       -0.4738183369   -2.1644036730   -0.9423864043
H       -2.2658431431   -0.8919399470   -0.0783924984
H       -0.9042531611    2.3965714411   -0.0276115086
C       -1.0616447812    0.5836827282    1.0151876036
H       -1.9573387050    0.9724383215    1.5018852395
13   
From optimize.out: Frame 85 / 100, Energy=    -286.9234872438
C        1.6533333769    0.2942655073   -0.1689064877
C        1.1790306970   -0.9953447552   -0.2555010137
C       -0.2209155198   -1.2802465895   -0.3656219008
C       -1.2366387376   -0.5736320151    0.2157826816
C       -0.2738098058    1.5520065096    0.2673795321
N        0.8925065278    1.4203855144   -0.2667758010
H        2.7153901794    0.4345115816   -0.3299998550
H        1.9491313817   -1.7380054239   -0.5306502499
H       -0.4616151813   -2.1553893733   -0.9661512641
H       -2.2735690762   -0.7984117439   -0.0950145180
H       -0.9461616175    2.3273350897   -0.0951471007
C       -1.0505187865    0.5664364004    1.0560107898
H       -1.9261634382    0.9460892977    1.5345951874
13   
From optimize.out: Frame 84 / 100, Energy=    -286.9233262198
C        1.6524869586    0.2926338421   -0.1606027180
C        1.1710581369   -0.9964062517   -0.2306279226
C       -0.2106640701   -1.2816211039   -0.3704761671
C       -1.2093955603   -0.5302075900    0.1848002766
C       -0.3045897993    1.5199788027    0.2656668876
N        0.8845416029    1.4209210070   -0.2480151786
H        2.7087365361    0.4380373716   -0.3321756099
H        1.9345632980   -1.7365630272   -0.5235651008
H       -0.4640960134   -2.1528826021   -0.9836551189
H       -2.2641047687   -0.7141863050   -0.1028066975
H       -0.9845953976    2.2738456073   -0.1743480806
C       -1.0209511775    0.5474633399    1.0981652588
H       -1.8929897455    0.9189869091    1.5776401709
13   
From optimize.out: Frame 81 / 100, Energy=    -286.9221863091
C        1.6484247417    0.2949589775   -0.1555803546
C        1.1638997147   -0.9949682932   -0.2257450992
C       -0.1985962910   -1.2882219502   -0.3735812851
C       -1.1833432350   -0.4801236749    0.1519034291
C       -0.3443678174    1.4765145472    0.2482942446
N        0.8806050915    1.4197161972   -0.2251854423
H        2.7108136150    0.4447963832   -0.3162002969
H        1.9161596033   -1.7333253593   -0.5232459766
H       -0.4760065061   -2.1593058854   -0.9826496644
H       -2.2402779338   -0.6378163173   -0.1217329138
H       -1.0157517379    2.2254976408   -0.2524478923
C       -0.9912101809    0.5342233364    1.1386298749
H       -1.8703490640    0.8980543978    1.6375413766
13   
From optimize.out: Frame 80 / 100, Energy=    -286.9216447569
C        1.6448244850    0.3069184186   -0.1548724218
C        1.1657510617   -0.9950473656   -0.2374135183
C       -0.1855913038   -1.2953661022   -0.3735958523
C       -1.1740815148   -0.4328750159    0.1200509151
C       -0.3839640021    1.4244765953    0.2097413289
N        0.8782798731    1.4126864391   -0.2049942218
H        2.7156030109    0.4649557449   -0.2892627165
H        1.9047039823   -1.7327431731   -0.5291646157
H       -0.4958872280   -2.1716708116   -0.9504826947
H       -2.2183539030   -0.5792171699   -0.1632979413
H       -1.0347626529    2.1730022458   -0.3112613264
C       -0.9669006345    0.5353679958    1.1692145749
H       -1.8496211739    0.8895121988    1.7153384900
13   
From optimize.out: Frame 79 / 100, Energy=    -286.9207069882
C        1.6436371188    0.3217868240   -0.1601599183
C        1.1678470757   -0.9970653957   -0.2545263936
C       -0.1794758810   -1.2983842380   -0.3643298623
C       -1.1741121021   -0.3941185311    0.0852939879
C       -0.4141279292    1.3807587710    0.1693396820
N        0.8792472946    1.4076512061   -0.1882426693
H        2.7182699873    0.4877750173   -0.2753112425
H        1.8942386727   -1.7384558040   -0.5321020344
H       -0.5119544677   -2.1880984912   -0.8857102958
H       -2.1914839058   -0.5317270457   -0.2371112491
H       -1.0468389376    2.1341900529   -0.3368782426
C       -0.9723975656    0.5390951817    1.1802961816
H       -1.8128493599    0.8765924527    1.7994420565
13   
From optimize.out: Frame 78 / 100, Energy=    -286.9184618277
C        1.6468926763    0.3444163146   -0.1639990927
C        1.1751808559   -1.0036418797   -0.2564400654
C       -0.1750698707   -1.2978722797   -0.3441741698
C       -1.1722367664   -0.3565269611    0.0488957833
C       -0.4420967843    1.3362806496    0.1026780446
N        0.8854219588    1.4082399319   -0.1839094305
H        2.7247650693    0.5139667042   -0.2773233013
H        1.9013796890   -1.7438301129   -0.5212145986
H       -0.5300608129   -2.2134482584   -0.8396522289
H       -2.1914867184   -0.5105970382   -0.3143293580
H       -1.0471443494    2.0930149215   -0.3360934711
C       -0.9939562022    0.5402986931    1.1916309621
H       -1.7815887449    0.8896993148    1.8939309262
13   
From optimize.out: Frame 76 / 100, Energy=    -286.9125224500
C        1.6403902738    0.3534738045   -0.1556198925
C        1.1700335513   -1.0038705991   -0.2539676464
C       -0.1758053993   -1.2848838603   -0.3388797920
C       -1.1817175348   -0.3254322461    0.0253391660
C       -0.4657994565    1.3139354474    0.0630843570
N        0.8854887921    1.4099770019   -0.1758907405
H        2.7179969607    0.5250214520   -0.2602131984
H        1.9013198500   -1.7521209646   -0.5226181939
H       -0.5361511231   -2.2134232525   -0.8001522205
H       -2.1994142658   -0.4815750557   -0.3741013065
H       -1.0538892251    2.0845911170   -0.3698183437
C       -1.0114275526    0.5471703419    1.1779626319
H       -1.6910248708    0.8271368136    1.9848751794
13   
From optimize.out: Frame 75 / 100, Energy=    -286.9095220065
C        1.6349362374    0.3587662627   -0.1471227455
C        1.1625245785   -1.0042993928   -0.2589387077
C       -0.1766080679   -1.2720805333   -0.3311762390
C       -1.1917030718   -0.2960505846    0.0054075582
C       -0.4845445691    1.2956854048    0.0413390613
N        0.8886558211    1.4107657564   -0.1615696030
H        2.7110067685    0.5301415736   -0.2449205724
H        1.8945314020   -1.7627342486   -0.5327400923
H       -0.5364285039   -2.2140877780   -0.7524101904
H       -2.1906770481   -0.4403681229   -0.4364939090
H       -1.0624141421    2.0852449468   -0.4098108084
C       -1.0356713324    0.5586175626    1.1593920086
H       -1.6136080722    0.7503991531    2.0690442396
13   
From optimize.out: Frame 74 / 100, Energy=    -286.9059830214
C        1.6250602878    0.3599453482   -0.1442733576
C        1.1537656251   -1.0078232478   -0.2632027874
C       -0.1788601453   -1.2695649825   -0.3322182730
C       -1.1980108523   -0.2773646119   -0.0143565177
C       -0.5090674554    1.2841626059    0.0242884695
N        0.8782188058    1.4132700198   -0.1567282256
H        2.7003632507    0.5343477462   -0.2272390296
H        1.8869088981   -1.7720236080   -0.5323621652
H       -0.5334988274   -2.2254209178   -0.7146338602
H       -2.1770654412   -0.4100232244   -0.4923249471
H       -1.0924209979    2.0884190748   -0.4297104761
C       -1.0636947217    0.5698593922    1.1480841620
H       -1.4916984263    0.7122164053    2.1346770081
13   
From optimize.out: Frame 73 / 100, Energy=    -286.9012503050
C        1.6253951147    0.3666917408   -0.1547757421
C        1.1460815517   -1.0166748387   -0.2723371188
C       -0.1730539961   -1.2729787573   -0.3298075555
C       -1.2002692271   -0.2706292753   -0.0305618180
C       -0.5335660068    1.2665189227    0.0073850997
N        0.8642850906    1.4099055386   -0.1606735798
H        2.6962098831    0.5489591782   -0.2278794343
H        1.8795697189   -1.7847851957   -0.5226921601
H       -0.5326266932   -2.2424653649   -0.6714832276
H       -2.1593223695   -0.3984343484   -0.5446401673
H       -1.1321447506    2.0775070206   -0.3980221955
C       -1.0866981155    0.5675553022    1.1452763798
H       -1.3938602002    0.7488300772    2.1602115194
13   
From optimize.out: Frame 71 / 100, Energy=    -286.8921548253
C        1.6075232037    0.3450749861   -0.1589768266
C        1.1420214261   -1.0253161944   -0.2734748709
C       -0.1728593693   -1.2750889639   -0.3342518373
C       -1.1963414419   -0.2426140275   -0.0423916596
C       -0.5605418781    1.2784995556    0.0082973471
N        0.8466703367    1.4147318499   -0.1532209119
H        2.6771237258    0.5211916522   -0.2339536122
H        1.8875122926   -1.7885767955   -0.5133609922
H       -0.5131580325   -2.2574704062   -0.6479824057
H       -2.1431605071   -0.3756298608   -0.5850663692
H       -1.1539016004    2.1203455601   -0.3884300579
C       -1.1186912739    0.5819518350    1.1248928669
H       -1.3021968816    0.7029008094    2.1979193293
13   
From optimize.out: Frame 69 / 100, Energy=    -286.8844043911
C        1.5977327073    0.3451546442   -0.1751214048
C        1.1562006796   -1.0136440386   -0.2913524636
C       -0.1817613496   -1.2897653266   -0.3344987794
C       -1.1995707759   -0.2349555872   -0.0515412894
C       -0.5601794121    1.2455384765    0.0031950232
N        0.8324889302    1.4051378832   -0.1500341544
H        2.6736213417    0.5442897549   -0.2436110795
H        1.8882740799   -1.7931921202   -0.5139798350
H       -0.4993736336   -2.2965338513   -0.5981731481
H       -2.1296162469   -0.3750378817   -0.6241610290
H       -1.1733681838    2.1054511502   -0.3443953336
C       -1.1394485868    0.5657815932    1.1392435566
H       -1.2649995500    0.7917753033    2.1844299370
13   
From optimize.out: Frame 68 / 100, Energy=    -286.8783697264
C        1.6242754028    0.3723811946   -0.1927652083
C        1.1395591395   -1.0194166893   -0.2957936214
C       -0.1685304953   -1.2831324125   -0.3208047684
C       -1.2017841469   -0.2507779927   -0.0628491102
C       -0.5617050169    1.2225830029   -0.0131504373
N        0.8407440376    1.3980001830   -0.1691381934
H        2.6961575235    0.5820605310   -0.2595544185
H        1.8598855269   -1.8013568450   -0.4878307711
H       -0.5219964137   -2.2798163390   -0.5640458102
H       -2.1069538124   -0.3821138900   -0.6605965142
H       -1.1807139647    2.0572085876   -0.3003038446
C       -1.1510594536    0.5222931487    1.1432454714
H       -1.2678783268    0.8620875208    2.1835872262
13   
From optimize.out: Frame 66 / 100, Energy=    -286.8670421489
C        1.6276392456    0.3738598936   -0.2137857043
C        1.1442293035   -1.0055625078   -0.3062237608
C       -0.1616151354   -1.2868592213   -0.3067382095
C       -1.2048905268   -0.2463579420   -0.0645839937
C       -0.5576041897    1.1783185986   -0.0266077236
N        0.8205052991    1.3798563224   -0.1762314236
H        2.6989551169    0.6093680676   -0.2891788201
H        1.8512262520   -1.8094162188   -0.4737969962
H       -0.5294330716   -2.2948949946   -0.5179067502
H       -2.0864656024   -0.3970475076   -0.6900312307
H       -1.2052033975    2.0232641184   -0.2135872271
C       -1.1503179114    0.5429942000    1.1423595746
H       -1.2470253823    0.9324771915    2.1363122650
13   
From optimize.out: Frame 65 / 100, Energy=    -286.8637602594
C        1.6360603696    0.3837792550   -0.2175620833
C        1.1575176839   -0.9763588875   -0.3120384472
C       -0.1780450048   -1.2809210327   -0.3029007650
C       -1.2064526377   -0.2401466657   -0.0495059109
C       -0.5291265265    1.1300955114   -0.0576417520
N        0.8103247718    1.3637442775   -0.1865015003
H        2.7079464917    0.6413262473   -0.2929668454
H        1.8379179527   -1.8085687501   -0.4645982962
H       -0.5396637143   -2.2971702970   -0.5130171482
H       -2.0754758073   -0.4133567420   -0.6876291664
H       -1.2132389128    1.9906285742   -0.1762295123
C       -1.1739511776    0.4961726141    1.1716945943
H       -1.2338134887    1.0107758955    2.0888968328
13   
From optimize.out: Frame 64 / 100, Energy=    -286.8595993239
C        1.6259478633    0.3855936598   -0.2221133474
C        1.1675431465   -0.9912618605   -0.3127271500
C       -0.1531985836   -1.2853211228   -0.3039293544
C       -1.1981652451   -0.2484459273   -0.0535578740
C       -0.5318916735    1.1400177756   -0.0588951910
N        0.8027789798    1.3641865530   -0.1770985520
H        2.6814653614    0.6305735998   -0.3134333254
H        1.8628414334   -1.8122352017   -0.4864958837
H       -0.5192148726   -2.2971466270   -0.4978673476
H       -2.0994727660   -0.4126415919   -0.6598824647
H       -1.2272743533    1.9791585298   -0.1150087477
C       -1.1951016277    0.4436157313    1.1882560432
H       -1.2162576626    1.1039064820    2.0127531947
13   
From optimize.out: Frame 63 / 100, Energy=    -286.8580632056
C        1.6181993991    0.3692359035   -0.2378285829
C        1.1753987245   -1.0035950252   -0.3269555545
C       -0.1326974260   -1.2900859926   -0.2978321251
C       -1.1977671437   -0.2448541023   -0.0536244990
C       -0.5546624965    1.1415178854   -0.0483212931
N        0.7900344085    1.3565893827   -0.1609697121
H        2.6714628674    0.6124143122   -0.3519207790
H        1.8775532126   -1.8182590136   -0.4947084159
H       -0.4814877359   -2.3056695222   -0.4831457943
H       -2.1006922289   -0.4188514416   -0.6401911449
H       -1.2379622177    1.9950940675   -0.0378067580
C       -1.1849298361    0.4118638732    1.2067781682
H       -1.2424495272    1.1945996731    1.9265264907
13   
From optimize.out: Frame 61 / 100, Energy=    -286.8552152894
C        1.6168173923    0.3569109414   -0.2474005868
C        1.1809118874   -1.0109865044   -0.3444804584
C       -0.1229920690   -1.2889417479   -0.3023368756
C       -1.1822680773   -0.2294705888   -0.0582626665
C       -0.5590758480    1.1482062303   -0.0574573949
N        0.7934218374    1.3591867109   -0.1415388530
H        2.6715054943    0.5912566755   -0.3718346647
H        1.8968420271   -1.8133287043   -0.5050890960
H       -0.4652308171   -2.3061035443   -0.4748164235
H       -2.0992524485   -0.4024401738   -0.6155266948
H       -1.2186134026    2.0189072807   -0.0080996195
C       -1.1969997516    0.3394701148    1.2712555642
H       -1.3150662245    1.2373333100    1.8555877696
13   
From optimize.out: Frame 60 / 100, Energy=    -286.8545660797
C        1.6203944404    0.3496274393   -0.2442817324
C        1.1811220748   -1.0129650478   -0.3575126420
C       -0.1242395950   -1.2815969801   -0.3214993416
C       -1.1563535294   -0.2053608891   -0.0596583516
C       -0.5483063219    1.1617038142   -0.0774672023
N        0.8071576660    1.3727370427   -0.1267610665
H        2.6804490771    0.5695575211   -0.3572044222
H        1.9102523305   -1.8018600098   -0.5197463594
H       -0.4716124632   -2.2968094115   -0.4809521556
H       -2.0917365632   -0.3612230581   -0.5929548645
H       -1.1902555109    2.0445835209   -0.0473840765
C       -1.2406005513    0.2424057225    1.3564200834
H       -1.3762710539    1.2192003357    1.8290021311
13   
From optimize.out: Frame 58 / 100, Energy=    -286.8536149670
C        1.6313792746    0.3580999780   -0.2605885838
C        1.1837710952   -1.0102676424   -0.3836314400
C       -0.1206151838   -1.2809461547   -0.3140402687
C       -1.1399627420   -0.2022480930   -0.0537026037
C       -0.5317702267    1.1489152096   -0.0625991009
N        0.8196661485    1.3693652920   -0.1175859536
H        2.6927445706    0.5816592021   -0.3597955877
H        1.9015869747   -1.8076560466   -0.5576132214
H       -0.4740107449   -2.3030544345   -0.4199713870
H       -2.0786178081   -0.3271547795   -0.5989331105
H       -1.1823268482    2.0225535964   -0.0175734048
C       -1.2592286024    0.2187251723    1.3851766132
H       -1.4426159076    1.2320087004    1.7608580490
13   
From optimize.out: Frame 55 / 100, Energy=    -286.8500158436
C        1.6450343570    0.3604911928   -0.2734621191
C        1.1839074593   -1.0029178402   -0.3766990289
C       -0.1314290423   -1.2674461637   -0.3065361075
C       -1.1274100513   -0.1812213771   -0.0601589898
C       -0.5007967563    1.1600538914   -0.0802793603
N        0.8407991676    1.3763046131   -0.1277072096
H        2.7059654466    0.5816762479   -0.3801939004
H        1.8977948857   -1.8057792321   -0.5399273969
H       -0.5017791952   -2.2859113471   -0.3900504944
H       -2.0527993636   -0.3096792331   -0.6345853762
H       -1.1371436770    2.0353096027   -0.0022586359
C       -1.2969380303    0.1683409664    1.3989152909
H       -1.5252052002    1.1707786789    1.7729433282
13   
From optimize.out: Frame 54 / 100, Energy=    -286.8463436781
C        1.6702214878    0.3646897544   -0.2793151675
C        1.1887562449   -0.9963732342   -0.3689636933
C       -0.1367411832   -1.2548291441   -0.3002483164
C       -1.1151702716   -0.1602564510   -0.0557649943
C       -0.4597686509    1.1718325709   -0.1052239083
N        0.8686280233    1.3866862310   -0.1498346966
H        2.7327623848    0.5813340062   -0.3791370850
H        1.8897639781   -1.8114861803   -0.5305730273
H       -0.5241968398   -2.2690047696   -0.3820869861
H       -2.0304028470   -0.2650729745   -0.6631456487
H       -1.0965929175    2.0431302576   -0.0160059721
C       -1.3659093525    0.1166684097    1.4111079364
H       -1.6213500565    1.0926815240    1.8191915593
13   
From optimize.out: Frame 53 / 100, Energy=    -286.8403905903
C        1.6899718294    0.3569825784   -0.2843430655
C        1.1943663585   -0.9961165009   -0.3679597892
C       -0.1373732365   -1.2454167929   -0.2974715689
C       -1.1015132582   -0.1356428830   -0.0471860668
C       -0.4243095295    1.1944123343   -0.1212487084
N        0.8942978277    1.3975422734   -0.1683222920
H        2.7552348161    0.5627248690   -0.3714309807
H        1.8926538620   -1.8131478175   -0.5320230155
H       -0.5369190051   -2.2547777374   -0.3785853390
H       -2.0052113493   -0.2243577584   -0.6784524537
H       -1.0545704981    2.0708738918   -0.0296515919
C       -1.4331272629    0.0736240225    1.4117414197
H       -1.7335005541    1.0132995208    1.8649334517
13   
From optimize.out: Frame 52 / 100, Energy=    -286.8393317678
C        1.7036448699    0.3387170808   -0.2900674448
C        1.2005310534   -1.0025312559   -0.3726084062
C       -0.1318425919   -1.2398789534   -0.2956551860
C       -1.0884178205   -0.1097380161   -0.0360668609
C       -0.3963466873    1.2261439437   -0.1253691613
N        0.9162364513    1.4075533478   -0.1789243187
H        2.7715765660    0.5285079520   -0.3689524983
H        1.9043565641   -1.8138081134   -0.5403998430
H       -0.5354495422   -2.2457435529   -0.3770306286
H       -1.9796918863   -0.1873111598   -0.6832496120
H       -1.0147824971    2.1153243247   -0.0339761843
C       -1.4915489990    0.0439838264    1.4033535564
H       -1.8582654804    0.9387805760    1.8989465878
13   
From optimize.out: Frame 49 / 100, Energy=    -286.8215736604
C        1.7191005265    0.3245207661   -0.3005266804
C        1.2064097144   -1.0071257918   -0.3798749689
C       -0.1248985382   -1.2328158399   -0.2857746003
C       -1.0763698799   -0.0870750256   -0.0236423101
C       -0.3689415230    1.2506732174   -0.1170073934
N        0.9398253246    1.4139317376   -0.1831442524
H        2.7881920161    0.5020069157   -0.3837913969
H        1.9074244557   -1.8201125797   -0.5502723132
H       -0.5333651964   -2.2360402855   -0.3596686565
H       -1.9495836729   -0.1481732165   -0.6948964613
H       -0.9770083648    2.1499309446   -0.0219660375
C       -1.5384282921    0.0214068529    1.3952028157
H       -1.9923565699    0.8688723047    1.9053622553
13   
From optimize.out: Frame 47 / 100, Energy=    -286.8156041533
C        1.7412985853    0.3250236569   -0.3129095859
C        1.2104591508   -1.0035753226   -0.3850940029
C       -0.1225636778   -1.2196788279   -0.2663172566
C       -1.0666032348   -0.0697040407   -0.0104648955
C       -0.3371494223    1.2580033603   -0.1055049319
N        0.9668813603    1.4174189554   -0.1865652425
H        2.8096115296    0.4999132564   -0.4100754436
H        1.8898170737   -1.8347282556   -0.5561169737
H       -0.5437037036   -2.2196780988   -0.3276411000
H       -1.9152712413   -0.1015461696   -0.7206323613
H       -0.9429628456    2.1572911649   -0.0062058946
C       -1.5719720818   -0.0042239337    1.3981389720
H       -2.1178414923    0.7954842550    1.8893887166
13   
From optimize.out: Frame 45 / 100, Energy=    -286.8109077449
C        1.7612150751    0.3235376193   -0.3263390887
C        1.2142500272   -1.0010116640   -0.3907795498
C       -0.1202131260   -1.2070117720   -0.2483773792
C       -1.0547130757   -0.0520609409    0.0043714067
C       -0.3065565441    1.2665915382   -0.0891754287
N        0.9937802080    1.4195815930   -0.1875461535
H        2.8286821113    0.4942095400   -0.4391838950
H        1.8758704653   -1.8465090807   -0.5630026484
H       -0.5528337741   -2.2036661570   -0.2978178722
H       -1.8832164345   -0.0600056358   -0.7351054484
H       -0.9073938563    2.1674904595    0.0169631382
C       -1.6045032904   -0.0219991081    1.3980001511