13   
From optimize.out: Frame 99 / 100, Energy=    -286.9243436242
C        1.6275208656    0.3388165904   -0.3025239701
C        1.1398763554   -0.9438103089   -0.4730325191
C       -0.2057285338   -1.4173079962   -0.2706573326
C       -1.2783643897   -0.6846921986    0.1422835657
C       -0.2472334035    1.6192674999    0.4206524854
N        1.0599169531    1.5054969870    0.0841605408
H        2.6905909706    0.4560962210   -0.5241435773
H        1.8676799238   -1.6816847037   -0.8031711638
H       -0.3721805494   -2.4736071504   -0.4726346800
H       -2.2289009435   -1.2046825637    0.2416831057
H       -0.5062034222    2.6402763480    0.7111212926
C       -1.2948735157    0.7191902312    0.4653743436
H       -2.2521003108    1.1266410446    0.7808879094
13   
From optimize.out: Frame 98 / 100, Energy=    -286.9243390424
C        1.6273623853    0.3387204945   -0.3039890605
C        1.1403904972   -0.9441916890   -0.4713330254
C       -0.2059262567   -1.4175493731   -0.2705568044
C       -1.2787028416   -0.6845048389    0.1406488905
C       -0.2472544387    1.6189402753    0.4208925689
N        1.0591545637    1.5058830136    0.0822374447
H        2.6898869365    0.4565761887   -0.5281448770
H        1.8699096869   -1.6814680987   -0.7981982728
H       -0.3723748732   -2.4737730303   -0.4723959780
H       -2.2303167001   -1.2026852411    0.2392585515
H       -0.5052720286    2.6391751948    0.7145448369
C       -1.2951163894    0.7190597584    0.4643388906
H       -2.2517405412    1.1258173452    0.7826968351
13   
From optimize.out: Frame 97 / 100, Energy=    -286.9243336256
C        1.6271084022    0.3390887399   -0.3056724297
C        1.1407384865   -0.9440857156   -0.4698988387
C       -0.2061354262   -1.4181178273   -0.2706091117
C       -1.2790078290   -0.6844751455    0.1388786839
C       -0.2470088460    1.6186821494    0.4208119498
N        1.0584178302    1.5060709982    0.0805829139
H        2.6891391613    0.4575582759   -0.5314037705
H        1.8713709357   -1.6813729058   -0.7932296599
H       -0.3727249664   -2.4743922303   -0.4721012998
H       -2.2315030559   -1.2009930573    0.2373177647
H       -0.5041114237    2.6379403876    0.7180040179
C       -1.2951929888    0.7189483633    0.4628652429
H       -2.2510902799    1.1251479675    0.7844545373
13   
From optimize.out: Frame 96 / 100, Energy=    -286.9243279196
C        1.6266642279    0.3399902417   -0.3072776380
C        1.1408239236   -0.9436020220   -0.4688255075
C       -0.2062117431   -1.4188852854   -0.2705505582
C       -1.2792211241   -0.6844151159    0.1371285034
C       -0.2466852153    1.6185360198    0.4206773244
N        1.0579833527    1.5062494201    0.0794042589
H        2.6885477085    0.4585466679   -0.5340322290
H        1.8720336972   -1.6816498191   -0.7888999761
H       -0.3730939168   -2.4752511931   -0.4716155772
H       -2.2323248015   -1.2000390315    0.2354587378
H       -0.5031881342    2.6366385966    0.7210284970
C       -1.2950463647    0.7190135738    0.4614469754
H       -2.2502816103    1.1248679471    0.7860571892
13   
From optimize.out: Frame 95 / 100, Energy=    -286.9243230030
C        1.6262143075    0.3409043991   -0.3084179771
C        1.1406562157   -0.9431320710   -0.4683756658
C       -0.2062761925   -1.4194289108   -0.2707525781
C       -1.2793691204   -0.6843887242    0.1360846954
C       -0.2463349047    1.6186823625    0.4203774012
N        1.0576385318    1.5064926886    0.0779851143
H        2.6881358744    0.4590942318   -0.5348598009
H        1.8721570174   -1.6823233483   -0.7855253238
H       -0.3733330282   -2.4758295929   -0.4719335200
H       -2.2325282951   -1.2000570376    0.2339280378
H       -0.5027700940    2.6360448849    0.7224821775
C       -1.2947367431    0.7190000326    0.4609363395
H       -2.2494535689    1.1249410854    0.7880711000
13   
From optimize.out: Frame 94 / 100, Energy=    -286.9243147723
C        1.6252143072    0.3423419544   -0.3100041428
C        1.1400811247   -0.9426663820   -0.4677469100
C       -0.2061052033   -1.4194831170   -0.2710434577
C       -1.2797771894   -0.6840597495    0.1347605074
C       -0.2461275696    1.6189474406    0.4200209844
N        1.0574828451    1.5073069914    0.0751546023
H        2.6876016911    0.4588141115   -0.5356863124
H        1.8720032877   -1.6840399911   -0.7800705595
H       -0.3731000783   -2.4757604645   -0.4730975551
H       -2.2323632322   -1.2015509096    0.2305553783
H       -0.5028788927    2.6354083808    0.7236202862
C       -1.2942427154    0.7194224867    0.4611637235
H       -2.2477883750    1.1253192482    0.7923734554
13   
From optimize.out: Frame 93 / 100, Energy=    -286.9243056910
C        1.6246401762    0.3431660612   -0.3114787120
C        1.1394534576   -0.9427748318   -0.4670372494
C       -0.2059866126   -1.4187484987   -0.2715463119
C       -1.2801237155   -0.6836372349    0.1339156712
C       -0.2458585983    1.6193652734    0.4201028695
N        1.0573951566    1.5081145104    0.0720387851
H        2.6873527418    0.4580753347   -0.5363023919
H        1.8716499739   -1.6858118098   -0.7750719354
H       -0.3721884692   -2.4750680410   -0.4748352173
H       -2.2319336733   -1.2030470558    0.2277959211
H       -0.5031868094    2.6353791396    0.7243502119
C       -1.2941114688    0.7194351164    0.4619880548
H       -2.2471021589    1.1255520363    0.7960803042
13   
From optimize.out: Frame 92 / 100, Energy=    -286.9242807188
C        1.6234389109    0.3433538689   -0.3146051680
C        1.1387636802   -0.9438598282   -0.4646710071
C       -0.2053470931   -1.4156549076   -0.2724012571
C       -1.2809758543   -0.6826512901    0.1324589871
C       -0.2462311745    1.6188196599    0.4202910301
N        1.0579111736    1.5096311139    0.0661533410
H        2.6866976011    0.4559385667   -0.5378142250
H        1.8708697918   -1.6884097949   -0.7662729868
H       -0.3696083197   -2.4721883238   -0.4779198314
H       -2.2309679390   -1.2052561758    0.2231026054
H       -0.5039658083    2.6345863849    0.7259194960
C       -1.2944931226    0.7208843017    0.4631379464
H       -2.2460918461    1.1248064244    0.8026210694
13   
From optimize.out: Frame 91 / 100, Energy=    -286.9242510302
C        1.6234248367    0.3431027622   -0.3171687343
C        1.1384938366   -0.9449982764   -0.4622067973
C       -0.2051798381   -1.4133698464   -0.2730444044
C       -1.2811077156   -0.6817808864    0.1311746411
C       -0.2465754058    1.6187230064    0.4211565739
N        1.0584204963    1.5104197065    0.0630130546
H        2.6870527873    0.4551456057   -0.5399106670
H        1.8694332888   -1.6904553194   -0.7610169596
H       -0.3673309980   -2.4704309523   -0.4796842779
H       -2.2305251529   -1.2049641120    0.2214894924
H       -0.5046721623    2.6345004080    0.7280661531
C       -1.2949489065    0.7210598756    0.4632183337
H       -2.2464850665    1.1230480286    0.8049135916
13   
From optimize.out: Frame 90 / 100, Energy=    -286.9242081202
C        1.6248684088    0.3436098836   -0.3176384643
C        1.1413645504   -0.9463039888   -0.4577937660
C       -0.2058575539   -1.4107894547   -0.2788152411
C       -1.2805399264   -0.6815233950    0.1320765326
C       -0.2477502352    1.6174954511    0.4172259088
N        1.0563785356    1.5119402249    0.0535149329
H        2.6882740333    0.4550488507   -0.5304997241
H        1.8699572698   -1.6956278583   -0.7557026943
H       -0.3681971238   -2.4639379731   -0.4917736275
H       -2.2336589292   -1.2016665796    0.2246798074
H       -0.5100975400    2.6327575769    0.7184033410
C       -1.2921661438    0.7189219720    0.4685689418
H       -2.2425753456    1.1200752903    0.8177540528
13   
From optimize.out: Frame 89 / 100, Energy=    -286.9241426512
C        1.6269229730    0.3468286477   -0.3205984175
C        1.1447267684   -0.9454559295   -0.4594987397
C       -0.2075528313   -1.4089071252   -0.2818629607
C       -1.2832758810   -0.6813116944    0.1274821733
C       -0.2495618164    1.6167651371    0.4182517409
N        1.0573524996    1.5137685508    0.0534203064
H        2.6905605594    0.4565544623   -0.5344359990
H        1.8676532843   -1.7043591175   -0.7545136928
H       -0.3632284380   -2.4662547094   -0.4829925975
H       -2.2336278592   -1.2017357391    0.2269396281
H       -0.5081851953    2.6319828820    0.7312120764
C       -1.2960068650    0.7208292593    0.4627494342
H       -2.2457771984    1.1212953760    0.8138470479
13   
From optimize.out: Frame 88 / 100, Energy=    -286.9240333394
C        1.6286110582    0.3476511826   -0.3171605403
C        1.1472781214   -0.9435551401   -0.4615470989
C       -0.2108879702   -1.4055685137   -0.2910935115
C       -1.2846936528   -0.6796497865    0.1257158583
C       -0.2515557862    1.6190330145    0.4127772406
N        1.0514942982    1.5152868499    0.0434678820
H        2.6951123460    0.4561943404   -0.5252858229
H        1.8668015105   -1.7135198715   -0.7455696794
H       -0.3643403231   -2.4620097674   -0.4912129202
H       -2.2328909615   -1.2012641043    0.2275319201
H       -0.5130570723    2.6328354118    0.7216446393
C       -1.2929195706    0.7172853854    0.4712979221
H       -2.2389519977    1.1172809988    0.8294341108
13   
From optimize.out: Frame 87 / 100, Energy=    -286.9238985104
C        1.6294254962    0.3466652651   -0.3135485507
C        1.1482877692   -0.9417021921   -0.4708149283
C       -0.2117960840   -1.4042270690   -0.3024408908
C       -1.2850581881   -0.6796538134    0.1232666161
C       -0.2514773291    1.6210540673    0.4078973557
N        1.0459903174    1.5192497169    0.0333280802
H        2.6988766980    0.4532059329   -0.5110593362
H        1.8706499129   -1.7166774089   -0.7405358668
H       -0.3681026209   -2.4611798924   -0.4957242955
H       -2.2300075082   -1.2121230253    0.2370585822
H       -0.5083599493    2.6349708040    0.7186314334
C       -1.2965590658    0.7179541224    0.4761872845
H       -2.2418694484    1.1224634925    0.8377545162
13   
From optimize.out: Frame 86 / 100, Energy=    -286.9237188127
C        1.6290439761    0.3409109103   -0.3082976247
C        1.1461834441   -0.9403796115   -0.4780251238
C       -0.2135992154   -1.4002215743   -0.3145815225
C       -1.2845219427   -0.6764874025    0.1223727070
C       -0.2522812321    1.6248171001    0.3990046172
N        1.0365326254    1.5208328562    0.0174636717
H        2.7026201106    0.4495558538   -0.4922739445
H        1.8718975777   -1.7181935312   -0.7260620196
H       -0.3731975460   -2.4573408401   -0.5110967440
H       -2.2218364086   -1.2161016439    0.2376093020
H       -0.5088489573    2.6403917084    0.7007728206
C       -1.2954955339    0.7157279978    0.4908756958
H       -2.2364968979    1.1164881769    0.8622381648
13   
From optimize.out: Frame 85 / 100, Energy=    -286.9234872438
C        1.6290833911    0.3326962613   -0.3050870442
C        1.1427444882   -0.9416501675   -0.4821920671
C       -0.2145730195   -1.3975943003   -0.3283411736
C       -1.2804820452   -0.6738489035    0.1236724013
C       -0.2524575238    1.6281815120    0.3888393856
N        1.0275127559    1.5220041580   -0.0023379195
H        2.7059096996    0.4470068233   -0.4638853313
H        1.8747190275   -1.7148970409   -0.7137544796
H       -0.3807970751   -2.4525659445   -0.5350012128
H       -2.2153440483   -1.2191610719    0.2462723521
H       -0.5083887091    2.6473003717    0.6781246414
C       -1.2949789909    0.7125795818    0.5054189226
H       -2.2329479507    1.1099487206    0.8882715251
13   
From optimize.out: Frame 84 / 100, Energy=    -286.9233262198
C        1.6292978056    0.3276524652   -0.3035703318
C        1.1402293600   -0.9428499695   -0.4833584084
C       -0.2163872834   -1.3962956748   -0.3357035095
C       -1.2760600161   -0.6722851124    0.1253372842
C       -0.2532109356    1.6286284034    0.3799218069
N        1.0223067905    1.5226589862   -0.0144984524
H        2.7065431523    0.4470875804   -0.4415781079
H        1.8746011575   -1.7124698308   -0.7080341989
H       -0.3867383466   -2.4497920871   -0.5512954227
H       -2.2103882133   -1.2156079273    0.2497863054
H       -0.5108381171    2.6509855952    0.6591508485
C       -1.2921253754    0.7109457901    0.5146472557
H       -2.2272299784    1.1013417815    0.9091949310
13   
From optimize.out: Frame 83 / 100, Energy=    -286.9228924765
C        1.6304237539    0.3196952496   -0.3019724109
C        1.1417955012   -0.9479166212   -0.4746857834
C       -0.2210270875   -1.3973916563   -0.3546516476
C       -1.2724696583   -0.6723052639    0.1378947643
C       -0.2551953918    1.6302668048    0.3586952937
N        1.0114998516    1.5189050313   -0.0467987126
H        2.7062777655    0.4550945067   -0.3842364978
H        1.8779074958   -1.7119353971   -0.6983616111
H       -0.3947126240   -2.4416300129   -0.6049323622
H       -2.2149533336   -1.2014170873    0.2654735953
H       -0.5199364000    2.6639564808    0.6095081840
C       -1.2845831764    0.6993184105    0.5332464093
H       -2.2050266965    1.0853595551    0.9608207791
13   
From optimize.out: Frame 82 / 100, Energy=    -286.9225294305
C        1.6298111706    0.3156950736   -0.2999236002
C        1.1422147457   -0.9481790901   -0.4703856309
C       -0.2260405521   -1.3984478238   -0.3618562594
C       -1.2674214129   -0.6733796459    0.1441123756
C       -0.2542843470    1.6328665153    0.3464907269
N        1.0065504326    1.5194954381   -0.0595083698
H        2.7064581408    0.4575481270   -0.3563381841
H        1.8773000411   -1.7125825099   -0.6957890671
H       -0.3999044261   -2.4389242096   -0.6318708266
H       -2.2168923839   -1.1943984589    0.2749407421
H       -0.5258175430    2.6730325187    0.5861173821
C       -1.2762460839    0.6953373398    0.5404060590
H       -2.1957277819    1.0719367257    0.9836046524
13   
From optimize.out: Frame 81 / 100, Energy=    -286.9221863091
C        1.6312298358    0.3131912616   -0.2920988673
C        1.1471848802   -0.9501949456   -0.4607024157
C       -0.2273773483   -1.3996150855   -0.3666912520
C       -1.2644496719   -0.6795761875    0.1581022917
C       -0.2484042903    1.6382617705    0.3410134739
N        1.0002915274    1.5209756216   -0.0777754800
H        2.7092043586    0.4563498273   -0.3331105012
H        1.8821278414   -1.7172506827   -0.6917224695
H       -0.4075787760   -2.4266773748   -0.6711916803
H       -2.2222052833   -1.1783433258    0.2710015059
H       -0.5442022643    2.6725654801    0.5395514364
C       -1.2683689415    0.6875476879    0.5637375757
H       -2.1874518680    1.0627659528    1.0198863823
13   
From optimize.out: Frame 80 / 100, Energy=    -286.9216447569
C        1.6300281375    0.3156099486   -0.2813256362
C        1.1514001073   -0.9521752656   -0.4535193771
C       -0.2253670584   -1.4039412970   -0.3685815899
C       -1.2644200068   -0.6798595369    0.1679374602
C       -0.2503366410    1.6450989621    0.3256882902
N        0.9947644309    1.5291649175   -0.0878833194
H        2.7136810028    0.4515086054   -0.3161577897
H        1.8852252886   -1.7280584648   -0.6794839616
H       -0.4163195551   -2.4211820032   -0.7137720046
H       -2.2322590723   -1.1729120523    0.2590050908
H       -0.5587743988    2.6924327610    0.4946995629
C       -1.2584981983    0.6771813983    0.5832894646
H       -2.1691240363    1.0471320269    1.0701038099
13   
From optimize.out: Frame 79 / 100, Energy=    -286.9207069882
C        1.6298991556    0.3179147890   -0.2617620267
C        1.1549257367   -0.9547751412   -0.4382360812
C       -0.2217021978   -1.4003155805   -0.3719977910
C       -1.2598969528   -0.6758231945    0.1781826424
C       -0.2544061646    1.6421463332    0.3085155280
N        0.9832463242    1.5333405570   -0.1039124904
H        2.7151839755    0.4461155061   -0.2936637226
H        1.8908710239   -1.7332185482   -0.6662766997
H       -0.4352117984   -2.3955808805   -0.7635365444
H       -2.2425945135   -1.1486926449    0.2340738946
H       -0.5954859423    2.6753557317    0.4105694140
C       -1.2319109899    0.6640415690    0.6284252721
H       -2.1329176566    1.0294915037    1.1396186048
13   
From optimize.out: Frame 78 / 100, Energy=    -286.9184618277
C        1.6297810392    0.3149030803   -0.2456513161
C        1.1544217990   -0.9527314197   -0.4268822238
C       -0.2146606240   -1.4047274896   -0.3728703069
C       -1.2503759936   -0.6861593898    0.1911628424
C       -0.2543424708    1.6537830351    0.3076686102
N        0.9732817057    1.5555871710   -0.1212707043
H        2.7111151844    0.4259186269   -0.2792113870
H        1.8921532508   -1.7369208990   -0.6392856933
H       -0.4616681406   -2.3691242795   -0.8202956381
H       -2.2448251586   -1.1505486617    0.1987516992
H       -0.6245450653    2.6888244416    0.3304159359
C       -1.2180671535    0.6440784143    0.6719365342
H       -2.0922683726    1.0171173701    1.2055316476
13   
From optimize.out: Frame 77 / 100, Energy=    -286.9159697038
C        1.6300288942    0.3143057829   -0.2312869809
C        1.1509555604   -0.9538092164   -0.4152634293
C       -0.2089764819   -1.4001372804   -0.3757073891
C       -1.2429934387   -0.6806468207    0.1967548915
C       -0.2670483210    1.6414007182    0.2956371918
N        0.9623638912    1.5602216669   -0.1392954635
H        2.7054146382    0.4193415346   -0.2580652573
H        1.8923591036   -1.7332396500   -0.6187328492
H       -0.4830787705   -2.3412626644   -0.8591024844
H       -2.2437193634   -1.1336551693    0.1621599727
H       -0.6602759506    2.6658809340    0.2496435287
C       -1.1907486212    0.6300864239    0.7215293925
H       -2.0442811403    1.0115137406    1.2717288766
13   
From optimize.out: Frame 76 / 100, Energy=    -286.9125224500
C        1.6305137217    0.3059452239   -0.2214939160
C        1.1479173356   -0.9528589179   -0.4125750359
C       -0.2115870947   -1.3892709653   -0.3780929441
C       -1.2399152908   -0.6894272298    0.2218573664
C       -0.2642605987    1.6343618091    0.2849851500
N        0.9495428534    1.5536560060   -0.1811545392
H        2.7068727530    0.4008062446   -0.2304837557
H        1.9043982062   -1.7187119730   -0.5968587298
H       -0.5074205597   -2.2991788209   -0.8957218861
H       -2.2397818669   -1.1551588817    0.1188784750
H       -0.6949443458    2.6642691216    0.1929015024
C       -1.1682420913    0.6226268353    0.7743009929
H       -2.0130930219    1.0229415479    1.3234573202
13   
From optimize.out: Frame 75 / 100, Energy=    -286.9095220065
C        1.6351878398    0.3010839587   -0.2184775291
C        1.1498311427   -0.9561060788   -0.4075407434
C       -0.2145352342   -1.3721668240   -0.3683147281
C       -1.2397039344   -0.6709839251    0.2302736325
C       -0.2664949164    1.6086884848    0.2732850706
N        0.9434091281    1.5303771661   -0.2100513280
H        2.7150909880    0.3978772660   -0.2336716637
H        1.9117111544   -1.7151964885   -0.5784870448
H       -0.5092200434   -2.2736056358   -0.8952706794
H       -2.2204603440   -1.1150597074    0.0431004935
H       -0.7347531123    2.6280218119    0.1437103949
C       -1.1594736477    0.6094248864    0.8361052947
H       -2.0105890208    1.0276450859    1.3853388304
13   
From optimize.out: Frame 74 / 100, Energy=    -286.9059830214
C        1.6348473170    0.2960393548   -0.2053405070
C        1.1573966433   -0.9622852198   -0.3909309391
C       -0.2223576352   -1.3467998431   -0.3713415035
C       -1.2515894803   -0.6600515335    0.2533355678
C       -0.2674492327    1.5966018889    0.2529111610
N        0.9264252856    1.4928123889   -0.2482907945
H        2.7260575652    0.3985794264   -0.2222025041
H        1.9276775342   -1.7112499760   -0.5651635853
H       -0.5097956734   -2.2348283943   -0.9248511475
H       -2.2295344192   -1.0914927589    0.0071236128
H       -0.7857068967    2.5839718411    0.0929061700
C       -1.1192105644    0.6167241238    0.8917130520
H       -1.9867604432    1.0219787018    1.4301314174
13   
From optimize.out: Frame 73 / 100, Energy=    -286.9012503050
C        1.6393125935    0.2950913942   -0.1987423185
C        1.1681207514   -0.9717297085   -0.3687538427
C       -0.2299875495   -1.3227422076   -0.3645129001
C       -1.2549918790   -0.6394494250    0.2573711785
C       -0.2609626691    1.5845025712    0.2468635295
N        0.9189579588    1.4570610387   -0.2697227783
H        2.7397658214    0.4067050751   -0.2434675395
H        1.9403303211   -1.7173505522   -0.5604267822
H       -0.4974871810   -2.2085655717   -0.9207848583
H       -2.2328249089   -1.0245289142   -0.0440526790
H       -0.8340821461    2.5200166574    0.0552798651
C       -1.1031493879    0.6103261037    0.9446843197
H       -1.9930017248    1.0106635389    1.4662648056
13   
From optimize.out: Frame 72 / 100, Energy=    -286.8963079121
C        1.6430512649    0.2945160724   -0.1858336521
C        1.1788444382   -0.9822188805   -0.3298363907
C       -0.2314537561   -1.3009305925   -0.3640257362
C       -1.2595435059   -0.6229310031    0.2557449440
C       -0.2567972039    1.5805203393    0.2506989814
N        0.9079872267    1.4313132574   -0.2789471133
H        2.7372984576    0.4174279686   -0.2752766570
H        1.9502939965   -1.7263496827   -0.5505693758
H       -0.4800562788   -2.1830230654   -0.9410633966
H       -2.2522109814   -0.9514718014   -0.0643820759
H       -0.8779374524    2.4483037257    0.0089206151
C       -1.0782009512    0.6042736319    0.9883805360
H       -1.9812752541    0.9905700305    1.4861893211
13   
From optimize.out: Frame 71 / 100, Energy=    -286.8921548253
C        1.6455782060    0.2954032358   -0.1794734265
C        1.1822397652   -0.9872073208   -0.2937529364
C       -0.2271566241   -1.2840161672   -0.3707763360
C       -1.2536613688   -0.5971421668    0.2349394079
C       -0.2653086823    1.5659733716    0.2504861315
N        0.8963958237    1.4189755277   -0.2735563514
H        2.7248834509    0.4320775716   -0.3010734544
H        1.9532045956   -1.7331224266   -0.5411928080
H       -0.4743005929   -2.1549074372   -0.9351796295
H       -2.2725768357   -0.8753370529   -0.0858165244
H       -0.9113963280    2.3795660403   -0.0363791884
C       -1.0531364244    0.5745240273    1.0224722922
H       -1.9447649851    0.9652127972    1.5093028234
13   
From optimize.out: Frame 70 / 100, Energy=    -286.8883446959
C        1.6556943363    0.2916451534   -0.1701688433
C        1.1802198693   -0.9959793267   -0.2533526300
C       -0.2224239910   -1.2808356439   -0.3648151184
C       -1.2380572676   -0.5841988366    0.2228826548
C       -0.2643611746    1.5621242633    0.2810985102
N        0.8939869545    1.4202739739   -0.2706115360
H        2.7167487535    0.4312794030   -0.3391228186
H        1.9500481349   -1.7379510956   -0.5300260517
H       -0.4562823592   -2.1541552930   -0.9751931973
H       -2.2740042740   -0.8054213466   -0.0844124668
H       -0.9431074482    2.3318380083   -0.0851097755
C       -1.0528163823    0.5670851746    1.0553676650
H       -1.9456451516    0.9542955657    1.5134636075
13   
From optimize.out: Frame 69 / 100, Energy=    -286.8844043911
C        1.6548292546    0.2970548206   -0.1610724244
C        1.1754893015   -0.9993565523   -0.2357335775
C       -0.2152454469   -1.2771589533   -0.3637490225
C       -1.2245558780   -0.5455732124    0.1949861819
C       -0.2913611514    1.5302115051    0.2595475864
N        0.8882063341    1.4213990706   -0.2575566234
H        2.7078759588    0.4402542717   -0.3354913138
H        1.9453895224   -1.7409578297   -0.5256346477
H       -0.4612399330   -2.1571786751   -0.9729310104
H       -2.2736095091   -0.7430487275   -0.1143967323
H       -0.9709880081    2.2901419527   -0.1431892421
C       -1.0457716822    0.5606136005    1.0771330428
H       -1.8890187627    0.9235987290    1.5780877832
13   
From optimize.out: Frame 68 / 100, Energy=    -286.8783697264
C        1.6500885228    0.2893400398   -0.1587143193
C        1.1659829463   -0.9941595270   -0.2229040097
C       -0.2050962784   -1.2852208116   -0.3768019662
C       -1.1925785724   -0.5088916103    0.1703385874
C       -0.3218343815    1.5046971889    0.2679545480
N        0.8800357751    1.4206703190   -0.2366218543
H        2.7080068329    0.4374673751   -0.3285908603
H        1.9233589787   -1.7328555691   -0.5211428194
H       -0.4677819926   -2.1492168885   -0.9936398747
H       -2.2549715600   -0.6758619273   -0.0967444144
H       -1.0023865666    2.2511290469   -0.2138343120
C       -0.9959254594    0.5337090802    1.1221350305
H       -1.8868982447    0.9091932840    1.5885662645
13   
From optimize.out: Frame 67 / 100, Energy=    -286.8727449668
C        1.6474628386    0.2970403579   -0.1542039609
C        1.1625163096   -0.9950655525   -0.2265055075
C       -0.1953097017   -1.2898953913   -0.3728549766
C       -1.1777789562   -0.4658310010    0.1427475368
C       -0.3556242049    1.4629968810    0.2402279328
N        0.8804525856    1.4192733524   -0.2191871881
H        2.7120227543    0.4478627094   -0.3106396163
H        1.9119222855   -1.7331235895   -0.5241761097
H       -0.4799846417   -2.1632695486   -0.9789283663
H       -2.2329925442   -0.6180010699   -0.1316549087
H       -1.0230882305    2.2124756723   -0.2724704113
C       -0.9866864648    0.5331052736    1.1480720634
H       -1.8629120298    0.8924319062    1.6595735123
13   
From optimize.out: Frame 66 / 100, Energy=    -286.8670421489
C        1.6442821351    0.3088747696   -0.1549894340
C        1.1662511579   -0.9950567581   -0.2395839297
C       -0.1836492151   -1.2964416663   -0.3736912766
C       -1.1730998259   -0.4259967415    0.1154092715
C       -0.3897960203    1.4166051003    0.2037065052
N        0.8778851004    1.4114644615   -0.2020503015
H        2.7163207274    0.4682823752   -0.2851510662
H        1.9031183024   -1.7326641392   -0.5303209749
H       -0.4990962402   -2.1734471912   -0.9450624547
H       -2.2152516688   -0.5709603975   -0.1696600462
H       -1.0373229231    2.1650429222   -0.3193700500
C       -0.9630375245    0.5357231143    1.1736739836
H       -1.8466040052    0.8885741508    1.7270897733
13   
From optimize.out: Frame 65 / 100, Energy=    -286.8637602594
C        1.6432383773    0.3212659439   -0.1602317036
C        1.1674007488   -0.9967621331   -0.2554402672
C       -0.1794866379   -1.2984455626   -0.3650978414
C       -1.1743671028   -0.3940237745    0.0854019365
C       -0.4143214630    1.3809418753    0.1709307552
N        0.8788323980    1.4073758505   -0.1875255613
H        2.7178613678    0.4875199300   -0.2743315891
H        1.8931369898   -1.7385284960   -0.5330606451
H       -0.5118036807   -2.1874049135   -0.8844975984
H       -2.1900333795   -0.5301029824   -0.2370442393
H       -1.0476679195    2.1346196982   -0.3384928061
C       -0.9715750875    0.5392786466    1.1800534465
H       -1.8112146108    0.8742659175    1.7993361135
13   
From optimize.out: Frame 64 / 100, Energy=    -286.8595993239
C        1.6485624308    0.3428387826   -0.1653891010
C        1.1760553097   -1.0033901975   -0.2578366096
C       -0.1747533818   -1.2996535315   -0.3446251454
C       -1.1708232431   -0.3619027181    0.0536206628
C       -0.4370272911    1.3399992970    0.1110724390
N        0.8863862975    1.4075488096   -0.1843768581
H        2.7263339710    0.5118675949   -0.2806212137
H        1.9009213373   -1.7426116476   -0.5227302710
H       -0.5289047931   -2.2126927302   -0.8452720097
H       -2.1892426722   -0.5144750442   -0.3037146132
H       -1.0449587292    2.0947261284   -0.3312437623
C       -0.9904791826    0.5391614328    1.1935303599
H       -1.8020700530    0.8985838239    1.8775861223
13   
From optimize.out: Frame 63 / 100, Energy=    -286.8580632056
C        1.6407651549    0.3501481994   -0.1593425623
C        1.1719287972   -1.0045384098   -0.2517957679
C       -0.1763340395   -1.2913772691   -0.3427210828
C       -1.1773446705   -0.3370166074    0.0319734478
C       -0.4605000454    1.3227849547    0.0724718642
N        0.8818379439    1.4107879795   -0.1822726348
H        2.7189825183    0.5216062209   -0.2659836305
H        1.9029079916   -1.7481782934   -0.5164072648
H       -0.5345065084   -2.2160915523   -0.8195327507
H       -2.1997595039   -0.4965089354   -0.3523584706
H       -1.0551969040    2.0868597556   -0.3530292795
C       -1.0062761541    0.5442456143    1.1851126030
H       -1.7065045801    0.8572783430    1.9538855288
13   
From optimize.out: Frame 62 / 100, Energy=    -286.8564366369
C        1.6402579696    0.3582177721   -0.1507441511
C        1.1676825880   -1.0027692793   -0.2572123443
C       -0.1749628099   -1.2757989272   -0.3336667915
C       -1.1876957216   -0.3098570671    0.0168440056
C       -0.4724481292    1.3016570537    0.0504675994
N        0.8908998976    1.4086331467   -0.1671462256
H        2.7170322223    0.5299354566   -0.2528307658
H        1.8993491770   -1.7573325249   -0.5319318349
H       -0.5388529617   -2.2090824664   -0.7741045225
H       -2.1997399391   -0.4617569860   -0.4023831692
H       -1.0511430129    2.0810100500   -0.3922396699
C       -1.0171398884    0.5506221825    1.1686026074
H       -1.6732393917    0.7865215891    2.0263452623
13   
From optimize.out: Frame 61 / 100, Energy=    -286.8552152894
C        1.6323573111    0.3592963058   -0.1451263214
C        1.1597046159   -1.0050608792   -0.2600084891
C       -0.1775306498   -1.2697456073   -0.3292543373
C       -1.1939301060   -0.2883152245   -0.0007425851
C       -0.4906312111    1.2923250601    0.0365552754
N        0.8881459723    1.4119691622   -0.1582430933
H        2.7079738621    0.5302551320   -0.2413778502
H        1.8917101601   -1.7656856375   -0.5335874498
H       -0.5352925585   -2.2165864783   -0.7406322411
H       -2.1855668117   -0.4283442462   -0.4552112120
H       -1.0675738681    2.0874633740   -0.4196533787
C       -1.0459145190    0.5630231525    1.1543111380