13   
From optimize.out: Frame 2 / 3, Energy=    -286.9243477216
C        1.6276639315    0.3392271855   -0.3027601267
C        1.1393237710   -0.9428352096   -0.4738965665
C       -0.2056741721   -1.4171572286   -0.2711846395
C       -1.2783094952   -0.6848475977    0.1421864018
C       -0.2471559984    1.6191039934    0.4195377458
N        1.0602970564    1.5047078549    0.0861278080
H        2.6912210000    0.4564990081   -0.5222194936
H        1.8652133641   -1.6818652093   -0.8043903605
H       -0.3710696079   -2.4737481844   -0.4722864989
H       -2.2282300129   -1.2058790824    0.2435343208
H       -0.5060666194    2.6396143676    0.7102013760
C       -1.2952218083    0.7195564842    0.4640634259
H       -2.2519914088    1.1276236189    0.7810866077
13   
From optimize.out: Frame 1 / 3, Energy=    -286.9243436157
C        1.6275208655    0.3388165905   -0.3025239704
C        1.1398763555   -0.9438103089   -0.4730325191
C       -0.2057285337   -1.4173079963   -0.2706573323
C       -1.2783643896   -0.6846921988    0.1422835660
C       -0.2472334036    1.6192674999    0.4206524851
N        1.0599169529    1.5054969871    0.0841605403
H        2.6905909705    0.4560962212   -0.5241435778
H        1.8676799239   -1.6816847037   -0.8031711637
H       -0.3721805492   -2.4736071506   -0.4726346794
H       -2.2289009433   -1.2046825640    0.2416831063
H       -0.5062034224    2.6402763480    0.7111212921
C       -1.2948735157    0.7191902311    0.4653743436
H       -2.2521003108    1.1266410444    0.7808879095
13   
From optimize.out: Frame 99 / 100, Energy=    -286.9243436242
C        1.6275208655    0.3388165905   -0.3025239704
C        1.1398763555   -0.9438103089   -0.4730325191
C       -0.2057285337   -1.4173079963   -0.2706573323
C       -1.2783643896   -0.6846921988    0.1422835660
C       -0.2472334036    1.6192674999    0.4206524851
N        1.0599169529    1.5054969871    0.0841605403
H        2.6905909705    0.4560962212   -0.5241435778
H        1.8676799239   -1.6816847037   -0.8031711637
H       -0.3721805492   -2.4736071506   -0.4726346794
H       -2.2289009433   -1.2046825640    0.2416831063
H       -0.5062034224    2.6402763480    0.7111212921
C       -1.2948735157    0.7191902311    0.4653743436
H       -2.2521003108    1.1266410444    0.7808879095
13   
From optimize.out: Frame 98 / 100, Energy=    -286.9243390424
C        1.6290493373    0.3471207348   -0.3152181840
C        1.1478195763   -0.9425659239   -0.4664983092
C       -0.2113744278   -1.4048505738   -0.2971654431
C       -1.2848906130   -0.6796496895    0.1243979017
C       -0.2515135573    1.6201150122    0.4101638978
N        1.0485517652    1.5174054013    0.0380482404
H        2.6971303851    0.4545905451   -0.5176577502
H        1.8688622037   -1.7152128665   -0.7428640443
H       -0.3663544984   -2.4615653792   -0.4936276726
H       -2.2313516574   -1.2070702082    0.2326161136
H       -0.5105438126    2.6339791883    0.7200279454
C       -1.2948685430    0.7176456408    0.4739056692
H       -2.2405161581    1.1200581185    0.8338716352
13   
From optimize.out: Frame 96 / 100, Energy=    -286.9243279196
C        1.6293035118    0.3276307925   -0.3035539070
C        1.1402363250   -0.9428660067   -0.4833215744
C       -0.2163959689   -1.3963003252   -0.3357373438
C       -1.2760539706   -0.6722828295    0.1253580941
C       -0.2532171006    1.6286350989    0.3798604237
N        1.0222846381    1.5226494235   -0.0145716608
H        2.7065471973    0.4470991185   -0.4414288094
H        1.8746132392   -1.7124759005   -0.7079826245
H       -0.3867535697   -2.4497775930   -0.5514000845
H       -2.2104020249   -1.2155721793    0.2498092736
H       -0.5108615500    2.6510197562    0.6590165325
C       -1.2921126872    0.7109251952    0.5146711878
H       -2.2271880396    1.1013154496    0.9092804926
13   
From optimize.out: Frame 95 / 100, Energy=    -286.9243230030
C        1.6298644613    0.3160189962   -0.3000785686
C        1.1421850663   -0.9481633284   -0.4707150294
C       -0.2256263430   -1.3983655480   -0.3612517577
C       -1.2678365450   -0.6732897466    0.1435980530
C       -0.2543622960    1.6326576910    0.3474686289
N        1.0069567202    1.5194462339   -0.0584748825
H        2.7064470862    0.4573424830   -0.3586015397
H        1.8773566620   -1.7125380105   -0.6959603758
H       -0.3994730170   -2.4391532854   -0.6296390883
H       -2.2167364950   -1.1949698890    0.2741567094
H       -0.5253413553    2.6722960175    0.5879966191
C       -1.2769344983    0.6956700634    0.5397982437
H       -2.1964994463    1.0730483230    0.9817029879
13   
From optimize.out: Frame 94 / 100, Energy=    -286.9243147723
C        1.6301851125    0.3152967442   -0.2826872102
C        1.1508676836   -0.9519295867   -0.4544060560
C       -0.2256185854   -1.4033950299   -0.3683183213
C       -1.2644255640   -0.6798210449    0.1666765844
C       -0.2500946797    1.6442308777    0.3276146859
N        0.9954710427    1.5281174276   -0.0866058473
H        2.7131127501    0.4521230305   -0.3182977172
H        1.8848389533   -1.7266883633   -0.6809938178
H       -0.4151924445   -2.4218968368   -0.7082937185
H       -2.2309770501   -1.1736026472    0.2605303981
H       -0.5569199648    2.6899024913    0.5003768591
C       -1.2597672167    0.6785155933    0.5807632181
H       -2.1714800371    1.0491473442    1.0636409428
13   
From optimize.out: Frame 93 / 100, Energy=    -286.9243056910
C        1.6298942335    0.3176991923   -0.2606088379
C        1.1548984008   -0.9546391553   -0.4373962726
C       -0.2211977915   -1.4006355334   -0.3720305384
C       -1.2592272673   -0.6765499258    0.1790942924
C       -0.2544090665    1.6429734105    0.3084143132
N        0.9825428132    1.5349082512   -0.1051566605
H        2.7149007882    0.4446893645   -0.2926139857
H        1.8909743422   -1.7334916578   -0.6643054474
H       -0.4370614944   -2.3937339147   -0.7674899953
H       -2.2427533654   -1.1488219271    0.2315760251
H       -0.5975452872    2.6763136119    0.4048479258
C       -1.2309455855    0.6626465189    0.6314592024
H       -2.1300707201    1.0286417647    1.1442099789
13   
From optimize.out: Frame 91 / 100, Energy=    -286.9242510302
C        1.6298396997    0.3147683507   -0.2424521878
C        1.1536662652   -0.9529792431   -0.4242614587
C       -0.2133922458   -1.4037242044   -0.3734596798
C       -1.2487451411   -0.6849380585    0.1923956909
C       -0.2571630748    1.6510531097    0.3049531424
N        0.9708652208    1.5566111017   -0.1252847258
H        2.7098586622    0.4244635801   -0.2744946131
H        1.8922161619   -1.7361204726   -0.6346511337
H       -0.4663801506   -2.3629889148   -0.8288158657
H       -2.2445810656   -1.1468133228    0.1906499509
H       -0.6324607842    2.6837580491    0.3124598947
C       -1.2120408248    0.6410011474    0.6828610485
H       -2.0816827230    1.0159088775    1.2200999372
13   
From optimize.out: Frame 90 / 100, Energy=    -286.9242081202
C        1.6302226793    0.3110289350   -0.2274235376
C        1.1497792205   -0.9534470493   -0.4141472494
C       -0.2099840402   -1.3958946698   -0.3765942666
C       -1.2417888574   -0.6840854095    0.2065879960
C       -0.2659705362    1.6386523542    0.2913951964
N        0.9573363410    1.5576476463   -0.1557340788
H        2.7059897754    0.4120821923   -0.2472104290
H        1.8970988710   -1.7275612004   -0.6100523318
H       -0.4925854840   -2.3248079395   -0.8733749659
H       -2.2421744552   -1.1420863075    0.1451916527
H       -0.6738783002    2.6652547580    0.2272934171
C       -1.1819499251    0.6271859099    0.7421561605
H       -2.0320952891    1.0160307802    1.2919124364
13   
From optimize.out: Frame 89 / 100, Energy=    -286.9241426512
C        1.6331990864    0.3031565092   -0.2197319612
C        1.1490323330   -0.9547335295   -0.4096108699
C       -0.2132593401   -1.3794787801   -0.3724262567
C       -1.2397963294   -0.6788453103    0.2266815312
C       -0.2655597577    1.6196471748    0.2781915177
N        0.9460208782    1.5403000465   -0.1977743220
H        2.7115907580    0.3991317902   -0.2322546937
H        1.9086196456   -1.7167112169   -0.5861877052
H       -0.5084138085   -2.2845549251   -0.8953713694
H       -2.2286945403   -1.1321683715    0.0754029983
H       -0.7177987859    2.6434813656    0.1645432283
C       -1.1632390491    0.6150848901    0.8096900790
H       -2.0117010903    1.0256903569    1.3588478237
13   
From optimize.out: Frame 88 / 100, Energy=    -286.9240333394
C        1.6349455735    0.2974315529   -0.2089276149
C        1.1553300113   -0.9605937228   -0.3954235720
C       -0.2201786906   -1.3538165775   -0.3704413973
C       -1.2483146947   -0.6630624369    0.2469720581
C       -0.2672061982    1.5999467427    0.2584355936
N        0.9311050306    1.5031656398   -0.2377967799
H        2.7230374990    0.3983941556   -0.2253007998
H        1.9233053404   -1.7123542708   -0.5686855891
H       -0.5095912359   -2.2455745499   -0.9165899572
H       -2.2270244320   -1.0980074336    0.0170332586
H       -0.7716785355    2.5961191316    0.1067530227
C       -1.1303458524    0.6147496382    0.8763100124
H       -1.9933838153    1.0236021306    1.4176617646
13   
From optimize.out: Frame 86 / 100, Energy=    -286.9237188127
C        1.6387584943    0.2952113265   -0.1995283060
C        1.1667991599   -0.9705600123   -0.3714339784
C       -0.2290102565   -1.3257744943   -0.3653005496
C       -1.2545700702   -0.6420222323    0.2568593812
C       -0.2617948691    1.5860283037    0.2475220124
N        0.9198901958    1.4615261157   -0.2670919810
H        2.7380558476    0.4056958578   -0.2407359488
H        1.9387796270   -1.7166039748   -0.5608564547
H       -0.4989786596   -2.2119070944   -0.9211863136
H       -2.2324040163   -1.0329263518   -0.0376681265
H       -0.8280510605    2.5280154769    0.0598169513
C       -1.1051957136    0.6111708875    0.9379845462
H       -1.9922786789    1.0121461918    1.4616187675
13   
From optimize.out: Frame 85 / 100, Energy=    -286.9234872438
C        1.6431203730    0.2945404354   -0.1856279198
C        1.1789500738   -0.9823556642   -0.3288190540
C       -0.2313215325   -1.3005202133   -0.3641356827
C       -1.2593980704   -0.6222677305    0.2552020929
C       -0.2570349370    1.5801607172    0.2505982743
N        0.9076910610    1.4309896041   -0.2788545477
H        2.7369884426    0.4178066683   -0.2758591406
H        1.9504006060   -1.7265385231   -0.5501655493
H       -0.4798596373   -2.1823598657   -0.9408117583
H       -2.2527217883   -0.9495476608   -0.0649590678
H       -0.8788095928    2.4465428147    0.0075991360
C       -1.0776010866    0.6035601463    0.9891791883
H       -1.9804039115    0.9899892717    1.4866540288
13   
From optimize.out: Frame 84 / 100, Energy=    -286.9233262198
C        1.6476399454    0.2946405861   -0.1775338443
C        1.1818458845   -0.9889975269   -0.2854459524
C       -0.2261725811   -1.2833888465   -0.3695103803
C       -1.2504937878   -0.5945068273    0.2324697851
C       -0.2651352891    1.5652016117    0.2566242702
N        0.8959076280    1.4192317474   -0.2729928731
H        2.7232384521    0.4319169540   -0.3087282485
H        1.9525937320   -1.7341184545   -0.5387644506
H       -0.4705883122   -2.1548032653   -0.9432283001
H       -2.2728585699   -0.8611395677   -0.0855747789
H       -0.9178567482    2.3698538861   -0.0464371334
C       -1.0531136276    0.5730551234    1.0290931903
H       -1.9450067262    0.9630545795    1.5100287160
13   
From optimize.out: Frame 83 / 100, Energy=    -286.9228924765
C        1.6553018311    0.2941358271   -0.1659236546
C        1.1780573705   -0.9975392538   -0.2451478131
C       -0.2190979369   -1.2791601817   -0.3642774931
C       -1.2318484752   -0.5664147314    0.2100132615
C       -0.2768089441    1.5474444186    0.2710980698
N        0.8913306272    1.4207844193   -0.2646263027
H        2.7126767078    0.4354086514   -0.3373543269
H        1.9479343044   -1.7393493096   -0.5278448360
H       -0.4585127998   -2.1555920150   -0.9740766783
H       -2.2738147275   -0.7767241476   -0.0982782252
H       -0.9559477785    2.3126345878   -0.1119881457
C       -1.0496216429    0.5641480349    1.0653173143
H       -1.9196485362    0.9402236999    1.5430888299
13   
From optimize.out: Frame 81 / 100, Energy=    -286.9221863091
C        1.6519389854    0.2923414496   -0.1595668875
C        1.1696955912   -0.9961856893   -0.2278013254
C       -0.2090222433   -1.2821001733   -0.3716828673
C       -1.2050246356   -0.5231591204    0.1798920471
C       -0.3099979179    1.5146320520    0.2646095955
N        0.8832199788    1.4209475967   -0.2447814794
H        2.7079695001    0.4385491064   -0.3311674654
H        1.9319603548   -1.7360206196   -0.5227319617
H       -0.4651829015   -2.1523551588   -0.9855197607
H       -2.2622145242   -0.7020120193   -0.1036882583
H       -0.9901722498    2.2662945292   -0.1864877328
C       -1.0153698779    0.5442153187    1.1045597912
H       -1.8878000600    0.9148527282    1.5843663047
13   
From optimize.out: Frame 80 / 100, Energy=    -286.9216447569
C        1.6480956468    0.2952040985   -0.1552070316
C        1.1633569539   -0.9948542889   -0.2255525418
C       -0.1976199420   -1.2887952302   -0.3737590643
C       -1.1813128581   -0.4760935765    0.1492824062
C       -0.3475864218    1.4729449944    0.2467663768
N        0.8803602177    1.4196008815   -0.2233503514
H        2.7110799550    0.4453814159   -0.3147986811
H        1.9146799258   -1.7330729588   -0.5232941121
H       -0.4770200937   -2.1599567933   -0.9823808913
H       -2.2382236594   -0.6318046450   -0.1234227240
H       -1.0181471553    2.2216771744   -0.2586247990
C       -0.9889477213    0.5332876270    1.1418204028
H       -1.8687148476    0.8964813009    1.6425210107
13   
From optimize.out: Frame 79 / 100, Energy=    -286.9207069882
C        1.6445683068    0.3078358154   -0.1548462172
C        1.1659385542   -0.9950624862   -0.2383424004
C       -0.1846492914   -1.2958806943   -0.3735830705
C       -1.1735151984   -0.4294903919    0.1177616763
C       -0.3868128807    1.4206808348    0.2068417444
N        0.8781169527    1.4121449405   -0.2035566774
H        2.7159572301    0.4664886914   -0.2872628896
H        1.9039227249   -1.7327173462   -0.5296243591
H       -0.4973647912   -2.1725881848   -0.9479846152
H       -2.2167978203   -0.5750988275   -0.1664207343
H       -1.0360638811    2.1691903110   -0.3153835103
C       -0.9651740360    0.5355309181    1.1713599257
H       -1.8481258695    0.8889664196    1.7210411276
13   
From optimize.out: Frame 78 / 100, Energy=    -286.9184618277
C        1.6435814081    0.3226214780   -0.1604778237
C        1.1679612578   -0.9971852248   -0.2554946414
C       -0.1791663688   -1.2985340188   -0.3637762660
C       -1.1741478133   -0.3920023211    0.0833515274
C       -0.4157621203    1.3783703338    0.1670960274
N        0.8793149201    1.4073823572   -0.1873264705
H        2.7184083537    0.4890485250   -0.2745962053
H        1.8936593000   -1.7387991216   -0.5322502676
H       -0.5128273316   -2.1890264340   -0.8819845791
H       -2.1899694376   -0.5291322205   -0.2413404858
H       -1.0474835823    2.1320960750   -0.3381642187
C       -0.9728297313    0.5393084226    1.1808308155
H       -1.8107388546    0.8758521492    1.8041325879
13   
From optimize.out: Frame 76 / 100, Energy=    -286.9125224500
C        1.6469057099    0.3443980692   -0.1640157048
C        1.1751909050   -1.0036414251   -0.2564455627
C       -0.1750684024   -1.2978980401   -0.3441844476
C       -1.1722179955   -0.3565888102    0.0489428494
C       -0.4420492869    1.3363252968    0.1027580365
N        0.8854221421    1.4082363931   -0.1839248265
H        2.7247785271    0.5139443150   -0.2773574409
H        1.9013792879   -1.7438138357   -0.5212125429
H       -0.5300482954   -2.2134483071   -0.8397299774
H       -2.1914697084   -0.5106536926   -0.3142108828
H       -1.0471309799    2.0930323126   -0.3360270579
C       -0.9939219957    0.5402853930    1.1916577027
H       -1.7817699078    0.8898223311    1.8937498549
13   
From optimize.out: Frame 75 / 100, Energy=    -286.9095220065
C        1.6405773695    0.3532569325   -0.1559499050
C        1.1703117102   -1.0038621353   -0.2537763884
C       -0.1757813472   -1.2853903889   -0.3391941780
C       -1.1813320013   -0.3265586762    0.0260904597
C       -0.4651111291    1.3146473629    0.0639188435
N        0.8853331240    1.4099546460   -0.1764494431
H        2.7182442138    0.5248151602   -0.2607813498
H        1.9015740254   -1.7517170298   -0.5222106387
H       -0.5361259940   -2.2134246452   -0.8019800522
H       -2.1997287317   -0.4831457630   -0.3717351905
H       -1.0536224000    2.0845882450   -0.3682732900
C       -1.0105305757    0.5467431343    1.1786740976
H       -1.6938082639    0.8300931575    1.9816670350
13   
From optimize.out: Frame 74 / 100, Energy=    -286.9059830214
C        1.6357671208    0.3588327329   -0.1474652511
C        1.1631602194   -1.0040797412   -0.2586936495
C       -0.1763997279   -1.2723674939   -0.3311112839
C       -1.1912441022   -0.2975980528    0.0067746306
C       -0.4828080905    1.2963439486    0.0424641168
N        0.8893353662    1.4105294193   -0.1620851484
H        2.7118873146    0.5301189411   -0.2461741245
H        1.8950391526   -1.7621022310   -0.5326889215
H       -0.5367720662   -2.2133888393   -0.7549863300
H       -2.1916437857   -0.4427627316   -0.4325682515
H       -1.0604824987    2.0846620830   -0.4079967633
C       -1.0335919335    0.5577266831    1.1603822484
H       -1.6222469688    0.7540852818    2.0641487278
13   
From optimize.out: Frame 73 / 100, Energy=    -286.9012503050
C        1.6245590299    0.3579360931   -0.1428450678
C        1.1545858267   -1.0070427014   -0.2619993297
C       -0.1792101014   -1.2684965778   -0.3319874874
C       -1.1974353108   -0.2767236884   -0.0116663098
C       -0.5062320851    1.2874606110    0.0272878324
N        0.8801687347    1.4137174576   -0.1551307684
H        2.7000093074    0.5304242392   -0.2292645016
H        1.8881899185   -1.7706277473   -0.5333791833
H       -0.5321376289   -2.2228170787   -0.7202358417
H       -2.1786031090   -0.4104609785   -0.4855228807
H       -1.0865391427    2.0925245458   -0.4324670803
C       -1.0616417060    0.5697440819    1.1470245418
H       -1.5057137333    0.7043617436    2.1301860766
13   
From optimize.out: Frame 71 / 100, Energy=    -286.8921548253
C        1.6283383754    0.3730853204   -0.1536139774
C        1.1484017339   -1.0129278048   -0.2710730666
C       -0.1765715290   -1.2765520537   -0.3337275470
C       -1.2017747341   -0.2815560740   -0.0319497322
C       -0.5276099915    1.2625945666    0.0046734674
N        0.8654668112    1.4103439005   -0.1671751533
H        2.7026779415    0.5600063949   -0.2139930035
H        1.8785313800   -1.7811521501   -0.5257111483
H       -0.5424006882   -2.2424493039   -0.6779984538
H       -2.1670095200   -0.4071604342   -0.5368085768
H       -1.1308867017    2.0615704319   -0.4116830488
C       -1.0771208755    0.5706134899    1.1550137845
H       -1.4000422019    0.7635837164    2.1640464557
13   
From optimize.out: Frame 70 / 100, Energy=    -286.8883446959
C        1.6209646391    0.3570675175   -0.1565245407
C        1.1425889930   -1.0223152300   -0.2742398902
C       -0.1677590714   -1.2675998922   -0.3239068120
C       -1.1980029950   -0.2541812200   -0.0284725976
C       -0.5425315669    1.2724262364    0.0114669063
N        0.8625062523    1.4092456745   -0.1508867937
H        2.6864735471    0.5323298582   -0.2487826090
H        1.8811327252   -1.7902540011   -0.5181476922
H       -0.5179139473   -2.2424895416   -0.6616758904
H       -2.1477509402   -0.3852990151   -0.5564290213
H       -1.1340384852    2.1014962877   -0.3774585813
C       -1.1011146868    0.5629518277    1.1306187132
H       -1.3845544640    0.7266214979    2.1544388089
13   
From optimize.out: Frame 69 / 100, Energy=    -286.8844043911
C        1.6027553653    0.3408210913   -0.1598466819
C        1.1418201033   -1.0263806724   -0.2732035093
C       -0.1746685061   -1.2777454274   -0.3379213418
C       -1.1957520691   -0.2385110057   -0.0473289178
C       -0.5669303515    1.2806538348    0.0071730665
N        0.8410531475    1.4166778621   -0.1540488516
H        2.6738072320    0.5172407969   -0.2286935892
H        1.8897752016   -1.7879818705   -0.5116630923
H       -0.5114710525   -2.2627842985   -0.6431251624
H       -2.1415322254   -0.3722000958   -0.5952243799
H       -1.1609472855    2.1270316231   -0.3923217723
C       -1.1249259002    0.5886913655    1.1228618406
H       -1.2729836595    0.6944867967    2.2133423914
13   
From optimize.out: Frame 68 / 100, Energy=    -286.8783697264
C        1.5968098979    0.3459508448   -0.1779278191
C        1.1588428129   -1.0113039456   -0.2946869584
C       -0.1830645128   -1.2919737343   -0.3338699544
C       -1.2002723842   -0.2343023526   -0.0523152255
C       -0.5589390667    1.2390867560    0.0024641401
N        0.8309154324    1.4030176508   -0.1492965369
H        2.6735871882    0.5492594413   -0.2463518597
H        1.8879982798   -1.7941493957   -0.5144054885
H       -0.4971509833   -2.3027346332   -0.5899141456
H       -2.1274269324   -0.3755592662   -0.6294775395
H       -1.1756502668    2.1014861849   -0.3355898423
C       -1.1421168299    0.5615723966    1.1422533579
H       -1.2635326351    0.8096500533    2.1791178718
13   
From optimize.out: Frame 66 / 100, Energy=    -286.8670421489
C        1.6235472924    0.3712111799   -0.1877948634
C        1.1432483343   -1.0165647618   -0.2944846116
C       -0.1748208494   -1.2818934083   -0.3261830873
C       -1.2028704110   -0.2487299213   -0.0596882543
C       -0.5589397811    1.2233673331   -0.0127801933
N        0.8434363857    1.3996526449   -0.1682162713
H        2.6991841027    0.5799706380   -0.2502279715
H        1.8618652321   -1.7982323035   -0.4915625584
H       -0.5207926453   -2.2774950032   -0.5749422166
H       -2.1110791053   -0.3796506303   -0.6524547923
H       -1.1749143426    2.0630309307   -0.3226104254
C       -1.1558459796    0.5096201651    1.1476900180
H       -1.2720182329    0.8557131368    2.1932552275
13   
From optimize.out: Frame 65 / 100, Energy=    -286.8637602594
C        1.6260051517    0.3751607618   -0.2045731003
C        1.1307948357   -1.0261919236   -0.2989033948
C       -0.1535866989   -1.2860758759   -0.3080276654
C       -1.1992035435   -0.2556435314   -0.0703582563
C       -0.5682743007    1.2207196941   -0.0140300142
N        0.8343479110    1.3940744813   -0.1713283749
H        2.6889673745    0.5870254242   -0.2817109649
H        1.8551824035   -1.8087797201   -0.4789652814
H       -0.5248561684   -2.2853310634   -0.5381595605
H       -2.0971534840   -0.3879657786   -0.6799385467
H       -1.1944919443    2.0433766303   -0.2473108027
C       -1.1396882545    0.5523999569    1.1326867020
H       -1.2580432820    0.8772309444    2.1606192601
13   
From optimize.out: Frame 64 / 100, Energy=    -286.8595993239
C        1.6284333727    0.3732277055   -0.2182627902
C        1.1507581054   -0.9955371483   -0.3097812682
C       -0.1655167468   -1.2872399069   -0.3061115674
C       -1.2076542527   -0.2418453870   -0.0617778523
C       -0.5524187933    1.1577127690   -0.0327201633
N        0.8137781498    1.3729466671   -0.1786141777
H        2.7038089000    0.6202260111   -0.2928080035
H        1.8493036653   -1.8097255406   -0.4712853440
H       -0.5316573275   -2.2995428164   -0.5080644111
H       -2.0812715699   -0.4014609916   -0.6949360126
H       -1.2104088851    2.0134899608   -0.1971984465
C       -1.1554836481    0.5384232468    1.1470603392
H       -1.2416709697    0.9593254305    2.1244996977
13   
From optimize.out: Frame 63 / 100, Energy=    -286.8580632056
C        1.6383203457    0.3790949485   -0.2180835545
C        1.1543110213   -0.9723289103   -0.3140254646
C       -0.1848388035   -1.2803721244   -0.3012295237
C       -1.2112611545   -0.2365025297   -0.0465479826
C       -0.5346220015    1.1254831912   -0.0536467731
N        0.8092942741    1.3613616899   -0.1881896623
H        2.7173448795    0.6427660288   -0.2901824744
H        1.8285016222   -1.8087983356   -0.4565835434
H       -0.5400813422   -2.2993837318   -0.5186367162
H       -2.0647853187   -0.4163270528   -0.6957575829
H       -1.2129538861    1.9983729764   -0.1883318509
C       -1.1599946692    0.5178370049    1.1640504280
H       -1.2392349671    0.9887968449    2.1071647006
13   
From optimize.out: Frame 61 / 100, Energy=    -286.8552152894
C        1.6312817217    0.3936840732   -0.2164594489
C        1.1642980707   -0.9848801471   -0.3078369615
C       -0.1636797319   -1.2820816820   -0.3064345519
C       -1.1962851807   -0.2478520761   -0.0557603568
C       -0.5175065181    1.1398481169   -0.0660890088
N        0.8125037267    1.3687821840   -0.1829319349
H        2.6880738973    0.6382818746   -0.2988543101
H        1.8578284861   -1.8080832989   -0.4815452381
H       -0.5387806534   -2.2924900591   -0.5011347489
H       -2.0980805078   -0.4070761137   -0.6704418863
H       -1.2138415928    1.9742532803   -0.1506394994
C       -1.2034617739    0.4503639437    1.1878579424
H       -1.2223499438    1.0572499041    2.0502700033
13   
From optimize.out: Frame 60 / 100, Energy=    -286.8545660797
C        1.6192274068    0.3754000502   -0.2292370420
C        1.1716318172   -0.9993025738   -0.3188885992
C       -0.1399927401   -1.2894026936   -0.3007729021
C       -1.2005340538   -0.2491941569   -0.0507828305
C       -0.5500164158    1.1402315390   -0.0498312575
N        0.7905261728    1.3583962347   -0.1697487139
H        2.6731388605    0.6208614702   -0.3318023236
H        1.8691575541   -1.8174664396   -0.4927335066
H       -0.4945627417   -2.3030137233   -0.4937505476
H       -2.1012269576   -0.4196538804   -0.6465779999
H       -1.2441991146    1.9853389554   -0.0701153715
C       -1.1845681651    0.4351132433    1.1887576349
H       -1.2085816227    1.1626919748    1.9654834594
13   
From optimize.out: Frame 58 / 100, Energy=    -286.8536149670
C        1.6170390591    0.3622782648   -0.2475260870
C        1.1796505344   -1.0084400309   -0.3360609446
C       -0.1244630081   -1.2908572507   -0.2945127907
C       -1.1946440575   -0.2399553655   -0.0568319670
C       -0.5599066532    1.1429698194   -0.0466169556
N        0.7894793409    1.3545499402   -0.1510606157
H        2.6695711287    0.6028797768   -0.3746290228
H        1.8870296191   -1.8191536134   -0.4969375494
H       -0.4667296239   -2.3086671942   -0.4711759230
H       -2.1000886661   -0.4179457073   -0.6329821292
H       -1.2309224639    2.0061049260   -0.0013391538
C       -1.1853380640    0.3856216814    1.2271184306
H       -1.2806771455    1.2306147536    1.8825547084
13   
From optimize.out: Frame 57 / 100, Energy=    -286.8510096470
C        1.6166225282    0.3521926061   -0.2472902614
C        1.1820207243   -1.0132250719   -0.3518819295
C       -0.1216989879   -1.2872578574   -0.3092149140
C       -1.1713885344   -0.2202535753   -0.0595203734
C       -0.5583454994    1.1528094823   -0.0669870662
N        0.7968876284    1.3632628281   -0.1331684110
H        2.6732059667    0.5810389775   -0.3693781853
H        1.9054679711   -1.8082081121   -0.5122550012
H       -0.4639132380   -2.3038498773   -0.4780167341
H       -2.0985173418   -0.3888094866   -0.6001818783
H       -1.2077926872    2.0301616430   -0.0140426459
C       -1.2072513702    0.2988989492    1.3100558715
H       -1.3452971598    1.2432394944    1.8318815289
13   
From optimize.out: Frame 55 / 100, Energy=    -286.8500158436
C        1.6219954013    0.3485386727   -0.2430047840
C        1.1807406495   -1.0128546824   -0.3599025572
C       -0.1253179373   -1.2791942616   -0.3267133781
C       -1.1499720301   -0.1990397960   -0.0597169155
C       -0.5440452656    1.1654789492   -0.0819154204
N        0.8115167093    1.3767583047   -0.1240415154
H        2.6835233630    0.5646842999   -0.3520373563
H        1.9122830174   -1.7991656036   -0.5229260123
H       -0.4748803437   -2.2938211367   -0.4821980741
H       -2.0888585107   -0.3495141977   -0.5898874106
H       -1.1828119830    2.0507047829   -0.0615356061
C       -1.2547553704    0.2184275803    1.3760990384
H       -1.3894176996    1.2089970883    1.8277799916
13   
From optimize.out: Frame 54 / 100, Energy=    -286.8463436781
C        1.6326569448    0.3594018066   -0.2629827228
C        1.1841837084   -1.0099154015   -0.3868622687
C       -0.1199748760   -1.2811846854   -0.3123147495
C       -1.1385999178   -0.2026849218   -0.0528837193
C       -0.5300989071    1.1466599579   -0.0599690690
N        0.8207757431    1.3683586893   -0.1167069904
H        2.6940000929    0.5839704361   -0.3608519171
H        1.9001306449   -1.8088120710   -0.5623360915
H       -0.4738923438   -2.3043116030   -0.4114988532
H       -2.0772234754   -0.3241104116   -0.6001647364
H       -1.1822607943    2.0187206447   -0.0115876894
C       -1.2598376595    0.2187656912    1.3864125790
H       -1.4498591603    1.2351418683    1.7517462282
13   
From optimize.out: Frame 53 / 100, Energy=    -286.8403905903
C        1.6329513356    0.3563044932   -0.2708245281
C        1.1819261185   -1.0069075029   -0.3818173589
C       -0.1282593309   -1.2735176369   -0.3098886115
C       -1.1323162335   -0.1896851590   -0.0609762158
C       -0.5198990450    1.1567395898   -0.0669991638
N        0.8283508349    1.3717180732   -0.1173487558
H        2.6934663897    0.5782691407   -0.3787629932
H        1.9033612847   -1.8023081537   -0.5469115787
H       -0.4905078113   -2.2935694708   -0.3937478352
H       -2.0615414245   -0.3302775813   -0.6192693664
H       -1.1544185750    2.0356436230    0.0037035695
C       -1.2663011513    0.1928442882    1.3907598552