13   
From optimize.out: Frame 99 / 100, Energy=    -286.9243436242
C        1.6275208656    0.3388165904   -0.3025239701
C        1.1398763554   -0.9438103089   -0.4730325191
C       -0.2057285338   -1.4173079962   -0.2706573326
C       -1.2783643897   -0.6846921986    0.1422835657
C       -0.2472334035    1.6192674999    0.4206524854
N        1.0599169531    1.5054969870    0.0841605408
H        2.6905909706    0.4560962210   -0.5241435773
H        1.8676799238   -1.6816847037   -0.8031711638
H       -0.3721805494   -2.4736071504   -0.4726346800
H       -2.2289009435   -1.2046825637    0.2416831057
H       -0.5062034222    2.6402763480    0.7111212926
C       -1.2948735157    0.7191902312    0.4653743436
H       -2.2521003108    1.1266410446    0.7808879094
13   
From optimize.out: Frame 98 / 100, Energy=    -286.9243390424
C        1.6290468200    0.3471236714   -0.3152279596
C        1.1478183295   -0.9425637276   -0.4665058143
C       -0.2113738529   -1.4048507790   -0.2971648818
C       -1.2848886959   -0.6796519411    0.1244054010
C       -0.2515138080    1.6201143708    0.4101662775
N        1.0485494151    1.5174071662    0.0380426212
H        2.6971264476    0.4545954048   -0.5176739975
H        1.8688605830   -1.7152092994   -0.7428763579
H       -0.3663533256   -2.4615657461   -0.4936267137
H       -2.2313481812   -1.2070741270    0.2326291229
H       -0.5105438952    2.6339779449    0.7200324354
C       -1.2948668681    0.7176431905    0.4739139561
H       -2.2405129681    1.1200538715    0.8338859107
13   
From optimize.out: Frame 96 / 100, Energy=    -286.9243279196
C        1.6293003031    0.3276348151   -0.3035667874
C        1.1402328339   -0.9428612079   -0.4833391715
C       -0.2163975750   -1.3962981058   -0.3357455388
C       -1.2760520523   -0.6722851571    0.1253651382
C       -0.2532153374    1.6286320376    0.3798747239
N        1.0222828194    1.5226506595   -0.0145700982
H        2.7065425636    0.4471053407   -0.4414509174
H        1.8746084914   -1.7124686454   -0.7080127439
H       -0.3867560345   -2.4497739826   -0.5514143958
H       -2.2103983393   -1.2155764504    0.2498211017
H       -0.5108582982    2.6510143661    0.6590407352
C       -1.2921086459    0.7109199991    0.5146885108
H       -2.2271807289    1.1013063310    0.9093094433
13   
From optimize.out: Frame 95 / 100, Energy=    -286.9243230030
C        1.6298613558    0.3160227837   -0.3000914469
C        1.1421803996   -0.9481575876   -0.4707379162
C       -0.2256298294   -1.3983612984   -0.3612660294
C       -1.2678349850   -0.6732916283    0.1436030045
C       -0.2543589834    1.6326535368    0.3474905729
N        1.0069559085    1.5194470696   -0.0584671448
H        2.7064433637    0.4573471168   -0.3586237234
H        1.8773498062   -1.7125294959   -0.6959998200
H       -0.3994790933   -2.4391458796   -0.6296639219
H       -2.2167335293   -1.1949734525    0.2741651563
H       -0.5253357367    2.6722889740    0.5880336483
C       -1.2769290912    0.6956634847    0.5398195124
H       -2.1964895854    1.0730363766    0.9817381081
13   
From optimize.out: Frame 94 / 100, Energy=    -286.9243147723
C        1.6301816970    0.3153008756   -0.2827022982
C        1.1508614627   -0.9519222096   -0.4544372648
C       -0.2256239441   -1.4033884702   -0.3683400322
C       -1.2644237976   -0.6798233290    0.1666806689
C       -0.2500897148    1.6442252686    0.3276466254
N        0.9954707133    1.5281184447   -0.0865916847
H        2.7131089529    0.4521272430   -0.3183240993
H        1.8848294800   -1.7266773877   -0.6810478647
H       -0.4152026109   -2.4218842316   -0.7083308595
H       -2.2309743446   -1.1736060899    0.2605380579
H       -0.5569122923    2.6898940119    0.5004309790
C       -1.2597595355    0.6785060591    0.5807910180
H       -2.1714660663    1.0491298149    1.0636867542
13   
From optimize.out: Frame 93 / 100, Energy=    -286.9243056910
C        1.6298908280    0.3177024524   -0.2606261622
C        1.1548902072   -0.9546310513   -0.4374355923
C       -0.2212057408   -1.4006266364   -0.3720593066
C       -1.2592256901   -0.6765519344    0.1790977944
C       -0.2544016739    1.6429667636    0.3084558172
N        0.9825437818    1.5349090253   -0.1051363085
H        2.7148971108    0.4446915517   -0.2926447796
H        1.8909614256   -1.7334795776   -0.6643737341
H       -0.4370770681   -2.3937155925   -0.7675382699
H       -2.2427517822   -1.1488235010    0.2315835495
H       -0.5975347177    2.6763053255    0.4049182982
C       -1.2309349484    0.6626340930    0.6314929766
H       -2.1300517321    1.0286190816    1.1442657174
13   
From optimize.out: Frame 91 / 100, Energy=    -286.9242510302
C        1.6298358527    0.3147709872   -0.2424746248
C        1.1536552358   -0.9529697759   -0.4243127123
C       -0.2134035686   -1.4037123589   -0.3734977313
C       -1.2487433320   -0.6849402780    0.1923995313
C       -0.2571523861    1.6510446696    0.3050078464
N        0.9708672169    1.5566120958   -0.1252569032
H        2.7098545012    0.4244640944   -0.2745348929
H        1.8921987755   -1.7361067860   -0.6347404051
H       -0.4664031292   -2.3629626471   -0.8288778226
H       -2.2445806106   -1.1468126439    0.1906593914
H       -0.6324469970    2.6837504551    0.3125530132
C       -1.2120256246    0.6409840674    0.6829040592
H       -2.0816559339    1.0158781201    1.2201712507
13   
From optimize.out: Frame 90 / 100, Energy=    -286.9242081202
C        1.6302188683    0.3110297934   -0.2274496804
C        1.1497650668   -0.9534368528   -0.4142100131
C       -0.2099994207   -1.3958794390   -0.3766421415
C       -1.2417873016   -0.6840873236    0.2065910094
C       -0.2659559839    1.6386426022    0.2914633110
N        0.9573401141    1.5576489877   -0.1556974638
H        2.7059859838    0.4120786931   -0.2472577612
H        1.8970764884   -1.7275471458   -0.6101617255
H       -0.4926168223   -2.3247725914   -0.8734513784
H       -2.2421765004   -1.1420811532    0.1452006125
H       -0.6738603650    2.6652493638    0.2274098142
C       -1.1819296947    0.6271634694    0.7422073409
H       -2.0320604326    1.0159915963    1.2919980760
13   
From optimize.out: Frame 89 / 100, Energy=    -286.9241426512
C        1.6331947452    0.3031568549   -0.2197637492
C        1.1490150746   -0.9547214542   -0.4096874203
C       -0.2132781156   -1.3794602152   -0.3724842653
C       -1.2397940590   -0.6788483500    0.2266848455
C       -0.2655421791    1.6196358684    0.2782741112
N        0.9460246150    1.5403035156   -0.1977294242
H        2.7115866436    0.3991262142   -0.2323123052
H        1.9085928341   -1.7166955292   -0.5863209303
H       -0.5084527240   -2.2845103190   -0.8954630788
H       -2.2286992507   -1.1321584297    0.0754130458
H       -0.7177782230    2.6434780575    0.1646860161
C       -1.1632126070    0.6150543404    0.8097512708
H       -2.0116567540    1.0256394463    1.3589518840
13   
From optimize.out: Frame 88 / 100, Energy=    -286.9240333394
C        1.6349412206    0.2974304711   -0.2089632146
C        1.1553103565   -0.9605812400   -0.3955113123
C       -0.2202005047   -1.3537951236   -0.3705068302
C       -1.2483118838   -0.6630662851    0.2469759342
C       -0.2671860674    1.5999349275    0.2585295360
N        0.9311088047    1.5031713730   -0.2377457560
H        2.7230333865    0.3983857964   -0.2253652765
H        1.9232745938   -1.7123382790   -0.5688377055
H       -0.5096369358   -2.2455217314   -0.9166939422
H       -2.2270321230   -1.0979916566    0.0170447134
H       -0.7716557168    2.5961192030    0.1069161069
C       -1.1303136421    0.6147112625    0.8763784776
H       -1.9933314886    1.0235412822    1.4177792692
13   
From optimize.out: Frame 86 / 100, Energy=    -286.9237188127
C        1.6387539177    0.2952099988   -0.1995678549
C        1.1667789981   -0.9705480555   -0.3715285437
C       -0.2290329281   -1.3257521934   -0.3653672650
C       -1.2545661858   -0.6420270705    0.2568662606
C       -0.2617742395    1.5860163848    0.2476201827
N        0.9198922380    1.4615340909   -0.2670413025
H        2.7380507045    0.4056884296   -0.2408069515
H        1.9387472599   -1.7165872749   -0.5610194302
H       -0.4990271656   -2.2118514609   -0.9212936145
H       -2.2324132173   -1.0329071368   -0.0376497258
H       -0.8280296470    2.5280184495    0.0599875034
C       -1.1051588918    0.6111265959    0.9380567870
H       -1.9922208430    1.0120792425    1.4617439546
13   
From optimize.out: Frame 85 / 100, Energy=    -286.9234872438
C        1.6431157828    0.2945387234   -0.1856712628
C        1.1789311277   -0.9823462454   -0.3289151081
C       -0.2313440418   -1.3004987335   -0.3641980925
C       -1.2593933232   -0.6222725626    0.2552137371
C       -0.2570145189    1.5801489261    0.2506935469
N        0.9076912750    1.4309982505   -0.2788094764
H        2.7369814777    0.4178020022   -0.2759353008
H        1.9503683099   -1.7265226044   -0.5503299733
H       -0.4799093247   -2.1823052173   -0.9409131723
H       -2.2527309623   -0.9495279294   -0.0649293402
H       -0.8787917243    2.4465487154    0.0077640207
C       -1.0775610038    0.6035140651    0.9892509666
H       -1.9803430741    0.9899226097    1.4867794549
13   
From optimize.out: Frame 84 / 100, Energy=    -286.9233262198
C        1.6476350625    0.2946391258   -0.1775815773
C        1.1818290710   -0.9889908840   -0.2855385665
C       -0.2261943641   -1.2833694891   -0.3695642747
C       -1.2504886736   -0.5945104713    0.2324879753
C       -0.2651160308    1.5651907538    0.2567103764
N        0.8959060417    1.4192395335   -0.2729575984
H        2.7232294681    0.4319152844   -0.3088098203
H        1.9525628100   -1.7341042130   -0.5389223334
H       -0.4706370455   -2.1547545079   -0.9433153660
H       -2.2728670688   -0.8611214807   -0.0855310452
H       -0.9178439739    2.3698617647   -0.0462873080
C       -1.0530713520    0.5730115267    1.0291607256
H       -1.9449439445    0.9629930572    1.5101488125
13   
From optimize.out: Frame 83 / 100, Energy=    -286.9228924765
C        1.6552961113    0.2941353977   -0.1659814682
C        1.1780422363   -0.9975339726   -0.2452420117
C       -0.2191194756   -1.2791431446   -0.3643243601
C       -1.2318421424   -0.5664182156    0.2100410083
C       -0.2767901350    1.5474337911    0.2711779247
N        0.8913259484    1.4207918922   -0.2646019385
H        2.7126643198    0.4354108247   -0.3374511198
H        1.9479036253   -1.7393351923   -0.5280045468
H       -0.4585644904   -2.1555470533   -0.9741518397
H       -2.2738225510   -0.7767092177   -0.0982151916
H       -0.9559417694    2.3126439687   -0.1118456278
C       -1.0495734796    0.5641061003    1.0653869706
H       -1.9195781979    0.9401648214    1.5432122005
13   
From optimize.out: Frame 81 / 100, Energy=    -286.9221863091
C        1.6519327628    0.2923412448   -0.1596316697
C        1.1696811098   -0.9961812745   -0.2278949698
C       -0.2090445092   -1.2820845865   -0.3717241084
C       -1.2050183879   -0.5231614918    0.1799269977
C       -0.3099796817    1.5146227715    0.2646840707
N        0.8832142870    1.4209538181   -0.2447659008
H        2.7079559202    0.4385515340   -0.3312752756
H        1.9319293036   -1.7360075115   -0.5228902310
H       -0.4652369997   -2.1523141837   -0.9855837097
H       -2.2622220973   -0.7019989449   -0.1036115214
H       -0.9901718953    2.2663058525   -0.1863519579
C       -1.0153166434    0.5441754801    1.1046283515
H       -1.8877231689    0.9147972920    1.5844899244
13   
From optimize.out: Frame 80 / 100, Energy=    -286.9216447569
C        1.6480887296    0.2952048136   -0.1552791064
C        1.1633426605   -0.9948495809   -0.2256470094
C       -0.1976425526   -1.2887811000   -0.3737958305
C       -1.1813067780   -0.4760954669    0.1493244850
C       -0.3475696396    1.4729370884    0.2468371959
N        0.8803532295    1.4196063508   -0.2233431334
H        2.7110654690    0.4453847474   -0.3149186995
H        1.9146484789   -1.7330597008   -0.5234530566
H       -0.4770758655   -2.1599197806   -0.9824351856
H       -2.2382317375   -0.6317935081   -0.1233332063
H       -1.0181535227    2.2216895745   -0.2584931766
C       -0.9888887872    0.5332492045    1.1418893875
H       -1.8686296842    0.8964273580    1.6426473359
13   
From optimize.out: Frame 79 / 100, Energy=    -286.9207069882
C        1.6445611620    0.3078365969   -0.1549205284
C        1.1659235186   -0.9950575296   -0.2384366263
C       -0.1846721302   -1.2958673949   -0.3736179122
C       -1.1735103022   -0.4294911982    0.1178075183
C       -0.3867983009    1.4206748150    0.2069103441
N        0.8781103328    1.4121494957   -0.2035536333
H        2.7159436881    0.4664910619   -0.2873870469
H        1.9038906310   -1.7327044444   -0.5297819172
H       -0.4974196770   -2.1725543585   -0.9480333387
H       -2.2168079855   -0.5750870361   -0.1663260490
H       -1.0360741860    2.1692039558   -0.3152557835
C       -0.9651121256    0.5354934644    1.1714280575
H       -1.8480346251    0.8889125720    1.7211669155
13   
From optimize.out: Frame 78 / 100, Energy=    -286.9184618277
C        1.6435733811    0.3226233652   -0.1605562210
C        1.1679453172   -0.9971791888   -0.2555910515
C       -0.1791888086   -1.2985215713   -0.3638096441
C       -1.1741441136   -0.3920026309    0.0834021729
C       -0.4157501751    1.3783656576    0.1671643082
N        0.8793077098    1.4073867335   -0.1873274364
H        2.7183944869    0.4890519508   -0.2747273492
H        1.8936268019   -1.7387854190   -0.5324106301
H       -0.5128797289   -2.1889960912   -0.8820294184
H       -2.1899836260   -0.5291196303   -0.2412393194
H       -1.0474974499    2.1321094870   -0.3380366767
C       -0.9727645842    0.5392712712    1.1809014503
H       -1.8106392106    0.8757960659    1.8042598155
13   
From optimize.out: Frame 76 / 100, Energy=    -286.9125224500
C        1.6468971641    0.3443998570   -0.1640977398
C        1.1751740091   -1.0036354216   -0.2565464651
C       -0.1750909634   -1.2978859675   -0.3442184942
C       -1.1722160264   -0.3565877837    0.0489974603
C       -0.4420403746    1.3363228245    0.1028285022
N        0.8854149042    1.4082406001   -0.1839274585
H        2.7247639189    0.5139474763   -0.2774950605
H        1.9013456276   -1.7438005179   -0.5213798646
H       -0.5301011532   -2.2134186177   -0.8397748681
H       -2.1914887552   -0.5106380168   -0.3141034970
H       -1.0471452993    2.0930461047   -0.3358965020
C       -0.9938529467    0.5402472631    1.1917325769
H       -1.7816601052    0.8897621994    1.8938814103
13   
From optimize.out: Frame 75 / 100, Energy=    -286.9095220065
C        1.6405697929    0.3532565080   -0.1560305511
C        1.1702932052   -1.0038569606   -0.2538821722
C       -0.1758058573   -1.2853766671   -0.3392334717
C       -1.1813317789   -0.3265550582    0.0261457570
C       -0.4651023128    1.3146467250    0.0639960690
N        0.8853285065    1.4099579622   -0.1764461122
H        2.7182312862    0.5248145488   -0.2609172950
H        1.9015371763   -1.7517044003   -0.5223871545
H       -0.5361807133   -2.2133917313   -0.8020343085
H       -2.1997519678   -0.4831228756   -0.3716274215
H       -1.0536353908    2.0846065149   -0.3681326806
C       -1.0104607423    0.5467017966    1.1787531385
H       -1.6936912039    0.8300236377    1.9817962027
13   
From optimize.out: Frame 74 / 100, Energy=    -286.9059830214
C        1.6357600575    0.3588317905   -0.1475458728
C        1.1631406606   -1.0040739066   -0.2588042133
C       -0.1764247030   -1.2723527207   -0.3311547438
C       -1.1912450097   -0.2975931127    0.0068318098
C       -0.4827999125    1.2963442703    0.0425471949
N        0.8893320645    1.4105323687   -0.1620775966
H        2.7118752207    0.5301174505   -0.2463105234
H        1.8950002197   -1.7620880230   -0.5328743906
H       -0.5368259938   -2.2133545642   -0.7550484677
H       -2.1916710570   -0.4427348287   -0.4324586237
H       -1.0604972387    2.0846839823   -0.4078465277
C       -1.0335215305    0.5576821603    1.1604663522
H       -1.6221227776    0.7540051333    2.0642756028
13   
From optimize.out: Frame 73 / 100, Energy=    -286.9012503050
C        1.6245523861    0.3579329449   -0.1429284914
C        1.1545636919   -1.0070375599   -0.2621166092
C       -0.1792381008   -1.2684802426   -0.3320347834
C       -1.1974376814   -0.2767159913   -0.0116054121
C       -0.5062227040    1.2874623823    0.0273781426
N        0.8801676533    1.4137193245   -0.1551198902
H        2.6999983803    0.5304186327   -0.2294061147
H        1.8881465294   -1.7706145159   -0.5335766677
H       -0.5321952067   -2.2227807834   -0.7203053102
H       -2.1786354106   -0.4104256298   -0.4854078069
H       -1.0865532099    2.0925509224   -0.4323040809
C       -1.0615677759    0.5696976986    1.1471160009
H       -1.5055785518    0.7042728176    2.1303110233
13   
From optimize.out: Frame 71 / 100, Energy=    -286.8921548253
C        1.6283309856    0.3730803572   -0.1537043376
C        1.1483766813   -1.0129241639   -0.2711927795
C       -0.1766025808   -1.2765361411   -0.3337719806
C       -1.2017788499   -0.2815460349   -0.0318833148
C       -0.5276006063    1.2625981521    0.0047634453
N        0.8654659919    1.4103450139   -0.1671700018
H        2.7026679358    0.5599963595   -0.2141455802
H        1.8784841123   -1.7811425835   -0.5259124223
H       -0.5424612489   -2.2424156564   -0.6780612862
H       -2.1670476277   -0.4071213074   -0.5366844022
H       -1.1308988608    2.0615966200   -0.4115184732
C       -1.0770410655    0.5705705543    1.1551094163
H       -1.3998948669    0.7634988302    2.1641717167
13   
From optimize.out: Frame 70 / 100, Energy=    -286.8883446959
C        1.6209558846    0.3570652445   -0.1566203585
C        1.1425645913   -1.0223098762   -0.2743614870
C       -0.1677882197   -1.2675852248   -0.3239491117
C       -1.1980063399   -0.2541734234   -0.0284013690
C       -0.5425237794    1.2724287323    0.0115580373
N        0.8625036748    1.4092473324   -0.1508860437
H        2.6864594385    0.5323256401   -0.2489439332
H        1.8810873989   -1.7902423588   -0.5183524322
H       -0.5179715820   -2.2424586156   -0.6617355832
H       -2.1477911474   -0.3852635936   -0.5562983360
H       -1.1340527598    2.1015185382   -0.3772917772
C       -1.1010341864    0.5629099090    1.1307179768
H       -1.3844029734    0.7265376959    2.1545644177
13   
From optimize.out: Frame 69 / 100, Energy=    -286.8844043911
C        1.6027474024    0.3408142186   -0.1599411502
C        1.1417915986   -1.0263776289   -0.2733340427
C       -0.1747038355   -1.2777269726   -0.3379728550
C       -1.1957575659   -0.2384975785   -0.0472576528
C       -0.5669179921    1.2806587237    0.0072762936
N        0.8410555523    1.4166777500   -0.1540367525
H        2.6737961129    0.5172274396   -0.2288537444
H        1.8897230610   -1.7879738689   -0.5118835793
H       -0.5115367252   -2.2627475187   -0.6432023313
H       -2.1415770562   -0.3721506159   -0.5950940077
H       -1.1609548662    2.1270619136   -0.3921350696
C       -1.1248423671    0.5886458337    1.1229693894
H       -1.2728233190    0.6943883044    2.2134655026
13   
From optimize.out: Frame 68 / 100, Energy=    -286.8783697264
C        1.5968003329    0.3459447148   -0.1780255514
C        1.1588136266   -1.0113015824   -0.2948098149
C       -0.1830988079   -1.2919584566   -0.3339102655
C       -1.2002780236   -0.2342900908   -0.0522407038
C       -0.5589284526    1.2390913613    0.0025543041
N        0.8309167832    1.4030167928   -0.1492970818
H        2.6735745358    0.5492470566   -0.2465167292
H        1.8879470898   -1.7941441345   -0.5146116750
H       -0.4972117468   -2.3027061761   -0.5899740128
H       -2.1274742285   -0.3755154520   -0.6293438170
H       -1.1756560884    2.1015098905   -0.3354209581
C       -1.1420320040    0.5615350258    1.1423565381
H       -1.2633730166    0.8095710506    2.1792397672
13   
From optimize.out: Frame 66 / 100, Energy=    -286.8670421489
C        1.6235342426    0.3712102207   -0.1879095434
C        1.1432205463   -1.0165598386   -0.2946094573
C       -0.1748523387   -1.2818813524   -0.3262135865
C       -1.2028762345   -0.2487223508   -0.0596023809
C       -0.5589351747    1.2233703341   -0.0126940939
N        0.8434295904    1.3996545837   -0.1682342101
H        2.6991671041    0.5799669047   -0.2504199126
H        1.8618183831   -1.7982238724   -0.4917708016
H       -0.5208482313   -2.2774727788   -0.5749798980
H       -2.1111320728   -0.3796184468   -0.6523021172
H       -1.1749302143    2.0630474432   -0.3224469855
C       -1.1557535181    0.5095858621    1.1477983590
H       -1.2718420821    0.8556432912    2.1933846280
13   
From optimize.out: Frame 65 / 100, Energy=    -286.8637602594
C        1.6259904079    0.3751604167   -0.2046908866
C        1.1307666487   -1.0261871726   -0.2990263150
C       -0.1536167073   -1.2860654131   -0.3080563840
C       -1.1992102332   -0.2556362283   -0.0702707158
C       -0.5682702631    1.2207225390   -0.0139457790
N        0.8343401253    1.3940764177   -0.1713505320
H        2.6889473672    0.5870230503   -0.2819068153
H        1.8551365420   -1.8087722891   -0.4791709334
H       -0.5249087579   -2.2853117010   -0.5381904908
H       -2.0972093683   -0.3879352640   -0.6797835719
H       -1.1945030441    2.0433895502   -0.2471503905
C       -1.1395955405    0.5523686789    1.1327952336
H       -1.2578671767    0.8771674154    2.1607475807
13   
From optimize.out: Frame 64 / 100, Energy=    -286.8595993239
C        1.6284172585    0.3732259711   -0.2183859476
C        1.1507283785   -0.9955343928   -0.3099005271
C       -0.1655474821   -1.2872313281   -0.3061310213
C       -1.2076603709   -0.2418383771   -0.0616856231
C       -0.5524162514    1.1577160893   -0.0326455146
N        0.8137697655    1.3729475797   -0.1786453590
H        2.7037878178    0.6202213504   -0.2930124775
H        1.8492571125   -1.8097217916   -0.4714823678
H       -0.5317090725   -2.2995274228   -0.5080799329
H       -2.0813300026   -0.4014338501   -0.6947766702
H       -1.2104158965    2.0135004482   -0.1970482724
C       -1.1553877427    0.5383990841    1.1471682813
H       -1.2414935142    0.9592766396    2.1246254322
13   
From optimize.out: Frame 63 / 100, Energy=    -286.8580632056
C        1.6383030399    0.3790936992   -0.2182156925
C        1.1542802825   -0.9723260895   -0.3141471644
C       -0.1848696186   -1.2803644644   -0.3012431722
C       -1.2112660602   -0.2364968113   -0.0464492779
C       -0.5346222953    1.1254864786   -0.0535748276
N        0.8092833102    1.3613629291   -0.1882278428
H        2.7173223811    0.6427623060   -0.2904013180
H        1.8284554130   -1.8087948100   -0.4567825210
H       -0.5401347609   -2.2993696926   -0.5186433288
H       -2.0648467394   -0.4163030809   -0.6955896268
H       -1.2129624110    1.9983819724   -0.1881814300
C       -1.1598925765    0.5178145914    1.1641621257
H       -1.2390499649    0.9887529722    2.1072940763
13   
From optimize.out: Frame 61 / 100, Energy=    -286.8552152894
C        1.6312655221    0.3936824983   -0.2165843603
C        1.1642706777   -0.9848791274   -0.3079438095
C       -0.1637078471   -1.2820769366   -0.3064393871
C       -1.1962903340   -0.2478479227   -0.0556681825
C       -0.5175085840    1.1398505002   -0.0660317021
N        0.8124929613    1.3687824495   -0.1829777574
H        2.6880517973    0.6382784710   -0.2990602890
H        1.8577848809   -1.8080818069   -0.4817190382
H       -0.5388271838   -2.2924815340   -0.5011237197
H       -2.0981352491   -0.4070608243   -0.6702798402
H       -1.2138480618    1.9742588093   -0.1505148589
C       -1.2033655343    0.4503507328    1.1879604467
H       -1.2221830450    1.0572246908    2.0503824982
13   
From optimize.out: Frame 60 / 100, Energy=    -286.8545660797
C        1.6192106562    0.3753969301   -0.2293604367
C        1.1716042866   -0.9993039081   -0.3189855526
C       -0.1400196678   -1.2894004893   -0.3007698169
C       -1.2005386844   -0.2491905116   -0.0506911662
C       -0.5500171097    1.1402333693   -0.0497816933
N        0.7905167755    1.3583950604   -0.1698018661
H        2.6731148298    0.6208560379   -0.3320060260
H        1.8691142543   -1.8174686648   -0.4928895276
H       -0.4946074638   -2.3030093685   -0.4937260613
H       -2.1012782964   -0.4196441352   -0.6464174639
H       -1.2441990298    1.9853428387   -0.0700068359
C       -1.1844746974    0.4351093648    1.1888521854
H       -1.2084258532    1.1626834763    1.9655842610
13   
From optimize.out: Frame 58 / 100, Energy=    -286.8536149670
C        1.6170199954    0.3622780712   -0.2476508774
C        1.1796252557   -1.0084407001   -0.3361476585
C       -0.1244849952   -1.2908583006   -0.2944988960
C       -1.1946483005   -0.2399560365   -0.0567398671
C       -0.5599106713    1.1429694370   -0.0465780532
N        0.7894672534    1.3545497431   -0.1511255405
H        2.6695422535    0.6028795728   -0.3748350557
H        1.8869923700   -1.8191545458   -0.4970755619
H       -0.4667647016   -2.3086689809   -0.4711324184
H       -2.1001368600   -0.4179486970   -0.6328202366
H       -1.2309233658    2.0061044289   -0.0012519090
C       -1.1852444486    0.3856253741    1.2272076913
H       -1.2805337850    1.2306206338    1.8826483829
13   
From optimize.out: Frame 57 / 100, Energy=    -286.8510096470
C        1.6166023535    0.3521961265   -0.2474171035
C        1.1819979004   -1.0132244042   -0.3519605112
C       -0.1217174998   -1.2872617757   -0.3091913152
C       -1.1713922013   -0.2202587862   -0.0594288536
C       -0.5583550675    1.1528065681   -0.0669574592
N        0.7968722070    1.3632644377   -0.1332441927
H        2.6731756175    0.5810452393   -0.3695879134
H        1.9054360383   -1.8082064229   -0.5123797300
H       -0.4639406360   -2.3038570052   -0.4779557865
H       -2.0985614601   -0.3888243220   -0.6000179853
H       -1.2078016349    2.0301567974   -0.0139734358
C       -1.2071529187    0.2989088613    1.3101443289
H       -1.3451626985    1.2432546857    1.8319699576
13   
From optimize.out: Frame 55 / 100, Energy=    -286.8500158436
C        1.6219736997    0.3485470573   -0.2431375732
C        1.1807199957   -1.0128514364   -0.3599794428
C       -0.1253339811   -1.2792003045   -0.3266835625
C       -1.1499752202   -0.1990493636   -0.0596235197
C       -0.5440604482    1.1654735846   -0.0818909054
N        0.8114966283    1.3767624611   -0.1241267284
H        2.6834914744    0.5646989527   -0.3522568638
H        1.9122554672   -1.7991594102   -0.5230480540
H       -0.4749009738   -2.2938322323   -0.4821249688
H       -2.0889021929   -0.3495390947   -0.5897179489
H       -1.1828322118    2.0506949399   -0.0614747632
C       -1.2546489658    0.2184396479    1.3761941374
H       -1.3892832713    1.2090151982    1.8278701934
13   
From optimize.out: Frame 54 / 100, Energy=    -286.8463436781
C        1.6326331656    0.3594124523   -0.2631157659
C        1.1841653473   -1.0099128866   -0.3869250319
C       -0.1199846647   -1.2811942724   -0.3122716580
C       -1.1386017260   -0.2026986195   -0.0527922088
C       -0.5301158249    1.1466526416   -0.0599594130
N        0.8207521353    1.3683644523   -0.1168054068
H        2.6939664821    0.5839899429   -0.3610712072
H        1.9001076355   -1.8088064843   -0.5624318013
H       -0.4738985852   -2.3043276442   -0.4114018257
H       -2.0772653684   -0.3241487744   -0.5999989983
H       -1.1822834680    2.0187075711   -0.0115518538
C       -1.2597351439    0.2187888982    1.3865020666
H       -1.4497399847    1.2351727230    1.7518231043
13   
From optimize.out: Frame 53 / 100, Energy=    -286.8403905903
C        1.6329259414    0.3563178948   -0.2709599765
C        1.1819091564   -1.0069025875   -0.3818828222
C       -0.1282673995   -1.2735272179   -0.3098458946
C       -1.1323185778   -0.1897008589   -0.0608837706
C       -0.5199186609    1.1567313763   -0.0669887511
N        0.8283246384    1.3717253869   -0.1174481372
H        2.6934298755    0.5782929959   -0.3789861654
H        1.9033414810   -1.8022984875   -0.5470123442
H       -0.4905096327   -2.2935857315   -0.3936508359
H       -2.0615851830   -0.3303192551   -0.6191014432
H       -1.1544436908    2.0356293122    0.0037404132
C       -1.2661960097    0.1928643052    1.3908528049
H       -1.4866919383    1.2047728673    1.7521669228
13   
From optimize.out: Frame 52 / 100, Energy=    -286.8393317678
C        1.6601314606    0.3657553491   -0.2769155024
C        1.1863751615   -0.9979119029   -0.3703621377
C       -0.1353995764   -1.2598564140   -0.3022903720
C       -1.1212696033   -0.1706476964   -0.0590359565
C       -0.4769114759    1.1641915260   -0.0968994176
N        0.8563462944    1.3820584545   -0.1407886369
H        2.7215704137    0.5859809755   -0.3822328863
H        1.8908146559   -1.8101054316   -0.5312902369
H       -0.5158807797   -2.2763446958   -0.3853108964
H       -2.0419048089   -0.2839482976   -0.6535790717
H       -1.1155549604    2.0348704560   -0.0096885614
C       -1.3351771105    0.1376808466    1.4092344017
H       -1.5731396709    1.1282768308    1.7991592741
13   
From optimize.out: Frame 49 / 100, Energy=    -286.8215736604
C        1.6826979335    0.3634245816   -0.2826486643
C        1.1916926774   -0.9944285737   -0.3673882290
C       -0.1384087444   -1.2486039918   -0.2975973930
C       -1.1075884586   -0.1473902496   -0.0514697393
C       -0.4385256867    1.1813062619   -0.1155662481
N        0.8838069229    1.3924722612   -0.1613470126
H        2.7465796301    0.5756584487   -0.3758575435
H        1.8884397514   -1.8131499764   -0.5299258252
H       -0.5345058709   -2.2599274624   -0.3778224040
H       -2.0162155243   -0.2417402273   -0.6746302591
H       -1.0731113492    2.0533494285   -0.0237874862
C       -1.4038590971    0.0905680949    1.4136955989