13   
From optimize.out: Frame 1 / 2, Energy=    -286.8405101568
C        1.3124298484   -0.0975946439    0.0436157441
C        0.4498855437   -1.2273034426    0.4519224280
C       -0.8926964123   -1.1033291819    0.4848436928
C       -1.5382567658    0.1827420806    0.2616387570
C       -0.8211695858    1.2682934622   -0.0838731046
N        0.5722795659    1.2083535336   -0.3343067327
H        2.2232983203    0.0643887170    0.6254488622
H        0.9378922942   -2.1508412213    0.7558459933
H       -1.5110716912   -1.9466871404    0.7809235959
H       -2.5984363969    0.2871612308    0.4746464774
H       -1.2414452168    2.2700125292   -0.1119807278
C        1.1871675708    0.4342154903   -1.3192912543
H        1.9201229259    0.8105885861   -2.0294337316
13   
From optimize.out: Frame 1 / 2, Energy=    -286.7239673413
C        1.6165358098    0.1621626623   -0.8019671012
C        0.1900972918   -1.5800551584    1.2913079302
C       -1.0175681914   -1.2118971903    0.8859353060
C       -1.4319523032    0.0344194211    0.2448077611
C       -0.6407607968    1.0435420595   -0.1756527944
N        0.7585240920    1.1218764387   -0.0028180518
H        1.9158151710   -0.8686096875   -0.7296598834
H        0.5925648229   -2.4447102664    1.8056986174
H       -1.8367081740   -1.9222110276    1.0651710455
H       -2.5034120517    0.1640875571    0.1147905441
H       -1.0955305966    1.9419087084   -0.5942551389
C        1.5853064808    1.3640648835   -1.2391224048
H        1.8670884455    2.1954215995   -1.8642358300
