13   
Frame   0 IRC: Energy =  -286.8625815208 ; +0.0000 kcal/mol
C       -0.0726970000   -0.0857930000    0.0000000000
C        0.0071340000    0.0400170000    0.0000000000
C       -0.2285150000   -0.0201630000    0.0000000000
C        0.0939170000    0.0865920000    0.0000000000
C       -0.2077300000   -0.1026040000   -0.0000000000
N       -0.1622430000    0.1273660000   -0.0000000000
H        0.1421060000    0.0041890000    0.0000000000
H        0.1304750000   -0.0015770000    0.0000000000
H        0.1266600000    0.0005560000    0.0000000000
H        0.1275040000    0.0027570000    0.0000000000
H        0.1347740000   -0.0012390000   -0.0000000000
C       -0.2325650000    0.9426950000   -0.0000000000
H        0.1411800000    0.0072030000   -0.0000000000
13   
Frame   1 IRC: Energy =  -286.8625811369 ; +0.0002 kcal/mol
C       -0.0725010000   -0.0855700000    0.0000000000
C        0.0071990000    0.0399900000    0.0000000000
C       -0.2288130000   -0.0201160000    0.0000000000
C        0.0937500000    0.0867660000    0.0000000000
C       -0.2073380000   -0.1026070000   -0.0000000000
N       -0.1621920000    0.1275800000   -0.0000000000
H        0.1420680000    0.0041100000    0.0000000000
H        0.1304430000   -0.0015850000    0.0000000000
H        0.1266570000    0.0005540000    0.0000000000
H        0.1275180000    0.0027650000    0.0000000000
H        0.1347720000   -0.0012340000   -0.0000000000
C       -0.2327100000    0.9420580000   -0.0000000000
H        0.1411480000    0.0072890000   -0.0000000000
13   
Frame   2 IRC: Energy =  -286.8625794887 ; +0.0013 kcal/mol
C       -0.0721320000   -0.0852100000    0.0000000000
C        0.0073120000    0.0398130000    0.0000000000
C       -0.2295270000   -0.0198210000    0.0000000000
C        0.0935390000    0.0868830000    0.0000000000
C       -0.2065640000   -0.1023560000   -0.0000000000
N       -0.1622020000    0.1277460000   -0.0000000000
H        0.1419410000    0.0039490000    0.0000000000
H        0.1303700000   -0.0015930000    0.0000000000
H        0.1266670000    0.0005470000    0.0000000000
H        0.1275460000    0.0027900000    0.0000000000
H        0.1347470000   -0.0012310000   -0.0000000000
C       -0.2328310000    0.9410280000   -0.0000000000
H        0.1411330000    0.0074540000   -0.0000000000
13   
Frame   3 IRC: Energy =  -286.8625772976 ; +0.0027 kcal/mol
C       -0.0719240000   -0.0849500000    0.0000000000
C        0.0075160000    0.0395730000    0.0000000000
C       -0.2302480000   -0.0195010000    0.0000000000
C        0.0935340000    0.0868430000    0.0000000000
C       -0.2060000000   -0.1020320000   -0.0000000000
N       -0.1622980000    0.1276640000   -0.0000000000
H        0.1418210000    0.0038480000    0.0000000000
H        0.1303210000   -0.0015950000    0.0000000000
H        0.1266790000    0.0005430000    0.0000000000
H        0.1275610000    0.0028070000    0.0000000000
H        0.1347100000   -0.0012300000   -0.0000000000
C       -0.2328230000    0.9404690000   -0.0000000000
H        0.1411490000    0.0075630000   -0.0000000000
13   
Frame   4 IRC: Energy =  -286.8625717123 ; +0.0062 kcal/mol
C       -0.0722280000   -0.0842390000    0.0000000000
C        0.0083970000    0.0389130000    0.0000000000
C       -0.2317910000   -0.0190250000    0.0000000000
C        0.0938640000    0.0866180000    0.0000000000
C       -0.2051610000   -0.1014010000   -0.0000000000
N       -0.1626260000    0.1271030000   -0.0000000000
H        0.1416200000    0.0037810000    0.0000000000
H        0.1302570000   -0.0015950000    0.0000000000
H        0.1267030000    0.0005500000    0.0000000000
H        0.1275620000    0.0028080000    0.0000000000
H        0.1346340000   -0.0012240000   -0.0000000000
C       -0.2324490000    0.9400480000   -0.0000000000
H        0.1412180000    0.0076640000   -0.0000000000
13   
Frame   5 IRC: Energy =  -286.8625665207 ; +0.0094 kcal/mol
C       -0.0727970000   -0.0836520000    0.0000000000
C        0.0095050000    0.0384080000    0.0000000000
C       -0.2330890000   -0.0188340000    0.0000000000
C        0.0941350000    0.0864670000    0.0000000000
C       -0.2046500000   -0.1010150000   -0.0000000000
N       -0.1628220000    0.1266490000   -0.0000000000
H        0.1415330000    0.0037880000    0.0000000000
H        0.1302190000   -0.0015930000    0.0000000000
H        0.1267150000    0.0005620000    0.0000000000
H        0.1275430000    0.0027940000    0.0000000000
H        0.1345990000   -0.0012170000   -0.0000000000
C       -0.2321360000    0.9399400000   -0.0000000000
H        0.1412440000    0.0077040000   -0.0000000000
13   
Frame   6 IRC: Energy =  -286.8625352860 ; +0.0290 kcal/mol
C       -0.0772930000   -0.0806520000    0.0000000000
C        0.0147120000    0.0364660000    0.0000000000
C       -0.2373920000   -0.0188910000    0.0000000000
C        0.0946470000    0.0861120000    0.0000000000
C       -0.2030330000   -0.0999210000   -0.0000000000
N       -0.1630000000    0.1254240000   -0.0000000000
H        0.1415710000    0.0038800000    0.0000000000
H        0.1299370000   -0.0015770000    0.0000000000
H        0.1267760000    0.0006190000    0.0000000000
H        0.1274670000    0.0027110000    0.0000000000
H        0.1345330000   -0.0011890000   -0.0000000000
C       -0.2301720000    0.9391550000   -0.0000000000
H        0.1412470000    0.0078640000   -0.0000000000
13   
Frame   7 IRC: Energy =  -286.8624530000 ; +0.0806 kcal/mol
C       -0.0809830000   -0.0773100000    0.0000000000
C        0.0223120000    0.0344130000    0.0000000000
C       -0.2434400000   -0.0189550000    0.0000000000
C        0.0945850000    0.0857250000    0.0000000000
C       -0.2014520000   -0.0987350000   -0.0000000000
N       -0.1632390000    0.1238450000   -0.0000000000
H        0.1417280000    0.0039380000    0.0000000000
H        0.1295440000   -0.0015360000    0.0000000000
H        0.1269950000    0.0006760000    0.0000000000
H        0.1273010000    0.0026540000    0.0000000000
H        0.1345250000   -0.0011800000   -0.0000000000
C       -0.2290400000    0.9384830000   -0.0000000000
H        0.1411650000    0.0079830000   -0.0000000000
13   
Frame   8 IRC: Energy =  -286.8624170000 ; +0.1032 kcal/mol
C       -0.0823250000   -0.0764360000    0.0000000000
C        0.0242780000    0.0334870000    0.0000000000
C       -0.2451190000   -0.0186560000    0.0000000000
C        0.0944370000    0.0851090000    0.0000000000
C       -0.2008860000   -0.0980740000   -0.0000000000
N       -0.1630020000    0.1232200000   -0.0000000000
H        0.1416120000    0.0039590000    0.0000000000
H        0.1294180000   -0.0015040000    0.0000000000
H        0.1270050000    0.0006830000    0.0000000000
H        0.1273030000    0.0026680000    0.0000000000
H        0.1346070000   -0.0011990000   -0.0000000000
C       -0.2284660000    0.9389140000   -0.0000000000
H        0.1411370000    0.0078280000   -0.0000000000
13   
Frame   9 IRC: Energy =  -286.8624080000 ; +0.1089 kcal/mol
C       -0.0826530000   -0.0763670000    0.0000000000
C        0.0245260000    0.0333740000    0.0000000000
C       -0.2450650000   -0.0186510000    0.0000000000
C        0.0944460000    0.0848960000    0.0000000000
C       -0.2009460000   -0.0978760000   -0.0000000000
N       -0.1632630000    0.1229680000   -0.0000000000
H        0.1416830000    0.0039850000    0.0000000000
H        0.1294000000   -0.0014990000    0.0000000000
H        0.1270510000    0.0006860000    0.0000000000
H        0.1272700000    0.0026560000    0.0000000000
H        0.1345510000   -0.0011940000   -0.0000000000
C       -0.2282130000    0.9390580000   -0.0000000000
H        0.1412140000    0.0079650000   -0.0000000000
13   
Frame  10 IRC: Energy =  -286.8623800000 ; +0.1265 kcal/mol
C       -0.0834810000   -0.0758640000    0.0000000000
C        0.0258810000    0.0328860000    0.0000000000
C       -0.2462480000   -0.0185340000    0.0000000000
C        0.0943860000    0.0846350000    0.0000000000
C       -0.2005930000   -0.0975750000   -0.0000000000
N       -0.1630350000    0.1225740000   -0.0000000000
H        0.1416120000    0.0040350000    0.0000000000
H        0.1293260000   -0.0014800000    0.0000000000
H        0.1270420000    0.0006930000    0.0000000000
H        0.1272750000    0.0026660000    0.0000000000
H        0.1346160000   -0.0012070000   -0.0000000000
C       -0.2279380000    0.9394370000   -0.0000000000
H        0.1411580000    0.0077330000   -0.0000000000
13   
Frame  11 IRC: Energy =  -286.8623700000 ; +0.1327 kcal/mol
C       -0.0839040000   -0.0758150000    0.0000000000
C        0.0264480000    0.0329300000    0.0000000000
C       -0.2462520000   -0.0186520000    0.0000000000
C        0.0942580000    0.0846930000    0.0000000000
C       -0.2005900000   -0.0976260000   -0.0000000000
N       -0.1632280000    0.1223920000   -0.0000000000
H        0.1417020000    0.0040820000    0.0000000000
H        0.1293120000   -0.0014800000    0.0000000000
H        0.1270660000    0.0006990000    0.0000000000
H        0.1272200000    0.0026460000    0.0000000000
H        0.1345500000   -0.0011970000   -0.0000000000
C       -0.2277750000    0.9395960000   -0.0000000000
H        0.1411930000    0.0077320000   -0.0000000000
13   
Frame  12 IRC: Energy =  -286.8623430000 ; +0.1497 kcal/mol
C       -0.0844870000   -0.0749440000    0.0000000000
C        0.0269660000    0.0319010000    0.0000000000
C       -0.2469530000   -0.0181240000    0.0000000000
C        0.0935450000    0.0836990000    0.0000000000
C       -0.1997810000   -0.0966380000   -0.0000000000
N       -0.1628750000    0.1220510000   -0.0000000000
H        0.1414280000    0.0039610000    0.0000000000
H        0.1292490000   -0.0014560000    0.0000000000
H        0.1271030000    0.0006920000    0.0000000000
H        0.1272790000    0.0026780000    0.0000000000
H        0.1347270000   -0.0012180000   -0.0000000000
C       -0.2274320000    0.9394370000   -0.0000000000
H        0.1412310000    0.0079610000   -0.0000000000
13   
Frame  13 IRC: Energy =  -286.8623170000 ; +0.1660 kcal/mol
C       -0.0843290000   -0.0744770000    0.0000000000
C        0.0269540000    0.0313240000    0.0000000000
C       -0.2478540000   -0.0177420000    0.0000000000
C        0.0934400000    0.0833450000    0.0000000000
C       -0.1992630000   -0.0962640000   -0.0000000000
N       -0.1621610000    0.1221620000   -0.0000000000
H        0.1411320000    0.0038620000    0.0000000000
H        0.1292100000   -0.0014420000    0.0000000000
H        0.1270420000    0.0006840000    0.0000000000
H        0.1273950000    0.0027270000    0.0000000000
H        0.1349320000   -0.0012460000   -0.0000000000
C       -0.2276050000    0.9392190000   -0.0000000000
H        0.1411060000    0.0078510000   -0.0000000000
13   
Frame  14 IRC: Energy =  -286.8620220000 ; +0.3511 kcal/mol
C       -0.0912580000   -0.0734400000    0.0000000000
C        0.0356000000    0.0284380000    0.0000000000
C       -0.2512820000   -0.0168200000    0.0000000000
C        0.0923020000    0.0793810000    0.0000000000
C       -0.1993540000   -0.0928710000   -0.0000000000
N       -0.1630460000    0.1175550000   -0.0000000000
H        0.1416650000    0.0046560000    0.0000000000
H        0.1287170000   -0.0012450000    0.0000000000
H        0.1273500000    0.0007140000    0.0000000000
H        0.1270460000    0.0027170000    0.0000000000
H        0.1346820000   -0.0013030000   -0.0000000000
C       -0.2238740000    0.9451020000   -0.0000000000
H        0.1414520000    0.0071150000   -0.0000000000
13   
Frame  15 IRC: Energy =  -286.8619980000 ; +0.3662 kcal/mol
C       -0.0914850000   -0.0735730000    0.0000000000
C        0.0358970000    0.0283760000    0.0000000000
C       -0.2508960000   -0.0168230000    0.0000000000
C        0.0921060000    0.0791380000    0.0000000000
C       -0.1995610000   -0.0926680000   -0.0000000000
N       -0.1632820000    0.1172640000   -0.0000000000
H        0.1417880000    0.0047430000    0.0000000000
H        0.1287050000   -0.0012340000    0.0000000000
H        0.1274040000    0.0007180000    0.0000000000
H        0.1269890000    0.0026980000    0.0000000000
H        0.1345820000   -0.0012980000   -0.0000000000
C       -0.2237680000    0.9453830000   -0.0000000000
H        0.1415210000    0.0072760000   -0.0000000000
13   
Frame  16 IRC: Energy =  -286.8615620000 ; +0.6398 kcal/mol
C       -0.0971950000   -0.0722920000    0.0000000000
C        0.0426870000    0.0245580000    0.0000000000
C       -0.2542720000   -0.0147800000    0.0000000000
C        0.0892370000    0.0737750000    0.0000000000
C       -0.1985200000   -0.0880160000   -0.0000000000
N       -0.1626130000    0.1129600000   -0.0000000000
H        0.1416120000    0.0052700000    0.0000000000
H        0.1282480000   -0.0010120000    0.0000000000
H        0.1276100000    0.0007100000    0.0000000000
H        0.1269520000    0.0028310000    0.0000000000
H        0.1348270000   -0.0014110000   -0.0000000000
C       -0.2202760000    0.9511040000   -0.0000000000
H        0.1417030000    0.0063020000   -0.0000000000
13   
Frame  17 IRC: Energy =  -286.8614970000 ; +0.6805 kcal/mol
C       -0.0962090000   -0.0719730000    0.0000000000
C        0.0422230000    0.0240630000    0.0000000000
C       -0.2547480000   -0.0143910000    0.0000000000
C        0.0894460000    0.0734840000    0.0000000000
C       -0.1983430000   -0.0877060000   -0.0000000000
N       -0.1623280000    0.1127220000   -0.0000000000
H        0.1411530000    0.0053430000    0.0000000000
H        0.1281130000   -0.0009930000    0.0000000000
H        0.1274530000    0.0007110000    0.0000000000
H        0.1270330000    0.0028850000    0.0000000000
H        0.1349580000   -0.0014310000   -0.0000000000
C       -0.2203160000    0.9515880000   -0.0000000000
H        0.1415650000    0.0056980000   -0.0000000000
13   
Frame  18 IRC: Energy =  -286.8609390000 ; +1.0307 kcal/mol
C       -0.1029150000   -0.0723590000    0.0000000000
C        0.0487940000    0.0211230000    0.0000000000
C       -0.2558850000   -0.0126090000    0.0000000000
C        0.0857020000    0.0675120000    0.0000000000
C       -0.1985300000   -0.0827500000   -0.0000000000
N       -0.1623940000    0.1078450000   -0.0000000000
H        0.1418810000    0.0060800000    0.0000000000
H        0.1278400000   -0.0007620000    0.0000000000
H        0.1279710000    0.0006990000    0.0000000000
H        0.1268480000    0.0029680000    0.0000000000
H        0.1348220000   -0.0015190000   -0.0000000000
C       -0.2162250000    0.9583050000   -0.0000000000
H        0.1420890000    0.0054650000   -0.0000000000
13   
Frame  19 IRC: Energy =  -286.8608520000 ; +1.0853 kcal/mol
C       -0.1029000000   -0.0721590000   -0.0000000000
C        0.0495950000    0.0204900000    0.0000000000
C       -0.2560590000   -0.0120990000    0.0000000000
C        0.0846160000    0.0666540000    0.0000000000
C       -0.1982180000   -0.0818900000   -0.0000000000
N       -0.1619880000    0.1073880000   -0.0000000000
H        0.1416030000    0.0061670000    0.0000000000
H        0.1277350000   -0.0007310000    0.0000000000
H        0.1278770000    0.0006960000    0.0000000000
H        0.1268630000    0.0029980000    0.0000000000
H        0.1349140000   -0.0015400000   -0.0000000000
C       -0.2160250000    0.9590860000   -0.0000000000
H        0.1419880000    0.0049410000   -0.0000000000
13   
Frame  20 IRC: Energy =  -286.8605240000 ; +1.2911 kcal/mol
C       -0.1058270000   -0.0726750000   -0.0000000000
C        0.0518750000    0.0193640000    0.0000000000
C       -0.2562960000   -0.0113560000    0.0000000000
C        0.0832170000    0.0638490000    0.0000000000
C       -0.1985950000   -0.0796350000   -0.0000000000
N       -0.1622640000    0.1049240000   -0.0000000000
H        0.1420560000    0.0065590000    0.0000000000
H        0.1276350000   -0.0006260000    0.0000000000
H        0.1281710000    0.0006910000    0.0000000000
H        0.1268000000    0.0030440000    0.0000000000
H        0.1348080000   -0.0015740000   -0.0000000000
C       -0.2139130000    0.9624750000   -0.0000000000
H        0.1423310000    0.0049600000   -0.0000000000
13   
Frame  21 IRC: Energy =  -286.8603850000 ; +1.3783 kcal/mol
C       -0.1055580000   -0.0724490000   -0.0000000000
C        0.0525600000    0.0184210000    0.0000000000
C       -0.2567310000   -0.0105660000    0.0000000000
C        0.0821140000    0.0626030000    0.0000000000
C       -0.1982040000   -0.0784230000   -0.0000000000
N       -0.1615840000    0.1042450000   -0.0000000000
H        0.1416270000    0.0066840000    0.0000000000
H        0.1274920000   -0.0005780000    0.0000000000
H        0.1280600000    0.0006870000    0.0000000000
H        0.1268590000    0.0031080000    0.0000000000
H        0.1349480000   -0.0016090000   -0.0000000000
C       -0.2137700000    0.9635270000   -0.0000000000
H        0.1421870000    0.0043500000   -0.0000000000
13   
Frame  22 IRC: Energy =  -286.8595310000 ; +1.9142 kcal/mol
C       -0.1097900000   -0.0741340000   -0.0000000000
C        0.0563000000    0.0163150000    0.0000000000
C       -0.2566220000   -0.0086090000    0.0000000000
C        0.0775040000    0.0566120000    0.0000000000
C       -0.1986200000   -0.0733330000   -0.0000000000
N       -0.1614900000    0.0991540000   -0.0000000000
H        0.1422910000    0.0076660000    0.0000000000
H        0.1272350000   -0.0003620000    0.0000000000
H        0.1285270000    0.0006780000    0.0000000000
H        0.1268370000    0.0032470000    0.0000000000
H        0.1348440000   -0.0016950000   -0.0000000000
C       -0.2097610000    0.9710540000   -0.0000000000
H        0.1427450000    0.0034080000   -0.0000000000
13   
Frame  23 IRC: Energy =  -286.8593880000 ; +2.0040 kcal/mol
C       -0.1111860000   -0.0745950000   -0.0000000000
C        0.0575770000    0.0163310000    0.0000000000
C       -0.2564980000   -0.0085950000    0.0000000000
C        0.0756390000    0.0559060000    0.0000000000
C       -0.1984130000   -0.0729280000   -0.0000000000
N       -0.1610610000    0.0989210000   -0.0000000000
H        0.1428580000    0.0076570000    0.0000000000
H        0.1273410000   -0.0003460000    0.0000000000
H        0.1287250000    0.0006670000    0.0000000000
H        0.1267880000    0.0031920000    0.0000000000
H        0.1347970000   -0.0017010000   -0.0000000000
C       -0.2095100000    0.9715490000   -0.0000000000
H        0.1429430000    0.0039420000   -0.0000000000
13   
Frame  24 IRC: Energy =  -286.8585610000 ; +2.5229 kcal/mol
C       -0.1114550000   -0.0760310000   -0.0000000000
C        0.0585450000    0.0144820000    0.0000000000
C       -0.2561040000   -0.0063100000    0.0000000000
C        0.0722890000    0.0509740000    0.0000000000
C       -0.1984980000   -0.0681470000   -0.0000000000
N       -0.1606550000    0.0945490000   -0.0000000000
H        0.1422870000    0.0086770000    0.0000000000
H        0.1268860000   -0.0001750000    0.0000000000
H        0.1287050000    0.0006790000    0.0000000000
H        0.1268850000    0.0034280000    0.0000000000
H        0.1348550000   -0.0017870000   -0.0000000000
C       -0.2067800000    0.9779350000   -0.0000000000
H        0.1430410000    0.0017260000   -0.0000000000
13   
Frame  25 IRC: Energy =  -286.8582520000 ; +2.7168 kcal/mol
C       -0.1126490000   -0.0769930000   -0.0000000000
C        0.0592940000    0.0143520000    0.0000000000
C       -0.2560480000   -0.0059480000    0.0000000000
C        0.0701730000    0.0496650000    0.0000000000
C       -0.1983840000   -0.0672110000   -0.0000000000
N       -0.1602750000    0.0934900000   -0.0000000000
H        0.1429050000    0.0088730000    0.0000000000
H        0.1269440000   -0.0001320000    0.0000000000
H        0.1289840000    0.0006700000    0.0000000000
H        0.1269130000    0.0034260000    0.0000000000
H        0.1348240000   -0.0018050000   -0.0000000000
C       -0.2060330000    0.9797530000   -0.0000000000
H        0.1433510000    0.0018600000   -0.0000000000
13   
Frame  26 IRC: Energy =  -286.8570720000 ; +3.4573 kcal/mol
C       -0.1124820000   -0.0799840000   -0.0000000000
C        0.0593410000    0.0137560000    0.0000000000
C       -0.2549160000   -0.0038430000    0.0000000000
C        0.0649640000    0.0451550000    0.0000000000
C       -0.1978750000   -0.0626360000   -0.0000000000
N       -0.1592660000    0.0891550000   -0.0000000000
H        0.1428370000    0.0100500000    0.0000000000
H        0.1265880000    0.0000040000    0.0000000000
H        0.1290790000    0.0006960000    0.0000000000
H        0.1269430000    0.0036150000    0.0000000000
H        0.1348080000   -0.0018770000   -0.0000000000
C       -0.2037280000    0.9864750000   -0.0000000000
H        0.1437060000   -0.0005650000   -0.0000000000
13   
Frame  27 IRC: Energy =  -286.8567200000 ; +3.6782 kcal/mol
C       -0.1128710000   -0.0812270000   -0.0000000000
C        0.0595150000    0.0138590000    0.0000000000
C       -0.2546610000   -0.0034790000    0.0000000000
C        0.0625710000    0.0442330000    0.0000000000
C       -0.1976230000   -0.0620550000   -0.0000000000
N       -0.1586910000    0.0884410000   -0.0000000000
H        0.1435230000    0.0102630000    0.0000000000
H        0.1266790000    0.0000350000    0.0000000000
H        0.1293650000    0.0006890000    0.0000000000
H        0.1269510000    0.0036070000    0.0000000000
H        0.1347730000   -0.0018930000   -0.0000000000
C       -0.2036200000    0.9879830000   -0.0000000000
H        0.1440890000   -0.0004560000   -0.0000000000
13   
Frame  28 IRC: Energy =  -286.8553800000 ; +4.5190 kcal/mol
C       -0.1126280000   -0.0847840000   -0.0000000000
C        0.0575730000    0.0144250000    0.0000000000
C       -0.2523030000   -0.0018120000    0.0000000000
C        0.0576660000    0.0410190000    0.0000000000
C       -0.1965450000   -0.0582550000   -0.0000000000
N       -0.1576040000    0.0845030000   -0.0000000000
H        0.1435670000    0.0114390000    0.0000000000
H        0.1263410000    0.0001000000    0.0000000000
H        0.1294030000    0.0007460000    0.0000000000
H        0.1268250000    0.0037720000    0.0000000000
H        0.1346920000   -0.0019410000   -0.0000000000
C       -0.2015560000    0.9947130000   -0.0000000000
H        0.1445700000   -0.0039250000   -0.0000000000
13   
Frame  29 IRC: Energy =  -286.8548860000 ; +4.8290 kcal/mol
C       -0.1122320000   -0.0867150000   -0.0000000000
C        0.0566300000    0.0146450000    0.0000000000
C       -0.2517710000   -0.0011750000    0.0000000000
C        0.0552630000    0.0403950000    0.0000000000
C       -0.1962290000   -0.0578210000   -0.0000000000
N       -0.1559850000    0.0839910000   -0.0000000000
H        0.1441240000    0.0118710000    0.0000000000
H        0.1264570000    0.0001340000    0.0000000000
H        0.1296740000    0.0007550000    0.0000000000
H        0.1268350000    0.0037970000    0.0000000000
H        0.1346560000   -0.0019640000   -0.0000000000
C       -0.2024910000    0.9962500000   -0.0000000000
H        0.1450710000   -0.0041620000   -0.0000000000
13   
Frame  30 IRC: Energy =  -286.8532480000 ; +5.8569 kcal/mol
C       -0.1150150000   -0.0900020000   -0.0000000000
C        0.0532210000    0.0159330000    0.0000000000
C       -0.2475140000    0.0001410000    0.0000000000
C        0.0498930000    0.0381810000    0.0000000000
C       -0.1940180000   -0.0547280000   -0.0000000000
N       -0.1544120000    0.0802210000   -0.0000000000
H        0.1446460000    0.0129210000    0.0000000000
H        0.1262930000    0.0001400000    0.0000000000
H        0.1298590000    0.0008390000    0.0000000000
H        0.1264560000    0.0039350000    0.0000000000
H        0.1345110000   -0.0019840000   -0.0000000000
C       -0.1998540000    1.0037060000   -0.0000000000
H        0.1459340000   -0.0093040000   -0.0000000000
13   
Frame  31 IRC: Energy =  -286.8524560000 ; +6.3539 kcal/mol
C       -0.1160660000   -0.0924940000   -0.0000000000
C        0.0515350000    0.0163830000    0.0000000000
C       -0.2461440000    0.0010040000    0.0000000000
C        0.0471840000    0.0378710000    0.0000000000
C       -0.1934010000   -0.0543930000   -0.0000000000
N       -0.1515830000    0.0796770000   -0.0000000000
H        0.1452260000    0.0136050000    0.0000000000
H        0.1264870000    0.0001690000    0.0000000000
H        0.1301780000    0.0008820000    0.0000000000
H        0.1264310000    0.0040050000    0.0000000000
H        0.1344160000   -0.0020130000   -0.0000000000
C       -0.2011560000    1.0059560000   -0.0000000000
H        0.1468940000   -0.0106510000   -0.0000000000
13   
Frame  32 IRC: Energy =  -286.8505130000 ; +7.5731 kcal/mol
C       -0.1239440000   -0.0933920000   -0.0000000000
C        0.0481900000    0.0169780000    0.0000000000
C       -0.2405690000    0.0023690000    0.0000000000
C        0.0421780000    0.0352270000    0.0000000000
C       -0.1906440000   -0.0506410000   -0.0000000000
N       -0.1490080000    0.0767420000   -0.0000000000
H        0.1458020000    0.0140870000    0.0000000000
H        0.1265820000    0.0001450000    0.0000000000
H        0.1303960000    0.0009600000    0.0000000000
H        0.1257700000    0.0041280000    0.0000000000
H        0.1343270000   -0.0020360000   -0.0000000000
C       -0.1968600000    1.0122500000   -0.0000000000
H        0.1477780000   -0.0168150000   -0.0000000000
13   
Frame  33 IRC: Energy =  -286.8475750000 ; +9.4167 kcal/mol
C       -0.1397410000   -0.0944530000   -0.0000000000
C        0.0451870000    0.0180290000    0.0000000000
C       -0.2348900000    0.0036650000    0.0000000000
C        0.0369950000    0.0342740000    0.0000000000
C       -0.1883380000   -0.0484450000   -0.0000000000
N       -0.1418010000    0.0748710000   -0.0000000000
H        0.1470540000    0.0148430000    0.0000000000
H        0.1274840000    0.0000940000    0.0000000000
H        0.1312900000    0.0011760000    0.0000000000
H        0.1252990000    0.0044080000    0.0000000000
H        0.1340410000   -0.0020710000   -0.0000000000
C       -0.1932830000    1.0176430000   -0.0000000000
H        0.1507040000   -0.0240350000   -0.0000000000
13   
Frame  34 IRC: Energy =  -286.8437300000 ; +11.8295 kcal/mol
C       -0.1595800000   -0.0913200000   -0.0000000000
C        0.0424990000    0.0163290000    0.0000000000
C       -0.2290310000    0.0059910000    0.0000000000
C        0.0331480000    0.0306190000    0.0000000000
C       -0.1881890000   -0.0427260000   -0.0000000000
N       -0.1341100000    0.0739530000   -0.0000000000
H        0.1479800000    0.0144780000    0.0000000000
H        0.1288470000    0.0001120000    0.0000000000
H        0.1321530000    0.0013120000    0.0000000000
H        0.1244970000    0.0046300000    0.0000000000
H        0.1338810000   -0.0021350000   -0.0000000000
C       -0.1847410000    1.0196350000   -0.0000000000
H        0.1526460000   -0.0308780000   -0.0000000000
13   
Frame  35 IRC: Energy =  -286.8389410000 ; +14.8347 kcal/mol
C       -0.1826180000   -0.0875340000   -0.0000000000
C        0.0401050000    0.0153420000    0.0000000000
C       -0.2238800000    0.0077140000    0.0000000000
C        0.0312790000    0.0275260000    0.0000000000
C       -0.1904690000   -0.0368320000   -0.0000000000
N       -0.1259330000    0.0730480000   -0.0000000000
H        0.1493090000    0.0138510000    0.0000000000
H        0.1304360000    0.0000860000    0.0000000000
H        0.1331680000    0.0015220000    0.0000000000
H        0.1237970000    0.0048610000    0.0000000000
H        0.1337440000   -0.0021640000   -0.0000000000
C       -0.1746200000    1.0193590000   -0.0000000000
H        0.1556810000   -0.0367780000   -0.0000000000
13   
Frame  36 IRC: Energy =  -286.8331600000 ; +18.4623 kcal/mol
C       -0.1969830000   -0.0828950000   -0.0000000000
C        0.0329020000    0.0133290000    0.0000000000
C       -0.2196330000    0.0094860000    0.0000000000
C        0.0307360000    0.0243070000    0.0000000000
C       -0.1953980000   -0.0306530000   -0.0000000000
N       -0.1192400000    0.0736390000   -0.0000000000
H        0.1501190000    0.0130560000    0.0000000000
H        0.1322140000    0.0002070000    0.0000000000
H        0.1342190000    0.0017200000    0.0000000000
H        0.1231860000    0.0050410000    0.0000000000
H        0.1336320000   -0.0021920000   -0.0000000000
C       -0.1633990000    1.0149000000   -0.0000000000
H        0.1576460000   -0.0399460000   -0.0000000000
13   
Frame  37 IRC: Energy =  -286.8261710000 ; +22.8480 kcal/mol
C       -0.2040970000   -0.0789220000   -0.0000000000
C        0.0210310000    0.0130500000    0.0000000000
C       -0.2161330000    0.0105950000    0.0000000000
C        0.0318930000    0.0217160000    0.0000000000
C       -0.2018680000   -0.0248750000   -0.0000000000
N       -0.1142780000    0.0751800000   -0.0000000000
H        0.1504820000    0.0124640000    0.0000000000
H        0.1336850000    0.0004380000    0.0000000000
H        0.1350470000    0.0020030000    0.0000000000
H        0.1226950000    0.0052150000    0.0000000000
H        0.1334770000   -0.0021930000   -0.0000000000
C       -0.1509010000    1.0068750000   -0.0000000000
H        0.1589650000   -0.0415450000   -0.0000000000
13   
Frame  38 IRC: Energy =  -286.8179400000 ; +28.0130 kcal/mol
C       -0.2055190000   -0.0766120000   -0.0000000000
C        0.0047960000    0.0167210000    0.0000000000
C       -0.2124620000    0.0104980000    0.0000000000
C        0.0339820000    0.0197120000    0.0000000000
C       -0.2089870000   -0.0195700000   -0.0000000000
N       -0.1108360000    0.0779050000   -0.0000000000
H        0.1505280000    0.0121430000    0.0000000000
H        0.1346110000    0.0008090000    0.0000000000
H        0.1354920000    0.0024870000    0.0000000000
H        0.1223000000    0.0053850000    0.0000000000
H        0.1332720000   -0.0021560000   -0.0000000000
C       -0.1368650000    0.9946780000   -0.0000000000
H        0.1596890000   -0.0420010000   -0.0000000000
13   