13   
Frame   0 IRC: Energy =  -286.8625815208 ; +0.0000 kcal/mol
C        1.3165483078   -0.1088114222    0.0324810691
C        0.4480150241   -1.2268466465    0.4587209889
C       -0.8962136219   -1.0932364106    0.5003881265
C       -1.5345316723    0.1958923192    0.2711084259
C       -0.8126120847    1.2778829784   -0.0836735276
N        0.5783437721    1.2040270635   -0.3496592469
H        2.2363881049    0.0488452630    0.5995266632
H        0.9304809464   -2.1475349714    0.7778218605
H       -1.5154733997   -1.9295170571    0.8115451186
H       -2.5920635030    0.3095591578    0.4897950467
H       -1.2248209825    2.2821570916   -0.1074921216
C        1.1763251941    0.4170699307   -1.3306386024
H        1.8896139147    0.7705127035   -2.0699238004
13   
Frame   1 IRC: Energy =  -286.8625811369 ; +0.0002 kcal/mol
C        1.3166144245   -0.1084625258    0.0329052034
C        0.4480026287   -1.2268268154    0.4584071709
C       -0.8961778994   -1.0931341054    0.5006611126
C       -1.5345601930    0.1960627187    0.2717629096
C       -0.8127938824    1.2778462433   -0.0838654673
N        0.5781529089    1.2032018668   -0.3500268046
H        2.2360160798    0.0493361706    0.6005509396
H        0.9303236102   -2.1479383280    0.7765543149
H       -1.5153778975   -1.9295631265    0.8115809685
H       -2.5920559863    0.3097216658    0.4906525502
H       -1.2247395943    2.2821677141   -0.1084003748
C        1.1767085631    0.4168479320   -1.3307742376
H        1.8898872380    0.7707405897   -2.0700082854
13   
Frame   2 IRC: Energy =  -286.8625794887 ; +0.0013 kcal/mol
C        1.3163081029   -0.1071276454    0.0341726005
C        0.4478877412   -1.2268554082    0.4580027383
C       -0.8960905542   -1.0929665149    0.5017674896
C       -1.5344720356    0.1966016246    0.2736488498
C       -0.8130374376    1.2776753805   -0.0841920185
N        0.5782819540    1.2016071745   -0.3500488939
H        2.2349565978    0.0509058488    0.6028960136
H        0.9303488493   -2.1491188242    0.7725866690
H       -1.5154745027   -1.9298443531    0.8111691270
H       -2.5919206661    0.3102923897    0.4927953072
H       -1.2247783912    2.2819420980   -0.1113970308
C        1.1776068335    0.4162379112   -1.3309917946
H        1.8903835087    0.7706503183   -2.0704090573
13   
Frame   3 IRC: Energy =  -286.8625772976 ; +0.0027 kcal/mol
C        1.3156564724   -0.1059479247    0.0350028353
C        0.4477057298   -1.2270986302    0.4576610733
C       -0.8960335642   -1.0929159686    0.5029316025
C       -1.5343512184    0.1970922790    0.2754172139
C       -0.8131960448    1.2774413826   -0.0845737030
N        0.5785412092    1.2005659539   -0.3496101755
H        2.2337890225    0.0523001697    0.6045832135
H        0.9305555977   -2.1502964395    0.7688274364
H       -1.5156779409   -1.9300934702    0.8109730708
H       -2.5916912368    0.3109393149    0.4949936261
H       -1.2250324081    2.2815757870   -0.1146154391
C        1.1784645028    0.4159093017   -1.3311800769
H        1.8912698789    0.7705282445   -2.0704106774
13   
Frame   4 IRC: Energy =  -286.8625717123 ; +0.0062 kcal/mol
C        1.3140209284   -0.1048113348    0.0348470780
C        0.4471812366   -1.2281385711    0.4569994238
C       -0.8960337104   -1.0929090937    0.5058600992
C       -1.5342664607    0.1978358064    0.2786439503
C       -0.8133946133    1.2767958286   -0.0851737671
N        0.5790248326    1.1994937516   -0.3478060269
H        2.2316150386    0.0535062282    0.6057965259
H        0.9308937172   -2.1527387086    0.7623873773
H       -1.5161290089   -1.9301684179    0.8125523746
H       -2.5914599043    0.3121389209    0.4985069775
H       -1.2260814166    2.2804629786   -0.1218830134
C        1.1802296290    0.4166220171   -1.3316968812
H        1.8943997318    0.7719105948   -2.0690341182
13   
Frame   5 IRC: Energy =  -286.8625665207 ; +0.0094 kcal/mol
C        1.3130281838   -0.1049389122    0.0339282026
C        0.4467624663   -1.2292113393    0.4561417062
C       -0.8960645330   -1.0929459127    0.5080088610
C       -1.5343250023    0.1981656975    0.2804132861
C       -0.8136193142    1.2762683033   -0.0858718198
N        0.5791835684    1.1990597679   -0.3463379506
H        2.2303900777    0.0529407532    0.6057645589
H        0.9308895366   -2.1545061684    0.7587136070
H       -1.5161614362   -1.9297922509    0.8155673871
H       -2.5914461205    0.3129277783    0.5001402638
H       -1.2269539526    2.2796075997   -0.1271664910
C        1.1814203699    0.4179414824   -1.3320210986
H        1.8968961561    0.7744832012   -2.0672805128
13   
Frame   6 IRC: Energy =  -286.8625352860 ; +0.0290 kcal/mol
C        1.3121428055   -0.1097842388    0.0279736060
C        0.4447091652   -1.2333886820    0.4516168870
C       -0.8964516460   -1.0925868668    0.5168356046
C       -1.5345170777    0.1984141481    0.2855918711
C       -0.8134884417    1.2740645644   -0.0869896875
N        0.5803135172    1.1979541252   -0.3409500743
H        2.2284853748    0.0433786275    0.6027956410
H        0.9279554034   -2.1605788491    0.7498411364
H       -1.5156576763   -1.9257951198    0.8363076355
H       -2.5931609538    0.3132268013    0.4972027180
H       -1.2298446274    2.2751241436   -0.1464327382
C        1.1853255694    0.4263381269   -1.3333475277
H        1.9041885873    0.7936332195   -2.0604450719
13   
Frame   7 IRC: Energy =  -286.8624530000 ; +0.0806 kcal/mol
C        1.3119694528   -0.1145495960    0.0234120940
C        0.4424106691   -1.2374415355    0.4456769749
C       -0.8971199586   -1.0915408250    0.5271288991
C       -1.5356008044    0.1978705261    0.2874565652
C       -0.8144879479    1.2716108158   -0.0906103098
N        0.5807017716    1.1973114823   -0.3358250282
H        2.2297515807    0.0306261252    0.5973835351
H        0.9243981453   -2.1664409193    0.7399994345
H       -1.5153640427   -1.9204542343    0.8619983309
H       -2.5953664247    0.3126871406    0.4924802436
H       -1.2329779245    2.2700093838   -0.1636366103
C        1.1897120450    0.4357031978   -1.3330491327
H        1.9119734382    0.8146084386   -2.0524149962
13   
Frame   8 IRC: Energy =  -286.8624170000 ; +0.1032 kcal/mol
C        1.3116935797   -0.1154468335    0.0215740211
C        0.4415605872   -1.2387759692    0.4446263549
C       -0.8976533995   -1.0915229757    0.5302387614
C       -1.5355679212    0.1974461591    0.2880830823
C       -0.8142915077    1.2705775630   -0.0907404289
N        0.5820839609    1.1969101088   -0.3330166425
H        2.2303857077    0.0264735274    0.5953862571
H        0.9236566925   -2.1682740119    0.7379956523
H       -1.5149077879   -1.9185368396    0.8690276118
H       -2.5962193208    0.3123377979    0.4894515917
H       -1.2337501344    2.2690433425   -0.1691674542
C        1.1906479517    0.4392634004   -1.3332068871
H        1.9123615919    0.8205047308   -2.0502519200
13   
Frame   9 IRC: Energy =  -286.8624080000 ; +0.1089 kcal/mol
C        1.3116579191   -0.1159582329    0.0215414326
C        0.4417197707   -1.2389756415    0.4443125148
C       -0.8973183932   -1.0914378539    0.5307634987
C       -1.5356137160    0.1978242252    0.2881132600
C       -0.8142978155    1.2706835335   -0.0908866115
N        0.5818985306    1.1971476063   -0.3320874617
H        2.2304349312    0.0256291675    0.5949474005
H        0.9234060886   -2.1685141939    0.7375706519
H       -1.5151219076   -1.9185163321    0.8705893954
H       -2.5963827866    0.3122443818    0.4888457255
H       -1.2337373996    2.2684296574   -0.1702232255
C        1.1904777728    0.4395279820   -1.3332180820
H        1.9128770053    0.8219157006   -2.0502684986
13   
Frame  10 IRC: Energy =  -286.8623800000 ; +0.1265 kcal/mol
C        1.3114991733   -0.1167902167    0.0201320909
C        0.4410704258   -1.2399219663    0.4436671349
C       -0.8978209693   -1.0913000956    0.5329068882
C       -1.5356116371    0.1974094629    0.2885832152
C       -0.8141420484    1.2699578062   -0.0908320349
N        0.5828105607    1.1969671487   -0.3304063683
H        2.2308371431    0.0228578315    0.5934510576
H        0.9229783749   -2.1696467243    0.7362930183
H       -1.5146632390   -1.9170963000    0.8751656407
H       -2.5969483636    0.3119737918    0.4866261240
H       -1.2342102897    2.2677864727   -0.1738869225
C        1.1913427645    0.4420162936   -1.3328942095
H        1.9128581048    0.8257864953   -2.0488056347
13   
Frame  11 IRC: Energy =  -286.8623700000 ; +0.1327 kcal/mol
C        1.3114815096   -0.1176073961    0.0200115862
C        0.4408675385   -1.2401578238    0.4434051178
C       -0.8974953189   -1.0910459645    0.5335190412
C       -1.5357287980    0.1976031746    0.2886566449
C       -0.8140406414    1.2700977549   -0.0908020335
N        0.5824231515    1.1972248175   -0.3297313437
H        2.2308579617    0.0220067852    0.5928399857
H        0.9228093504   -2.1698525318    0.7358248263
H       -1.5147143247   -1.9169316293    0.8767328096
H       -2.5969773239    0.3118497362    0.4858756752
H       -1.2341389490    2.2670795159   -0.1750432393
C        1.1914772405    0.4425291978   -1.3325447566
H        1.9131786038    0.8272043636   -2.0487443138
13   
Frame  12 IRC: Energy =  -286.8623430000 ; +0.1497 kcal/mol
C        1.3112767293   -0.1167396708    0.0191887438
C        0.4408001198   -1.2408783442    0.4431921462
C       -0.8976626095   -1.0916815821    0.5348471897
C       -1.5358439818    0.1972592281    0.2888658270
C       -0.8142346521    1.2698489845   -0.0908605520
N        0.5838948538    1.1961694629   -0.3275119313
H        2.2317521664    0.0193949484    0.5920921705
H        0.9225092776   -2.1713917978    0.7351213495
H       -1.5147797391   -1.9161159200    0.8806278091
H       -2.5978253057    0.3118411431    0.4841458507
H       -1.2350823325    2.2675213757   -0.1778583612
C        1.1914820468    0.4444906735   -1.3337904835
H        1.9137134269    0.8302814986   -2.0480597586
13   
Frame  13 IRC: Energy =  -286.8623170000 ; +0.1660 kcal/mol
C        1.3112062171   -0.1154681344    0.0183894506
C        0.4405314467   -1.2412825739    0.4433553250
C       -0.8985889603   -1.0921584422    0.5352898812
C       -1.5356901667    0.1964516503    0.2890459060
C       -0.8142918666    1.2691143505   -0.0907681375
N        0.5854252984    1.1951806165   -0.3274005760
H        2.2321881443    0.0186879579    0.5921004432
H        0.9225518756   -2.1720420369    0.7350584199
H       -1.5143502529   -1.9153323322    0.8813343369
H       -2.5982444266    0.3119128092    0.4837597843
H       -1.2357475173    2.2686233940   -0.1785828673
C        1.1918223936    0.4456774785   -1.3344148918
H        1.9131878145    0.8306352626   -2.0471670745
13   
Frame  14 IRC: Energy =  -286.8620220000 ; +0.3511 kcal/mol
C        1.3106316777   -0.1247864284    0.0120155228
C        0.4378372807   -1.2469212491    0.4389526455
C       -0.8977618103   -1.0900103485    0.5500377817
C       -1.5354956245    0.1968902905    0.2902222682
C       -0.8117339066    1.2667297890   -0.0901697435
N        0.5895335923    1.1984626313   -0.3087695125
H        2.2360392706   -0.0023155541    0.5794396454
H        0.9183954338   -2.1786462257    0.7269028861
H       -1.5131561293   -1.9076850362    0.9148554382
H       -2.6013763708    0.3084581904    0.4628382071
H       -1.2355242621    2.2592959295   -0.2052429848
C        1.1925275119    0.4606739262   -1.3296660920
H        1.9100833366    0.8598540850   -2.0414160623
13   
Frame  15 IRC: Energy =  -286.8619980000 ; +0.3662 kcal/mol
C        1.3106629711   -0.1255727602    0.0119399127
C        0.4376939141   -1.2471192726    0.4387041270
C       -0.8968878370   -1.0896669264    0.5504865166
C       -1.5357069230    0.1972847409    0.2902238060
C       -0.8116055984    1.2670965115   -0.0902719991
N        0.5891643884    1.1989280680   -0.3077193201
H        2.2360913183   -0.0032043002    0.5788161909
H        0.9181342892   -2.1787658725    0.7265003977
H       -1.5134776957   -1.9078138678    0.9165050289
H       -2.6013899509    0.3082829091    0.4619177856
H       -1.2352800715    2.2583358198   -0.2063380404
C        1.1921018298    0.4607769056   -1.3290202548
H        1.9104993655    0.8614380449   -2.0417441510
13   
Frame  16 IRC: Energy =  -286.8615620000 ; +0.6398 kcal/mol
C        1.3099200630   -0.1304006591    0.0059045155
C        0.4349087201   -1.2526757632    0.4364057668
C       -0.8975378166   -1.0890244960    0.5645922030
C       -1.5350579627    0.1962294591    0.2916403193
C       -0.8090036378    1.2641875572   -0.0885134269
N        0.5966267563    1.1996707161   -0.2882453966
H        2.2413604099   -0.0236041645    0.5673285339
H        0.9148348560   -2.1864454111    0.7195232568
H       -1.5115492804   -1.8997122973    0.9461490946
H       -2.6048202125    0.3050779290    0.4403674760
H       -1.2352980702    2.2523069847   -0.2328088943
C        1.1922837886    0.4770597381   -1.3257470706
H        1.9033323862    0.8873304069   -2.0365963776
13   
Frame  17 IRC: Energy =  -286.8614970000 ; +0.6805 kcal/mol
C        1.3090020177   -0.1294757591    0.0039114310
C        0.4341285994   -1.2541811520    0.4369923156
C       -0.8983223152   -1.0900236475    0.5658325249
C       -1.5343992451    0.1958172456    0.2916923899
C       -0.8090527490    1.2636703131   -0.0881636947
N        0.5978682024    1.1991411216   -0.2874686471
H        2.2426846968   -0.0247472835    0.5672678944
H        0.9144625459   -2.1864997475    0.7189876621
H       -1.5105513395   -1.8981744903    0.9473644093
H       -2.6054964707    0.3049660355    0.4391500487
H       -1.2355247632    2.2525170517   -0.2344161630
C        1.1935486678    0.4788448053   -1.3261044775
H        1.9016521527    0.8881455070   -2.0350456938
13   
Frame  18 IRC: Energy =  -286.8609390000 ; +1.0307 kcal/mol
C        1.3092361732   -0.1367908971    0.0009972814
C        0.4325733951   -1.2581519172    0.4339393201
C       -0.8970104503   -1.0874860340    0.5792949582
C       -1.5340922548    0.1962556819    0.2927919863
C       -0.8054193450    1.2614565322   -0.0865570628
N        0.6038952314    1.2016318985   -0.2655425654
H        2.2458320305   -0.0444514123    0.5551997560
H        0.9108400332   -2.1942036546    0.7121201436
H       -1.5101547592   -1.8921052630    0.9770010576
H       -2.6071468557    0.3011202219    0.4164216657
H       -1.2323784885    2.2436465905   -0.2621758086
C        1.1905687180    0.4932568496   -1.3200725110
H        1.8932565721    0.9158214036   -2.0334182209
13   
Frame  19 IRC: Energy =  -286.8608520000 ; +1.0853 kcal/mol
C        1.3088265326   -0.1363773496   -0.0006478945
C        0.4308875084   -1.2593060974    0.4342228205
C       -0.8969147014   -1.0879310814    0.5810824061
C       -1.5341640303    0.1951731372    0.2932152681
C       -0.8047420402    1.2614149824   -0.0863296279
N        0.6054517756    1.2012365505   -0.2634599092
H        2.2469160058   -0.0466911486    0.5542289255
H        0.9104856605   -2.1950795678    0.7113076118
H       -1.5093758654   -1.8905048666    0.9799226610
H       -2.6075135389    0.3007606414    0.4138093702
H       -1.2322468105    2.2431722078   -0.2654377243
C        1.1914114494    0.4958916073   -1.3199714309
H        1.8909780544    0.9182409849   -2.0319424764
13   
Frame  20 IRC: Energy =  -286.8605240000 ; +1.2911 kcal/mol
C        1.3088259239   -0.1402085152   -0.0014510082
C        0.4311241285   -1.2611020513    0.4327247925
C       -0.8964528542   -1.0865612137    0.5873812358
C       -1.5335938997    0.1961594522    0.2934983732
C       -0.8031713238    1.2600576458   -0.0855986563
N        0.6079472432    1.2026087326   -0.2525155148
H        2.2481138052   -0.0558769388    0.5486955273
H        0.9085610240   -2.1985675297    0.7080344701
H       -1.5093326272   -1.8878519302    0.9937613168
H       -2.6080843247    0.2988757787    0.4029696995
H       -1.2301543254    2.2385103569   -0.2787299846
C        1.1894347195    0.5023046065   -1.3167518700
H        1.8867825107    0.9316516063   -2.0320183813
13   
Frame  21 IRC: Energy =  -286.8603850000 ; +1.3783 kcal/mol
C        1.3080895934   -0.1394299357   -0.0036586553
C        0.4292680694   -1.2628023894    0.4330610261
C       -0.8965933536   -1.0871393810    0.5900427063
C       -1.5333408408    0.1951540286    0.2939991868
C       -0.8024363107    1.2595670817   -0.0852929033
N        0.6104157696    1.2018280413   -0.2491561384
H        2.2496263989   -0.0592542386    0.5473282781
H        0.9079366924   -2.1998890705    0.7068361776
H       -1.5082342748   -1.8855743631    0.9980780836
H       -2.6085747751    0.2982969773    0.3990245951
H       -1.2297674721    2.2376759469   -0.2836736027
C        1.1901743851    0.5061084273   -1.3163288659
H        1.8834361182    0.9354588751   -2.0302598879
13   
Frame  22 IRC: Energy =  -286.8595310000 ; +1.9142 kcal/mol
C        1.3080540948   -0.1464142644   -0.0065349391
C        0.4277799289   -1.2678488291    0.4305253993
C       -0.8957746537   -1.0851969823    0.6034771434
C       -1.5318735509    0.1957679876    0.2947015947
C       -0.7979678242    1.2566557092   -0.0834799211
N        0.6172773571    1.2035620905   -0.2257967016
H        2.2522216419   -0.0779392337    0.5381234914
H        0.9035831211   -2.2077651351    0.7001100497
H       -1.5071822249   -1.8786616199    1.0264353198
H       -2.6092806158    0.2942648111    0.3759136466
H       -1.2232975868    2.2278739924   -0.3138798009
C        1.1878448306    0.5211041294   -1.3090608957
H        1.8686154820    0.9645973442   -2.0305343865
13   
Frame  23 IRC: Energy =  -286.8593880000 ; +2.0040 kcal/mol
C        1.3094696449   -0.1480649038   -0.0051674245
C        0.4277825982   -1.2664988980    0.4293844162
C       -0.8953808724   -1.0837376973    0.6042222122
C       -1.5323934408    0.1949126247    0.2951155418
C       -0.7959398348    1.2564360399   -0.0836941020
N        0.6168200266    1.2040839410   -0.2234629638
H        2.2511025292   -0.0796766174    0.5365522954
H        0.9036679191   -2.2094338457    0.6997819836
H       -1.5078356602   -1.8788772156    1.0294364061
H       -2.6090952415    0.2938708295    0.3738206122
H       -1.2228774120    2.2273127294   -0.3167063256
C        1.1860841411    0.5216322183   -1.3073322378
H        1.8685956027    0.9680407952   -2.0319504138
13   
Frame  24 IRC: Energy =  -286.8585610000 ; +2.5229 kcal/mol
C        1.3070659930   -0.1506585518   -0.0107866870
C        0.4244777895   -1.2741977784    0.4289306533
C       -0.8946341272   -1.0844970473    0.6159131251
C       -1.5302548991    0.1953595924    0.2952669805
C       -0.7935838113    1.2538529567   -0.0826877075
N        0.6254913058    1.2031708884   -0.2040007448
H        2.2549204975   -0.0952096350    0.5323909463
H        0.8987579089   -2.2152129063    0.6941421955
H       -1.5049198730   -1.8703801993    1.0520234882
H       -2.6091162435    0.2905574716    0.3548900433
H       -1.2156665526    2.2181543339   -0.3429660584
C        1.1876039849    0.5368049088   -1.3027290426
H        1.8498580270    0.9922559663   -2.0303871919
13   
Frame  25 IRC: Energy =  -286.8582520000 ; +2.7168 kcal/mol
C        1.3083187406   -0.1533727483   -0.0101232966
C        0.4247326799   -1.2740847387    0.4272899387
C       -0.8947637198   -1.0830171607    0.6190003928
C       -1.5296573825    0.1951345556    0.2953988367
C       -0.7910779549    1.2524094251   -0.0825921219
N        0.6264845577    1.2035886255   -0.1976130702
H        2.2540965527   -0.1000300181    0.5302530244
H        0.8977418433   -2.2182682173    0.6928066248
H       -1.5050821193   -1.8689144171    1.0596956423
H       -2.6090033509    0.2894672433    0.3490816399
H       -1.2135456183    2.2157290262   -0.3513718960
C        1.1859714390    0.5401448986   -1.2996291457
H        1.8457843325    1.0012135260   -2.0321965691
13   
Frame  26 IRC: Energy =  -286.8570720000 ; +3.4573 kcal/mol
C        1.3078489602   -0.1575833402   -0.0143569796
C        0.4216645274   -1.2821598372    0.4251776332
C       -0.8933230711   -1.0826535741    0.6301161280
C       -1.5271282549    0.1948004704    0.2946619412
C       -0.7865453596    1.2489642103   -0.0834269675
N        0.6354319944    1.2019637352   -0.1765488868
H        2.2559873832   -0.1165554791    0.5292948950
H        0.8906996726   -2.2264360669    0.6884420475
H       -1.5029372987   -1.8586977551    1.0849009296
H       -2.6071682570    0.2858822417    0.3303709047
H       -1.2049296202    2.2042232298   -0.3807013620
C        1.1888593266    0.5565592217   -1.2930336964
H        1.8215399971    1.0316929436   -2.0348965870
13   
Frame  27 IRC: Energy =  -286.8567200000 ; +3.6782 kcal/mol
C        1.3094180458   -0.1602674754   -0.0135187286
C        0.4219414533   -1.2816166308    0.4232097410
C       -0.8934745802   -1.0813689606    0.6324940189
C       -1.5261833414    0.1944076248    0.2944786978
C       -0.7838083398    1.2475419525   -0.0838372037
N        0.6360559985    1.2021563056   -0.1711631689
H        2.2547284122   -0.1206171506    0.5283332396
H        0.8893904478   -2.2297864383    0.6878400422
H       -1.5032314766   -1.8569291146    1.0916230879
H       -2.6067831745    0.2849488924    0.3258730757
H       -1.2029853146    2.2016901717   -0.3881131626
C        1.1877538241    0.5591186399   -1.2893564124
H        1.8171780454    1.0407221834   -2.0378632271
13   
Frame  28 IRC: Energy =  -286.8553800000 ; +4.5190 kcal/mol
C        1.3104884098   -0.1641103182   -0.0175476591
C        0.4189531824   -1.2908677381    0.4210494212
C       -0.8917334829   -1.0813421864    0.6416116366
C       -1.5228366090    0.1931606771    0.2924302799
C       -0.7790140383    1.2432448435   -0.0871029103
N        0.6452052894    1.2003005885   -0.1528958587
H        2.2562934807   -0.1344536527    0.5312359184
H        0.8788873599   -2.2390053649    0.6865262241
H       -1.5031560219   -1.8449855374    1.1144797674
H       -2.6030169523    0.2816653882    0.3119681210
H       -1.1971750717    2.1886762869   -0.4135231915
C        1.1962612004    0.5770451969   -1.2841433773
H        1.7908432535    1.0706718165   -2.0440883717
13   
Frame  29 IRC: Energy =  -286.8548860000 ; +4.8290 kcal/mol
C        1.3119895584   -0.1665667145   -0.0176002936
C        0.4190942217   -1.2912798443    0.4189856408
C       -0.8914039147   -1.0801687998    0.6439148849
C       -1.5213978171    0.1926510271    0.2916890589
C       -0.7761003374    1.2413228231   -0.0884156719
N        0.6468983302    1.2001287030   -0.1477060326
H        2.2554236862   -0.1385294416    0.5315908474
H        0.8757999308   -2.2432133088    0.6867254399
H       -1.5042646990   -1.8421097663    1.1219993465
H       -2.6019412695    0.2806138078    0.3079872093
H       -1.1957478717    2.1847278364   -0.4212042954
C        1.1966884651    0.5804476817   -1.2785769967
H        1.7849617170    1.0819759963   -2.0493891375
13   
Frame  30 IRC: Energy =  -286.8532480000 ; +5.8569 kcal/mol
C        1.3152078027   -0.1705461220   -0.0212322513
C        0.4160793594   -1.3008798027    0.4173191454
C       -0.8907647873   -1.0809010482    0.6525427365
C       -1.5168530893    0.1898051900    0.2891653027
C       -0.7706514545    1.2356001932   -0.0946159439
N        0.6553024129    1.1991308530   -0.1325696245
H        2.2569437379   -0.1477385200    0.5346098999
H        0.8610775692   -2.2552059912    0.6893841999
H       -1.5085823896   -1.8292944803    1.1419965356
H       -2.5966318785    0.2775145446    0.2989970591
H       -1.1951562654    2.1707648849   -0.4407388709
C        1.2142863765    0.6017285651   -1.2738466060
H        1.7597426060    1.1100217335   -2.0610115826
13   
Frame  31 IRC: Energy =  -286.8524560000 ; +6.3539 kcal/mol
C        1.3167481723   -0.1734058325   -0.0221040036
C        0.4158234233   -1.3026034954    0.4156557662
C       -0.8895414501   -1.0801895072    0.6551768137
C       -1.5147023003    0.1889903619    0.2880379586
C       -0.7676342254    1.2326786676   -0.0973510032
N        0.6578689134    1.1992575959   -0.1278025886
H        2.2566440616   -0.1506695262    0.5350149941
H        0.8549768160   -2.2609207730    0.6910429646
H       -1.5121118879   -1.8254785664    1.1502876951
H       -2.5947116617    0.2763380295    0.2959048112
H       -1.1954577128    2.1652040167   -0.4477171722
C        1.2192763561    0.6073292216   -1.2659664093
H        1.7528214956    1.1234698077   -2.0701798266
13   
Frame  32 IRC: Energy =  -286.8505130000 ; +7.5731 kcal/mol
C        1.3204451128   -0.1756528116   -0.0263161099
C        0.4128068443   -1.3123930601    0.4159750882
C       -0.8916010461   -1.0818409904    0.6637178083
C       -1.5103565873    0.1845595548    0.2867075143
C       -0.7624018732    1.2277438077   -0.1049626304
N        0.6642026003    1.1984376479   -0.1178012280
H        2.2586889922   -0.1538412718    0.5350609045
H        0.8391990045   -2.2741012440    0.6964064600
H       -1.5195927840   -1.8143180047    1.1648908316
H       -2.5885444106    0.2736297458    0.2910313769
H       -1.1991037405    2.1527454986   -0.4594765421
C        1.2434869731    0.6307320773   -1.2632092831
H        1.7327709145    1.1442990504   -2.0820241902
13   
Frame  33 IRC: Energy =  -286.8475750000 ; +9.4167 kcal/mol
C        1.3240344654   -0.1799550005   -0.0311909046
C        0.4103897618   -1.3220152964    0.4176704166
C       -0.8910766805   -1.0852765587    0.6726026582
C       -1.5027911533    0.1811280950    0.2853647194
C       -0.7578038075    1.2194165953   -0.1126162488
N        0.6696552545    1.2000961066   -0.1114645213
H        2.2611767024   -0.1525203385    0.5303919344
H        0.8182552963   -2.2931745227    0.7052011643
H       -1.5355144211   -1.8051716441    1.1817486894
H       -2.5815082304    0.2710947013    0.2866171152
H       -1.2059472796    2.1399387124   -0.4695446309
C        1.2734726294    0.6555105712   -1.2500644590
H        1.7176574627    1.1709285791   -2.1047159330
13   
Frame  34 IRC: Energy =  -286.8437300000 ; +11.8295 kcal/mol
C        1.3295371662   -0.1781593566   -0.0380874198
C        0.4064107677   -1.3368400187    0.4229339578
C       -0.8953721395   -1.0915887917    0.6830289050
C       -1.4965432932    0.1749710605    0.2855174050
C       -0.7530388054    1.2146322263   -0.1199799156
N        0.6739647361    1.2044157950   -0.1103216292
H        2.2676764738   -0.1482952013    0.5246704725
H        0.7972089009   -2.3179108174    0.7169751632
H       -1.5540058045   -1.7972569886    1.1970981490
H       -2.5735593788    0.2685510909    0.2828917238
H       -1.2137060507    2.1276036865   -0.4767862501
C        1.3060351050    0.6874344255   -1.2450129233
H        1.7053923224    1.1924428897   -2.1229276384
13   
Frame  35 IRC: Energy =  -286.8389410000 ; +14.8347 kcal/mol
C        1.3344329472   -0.1775293459   -0.0448943423
C        0.4029806803   -1.3510492273    0.4288264696
C       -0.8979388768   -1.0985597699    0.6932206162
C       -1.4887886324    0.1695237947    0.2856268933
C       -0.7490054532    1.2084278063   -0.1267167752
N        0.6783216765    1.2086222379   -0.1094991185
H        2.2736088786   -0.1423555950    0.5170184347
H        0.7744883059   -2.3426478818    0.7291508345
H       -1.5745074035   -1.7897854059    1.2124607357
H       -2.5653660608    0.2661827275    0.2793405860
H       -1.2226308395    2.1158073552   -0.4833011338
C        1.3386575678    0.7179383407   -1.2379883770
H        1.6957472099    1.2154249634   -2.1432448232
13   
Frame  36 IRC: Energy =  -286.8331600000 ; +18.4623 kcal/mol
C        1.3442100758   -0.1676344906   -0.0533646935
C        0.3964432175   -1.3710604168    0.4374264852
C       -0.9036866234   -1.1082458490    0.7030395570
C       -1.4825601578    0.1635586003    0.2862058695
C       -0.7463441860    1.2049920916   -0.1314093573
N        0.6814914344    1.2193984160   -0.1136687680
H        2.2845082854   -0.1358413890    0.5116602489
H        0.7552805464   -2.3733963986    0.7441540786
H       -1.5970038096   -1.7860695546    1.2265326728
H       -2.5585739772    0.2641797809    0.2762586743
H       -1.2306787531    2.1068840136   -0.4876513240
C        1.3632806511    0.7492907370   -1.2372545878
H        1.6936332963    1.2339444592   -2.1619288557
13   
Frame  37 IRC: Energy =  -286.8261710000 ; +22.8480 kcal/mol
C        1.3577323997   -0.1510899739   -0.0637214777
C        0.3872632782   -1.3947037799    0.4473501338
C       -0.9113326345   -1.1182852699    0.7124948855
C       -1.4769080550    0.1581455995    0.2864787576
C       -0.7446276052    1.2020517486   -0.1350034807
N        0.6839928759    1.2328829422   -0.1192433234
H        2.2967832844   -0.1308043078    0.5082171463
H        0.7389256227   -2.4054338456    0.7597272170
H       -1.6184358340   -1.7836634077    1.2394245721
H       -2.5529055253    0.2622519393    0.2734910870
H       -1.2377868847    2.0995286145   -0.4912726378
C        1.3832894941    0.7794233346   -1.2390342339
H        1.6940095837    1.2496964062   -2.1789086456
13   
Frame  38 IRC: Energy =  -286.8179400000 ; +28.0130 kcal/mol
C        1.3753696220   -0.1276647417   -0.0761060364
C        0.3748462536   -1.4218091836    0.4588085685
C       -0.9197512164   -1.1280338123    0.7212386876
C       -1.4721350776    0.1530388915    0.2864917681
C       -0.7435451169    1.1997685637   -0.1379039634
N        0.6857158583    1.2479067946   -0.1254592635
H        2.3088735311   -0.1281678336    0.5062504725
H        0.7254310778   -2.4369389376    0.7750389786
H       -1.6378162290   -1.7820207145    1.2508856905
H       -2.5482149768    0.2604049056    0.2710728863
H       -1.2438443355    2.0934563622   -0.4942622656
C        1.3993145440    0.8074041414   -1.2423720111
H        1.6957560655    1.2626555643   -2.1936835120
13   