
Running Job 1 of 1 irc_reactant.in
qchem irc_reactant.in_41800.0 ./irc_reactant.d/ 1
/home/leeping/opt/qchem/5.0.2-openmp/exe/qcprog.exe_s irc_reactant.in_41800.0 ./irc_reactant.d/
Check license passed

                  Welcome to Q-Chem
     A Quantum Leap Into The Future Of Chemistry


 Q-Chem 5.0, Q-Chem, Inc., Pleasanton, CA (2017)

 Yihan Shao,  Zhengting Gan,  E. Epifanovsky,  A. T. B. Gilbert,  M. Wormit,  
 J. Kussmann,  A. W. Lange,  A. Behn,  Jia Deng,  Xintian Feng,  D. Ghosh,  
 M. Goldey,  P. R. Horn,  L. D. Jacobson,  I. Kaliman,  T. Kus,  A. Landau,  
 Jie Liu,  E. I. Proynov,  R. M. Richard,  R. P. Steele,  E. J. Sundstrom,  
 H. L. Woodcock III,  P. M. Zimmerman,  D. Zuev,  B. Albrecht,  E. Alguire,  
 S. A. Baeppler,  D. Barton,  Z. Benda,  Y. A. Bernard,  E. J. Berquist,  
 K. B. Bravaya,  H. Burton,  D. Casanova,  Chun-Min Chang,  Yunqing Chen,  
 A. Chien,  K. D. Closser,  M. P. Coons,  S. Dasgupta,  A. L. Dempwolff,  
 M. Diedenhofen,  Hainam Do,  R. G. Edgar,  Po-Tung Fang,  S. Fatehi,  
 Qingguo Feng,  J. Fosso-Tande,  Qinghui Ge,  A. Ghysels,  G. Gidofalvi,  
 J. Gomes,  J. Gonthier,  A. Gunina,  M. W. D. Hanson-Heine,  
 P. H. P. Harbach,  A. W. Hauser,  J. E. Herr,  E. G. Hohenstein,  
 Z. C. Holden,  Kerwin Hui,  T.-C. Jagau,  Hyunjun Ji,  B. Kaduk,  
 K. Khistyaev,  Jaehoon Kim,  P. Klunzinger,  K. Koh,  D. Kosenkov,  
 L. Koulias,  T. Kowalczyk,  C. M. Krauter,  A. Kunitsa,  Ka Un Lao,  
 A. Laurent,  K. V. Lawler,  Joonho Lee,  D. Lefrancois,  S. Lehtola,  
 D. S. Levine,  Yi-Pei Li,  You-Sheng Lin,  Fenglai Liu,  E. Livshits,  
 A. Luenser,  P. Manohar,  E. Mansoor,  S. F. Manzer,  Shan-Ping Mao,  
 Yuezhi Mao,  N. Mardirossian,  A. V. Marenich,  T. Markovich,  
 L. A. Martinez-Martinez,  S. A. Maurer,  N. J. Mayhall,  S. C. McKenzie,  
 J.-M. Mewes,  A. F. Morrison,  J. W. Mullinax,  K. Nanda,  
 T. S. Nguyen-Beck,  R. Olivares-Amaya,  J. A. Parkhill,  T. M. Perrine,  
 F. Plasser,  S. Prager,  A. Prociuk,  E. Ramos,  D. R. Rehn,  F. Rob,  
 M. Schneider,  N. Sergueev,  S. M. Sharada,  S. Sharma,  D. W. Small,  
 T. Stauch,  T. Stein,  Yu-Chuan Su,  A. J. W. Thom,  A. Tkatchenko,  
 T. Tsuchimochi,  L. Vogt,  O. Vydrov,  M. A. Watson,  J. Wenzel,  
 M. de Wergifosse,  T. A. Wesolowski,  A. White,  J. Witte,  A. Yamada,  
 Jun Yang,  K. Yao,  S. Yeganeh,  S. R. Yost,  Zhi-Qiang You,  A. Zech,  
 Igor Ying Zhang,  Xing Zhang,  Yan Zhao,  Ying Zhu,  B. R. Brooks,  
 G. K. L. Chan,  C. J. Cramer,  M. S. Gordon,  W. J. Hehre,  A. Klamt,  
 M. W. Schmidt,  C. D. Sherrill,  D. G. Truhlar,  A. Aspuru-Guzik,  R. Baer,  
 A. T. Bell,  N. A. Besley,  Jeng-Da Chai,  R. A. DiStasio Jr.,  A. Dreuw,  
 B. D. Dunietz,  T. R. Furlani,  Chao-Ping Hsu,  Yousung Jung,  Jing Kong,  
 D. S. Lambrecht,  WanZhen Liang,  C. Ochsenfeld,  V. A. Rassolov,  
 L. V. Slipchenko,  J. E. Subotnik,  T. Van Voorhis,  J. M. Herbert,  
 A. I. Krylov,  P. M. W. Gill,  M. Head-Gordon

 Contributors to earlier versions of Q-Chem not listed above: 
 R. D. Adamson,  B. Austin,  J. Baker,  G. J. O. Beran,  K. Brandhorst,  
 S. T. Brown,  E. F. C. Byrd,  A. K. Chakraborty,  C.-L. Cheng,  
 Siu Hung Chien,  D. M. Chipman,  D. L. Crittenden,  H. Dachsel,  
 R. J. Doerksen,  A. D. Dutoi,  L. Fusti-Molnar,  W. A. Goddard III,  
 A. Golubeva-Zadorozhnaya,  S. R. Gwaltney,  G. Hawkins,  A. Heyden,  
 S. Hirata,  G. Kedziora,  F. J. Keil,  C. Kelley,  Jihan Kim,  R. A. King,  
 R. Z. Khaliullin,  P. P. Korambath,  W. Kurlancheek,  A. M. Lee,  M. S. Lee,  
 S. V. Levchenko,  Ching Yeh Lin,  D. Liotard,  R. C. Lochan,  I. Lotan,  
 P. E. Maslen,  N. Nair,  D. P. O'Neill,  D. Neuhauser,  E. Neuscamman,  
 C. M. Oana,  R. Olson,  B. Peters,  R. Peverati,  P. A. Pieniazek,  
 Y. M. Rhee,  J. Ritchie,  M. A. Rohrdanz,  E. Rosta,  N. J. Russ,  
 H. F. Schaefer III,  N. E. Schultz,  N. Shenvi,  A. C. Simmonett,  A. Sodt,  
 D. Stuck,  K. S. Thanthiriwatte,  V. Vanovschi,  Tao Wang,  A. Warshel,  
 C. F. Williams,  Q. Wu,  X. Xu,  W. Zhang

 Please cite Q-Chem as follows:
 Y. Shao et al., Mol. Phys. 113, 184-215 (2015)
 DOI: 10.1080/00268976.2014.952696

 Q-Chem 5.0.2 for Intel X86 EM64T Linux

 Parts of Q-Chem use Armadillo 5.200.1 (Boston Tea Smuggler).
 http://arma.sourceforge.net/

 Q-Chem begins on Thu Mar  3 03:48:48 2022  

Host: 
0

     Scratch files written to ./irc_reactant.d//
 Dec517 15110_ 26548  26544 5633   
Processing $rem in /home/leeping/opt/qchem/5.0.2-openmp/config/preferences.
 MEM_STATIC 2000
 MEM_TOTAL  8000
 SYMMETRY   OFF
 SYM_IGNORE TRUE 

Checking the input file for inconsistencies... 	...done.

--------------------------------------------------------------
User input:
--------------------------------------------------------------
$molecule
0 2
C        1.3165483078   -0.1088114222    0.0324810691
C        0.4480150241   -1.2268466465    0.4587209889
C       -0.8962136219   -1.0932364106    0.5003881265
C       -1.5345316723    0.1958923192    0.2711084259
C       -0.8126120847    1.2778829784   -0.0836735276
N        0.5783437721    1.2040270635   -0.3496592469
H        2.2363881049    0.0488452630    0.5995266632
H        0.9304809464   -2.1475349714    0.7778218605
H       -1.5154733997   -1.9295170571    0.8115451186
H       -2.5920635030    0.3095591578    0.4897950467
H       -1.2248209825    2.2821570916   -0.1074921216
C        1.1763251941    0.4170699307   -1.3306386024
H        1.8896139147    0.7705127035   -2.0699238004
$end

$rem
method                b3lyp
basis                 6-31+g(d,p)
unrestricted          true
symmetry              off
sym_ignore            true
incdft                false
incfock               0
scf_convergence       8
thresh                14
jobtype               sp
scf_guess             core
scf_guess_mix         5
scf_algorithm         diis
max_scf_cycles        100
$end

--------------------------------------------------------------
 ----------------------------------------------------------------
             Standard Nuclear Orientation (Angstroms)
    I     Atom           X                Y                Z
 ----------------------------------------------------------------
    1      C       1.3165483078    -0.1088114222     0.0324810691
    2      C       0.4480150241    -1.2268466465     0.4587209889
    3      C      -0.8962136219    -1.0932364106     0.5003881265
    4      C      -1.5345316723     0.1958923192     0.2711084259
    5      C      -0.8126120847     1.2778829784    -0.0836735276
    6      N       0.5783437721     1.2040270635    -0.3496592469
    7      H       2.2363881049     0.0488452630     0.5995266632
    8      H       0.9304809464    -2.1475349714     0.7778218605
    9      H      -1.5154733997    -1.9295170571     0.8115451186
   10      H      -2.5920635030     0.3095591578     0.4897950467
   11      H      -1.2248209825     2.2821570916    -0.1074921216
   12      C       1.1763251941     0.4170699307    -1.3306386024
   13      H       1.8896139147     0.7705127035    -2.0699238004
 ----------------------------------------------------------------
 Nuclear Repulsion Energy =   269.9166567064 hartrees
 There are       25 alpha and       24 beta electrons
 Requested basis set is 6-31+G(d,p)
 There are 53 shells and 163 basis functions

 Total QAlloc Memory Limit   8000 MB
 Mega-Array Size      1956 MB
 MEM_STATIC part      2000 MB

                       Distance Matrix (Angstroms)
             C (  1)   C (  2)   C (  3)   C (  4)   C (  5)   N (  6)
   C (  2)  1.478524
   C (  3)  2.466646  1.351495
   C (  4)  2.877229  2.447422  1.456665
   C (  5)  2.543568  2.856054  2.443425  1.348237
   N (  6)  1.553873  2.565075  2.859077  2.421968  1.418084
   H (  7)  1.092017  2.201248  3.335772  3.788049  3.357633  2.232602
   H (  8)  2.204762  1.087320  2.127282  3.438706  3.938786  3.553615
   H (  9)  3.455757  2.115069  1.086125  2.193126  3.403358  3.943547
   H ( 10)  3.957451  3.406404  2.200876  1.085872  2.105461  3.399447
   H ( 11)  3.492117  3.928369  3.445400  2.142839  1.085841  2.114808
   C ( 12)  1.467756  2.536672  3.151048  3.156463  2.500358  1.392553
   H ( 13)  2.349834  3.530113  4.223849  4.187528  3.391849  2.206054
             H (  7)   H (  8)   H (  9)   H ( 10)   H ( 11)   C ( 12)
   H (  8)  2.561497
   H (  9)  4.246803  2.455883
   H ( 10)  4.836730  4.304485  2.505201
   H ( 11)  4.179417  5.005125  4.320568  2.473307
   C ( 12)  2.232680  3.329151  4.164277  4.186441  3.277215
   H ( 13)  2.786938  4.188627  5.214177  5.181705  3.979436  1.086391

 
 A cutoff of  1.0D-14 yielded   1373 shell pairs
 There are     13425 function pairs
 
 -------------------------------------------------------
 OpenMP Integral Computing Module                       
 Release: version 1.0, May 2013, Q-Chem Inc. Pittsburgh 
 -------------------------------------------------------
 Integral Job Info:
 Integral job number is                      11
 Integral operator is                         1
 short-range coefficients                     0
 long-range coefficients              100000000
 Omega coefficients                           0
 if combine SR and LR in K                    0
 Integral screening is                        0
 Integral computing path is                   2
 max size of driver memory is            800000
 size of driver memory is                593474
 size of scratch memory is              2361544
 max col of scratch BK array               1296
 max len of scratch array in speh3          155
 max len of scratch index in speh4           18
 max int batch size is                      520
 min int batch size is                       52
 fixed nKL is                                52
 max L of basis functions is                  2
 order of int derivative is                   0
 number of shells is                         53
 number of basis is                         163
 number of cartesian basis is               163
 number of contracted shell pairs          1373
 number of primitive shell pairs           4635
 maxK2 (contraction) of shell pair           36
 max number of K2 of shell pair               1
 max number of CS2 of shell pair            130
 max number of PS2 of shell pair            678
 mem total for path MDJ                  535308
 -------------------------------------------------------
 Smallest overlap matrix eigenvalue = 1.86E-05

 Scale SEOQF with 1.000000e-01/1.000000e-01/1.000000e-01

 Standard Electronic Orientation quadrupole field applied
 Nucleus-field energy     =     0.0000000038 hartrees
 Guess MOs from core Hamiltonian diagonalization
 Mixing HOMO and LUMO in initial guess
 Adding  50% of the LUMO to the HOMO
 An unrestricted hybrid HF-DFT SCF calculation will be
 performed using Pulay DIIS extrapolation
 Exchange:     0.2000 Hartree-Fock + 0.0800 Slater + 0.7200 B88
 Correlation:  0.1900 VWN1RPA + 0.8100 LYP
 Using SG-1 standard quadrature grid
 SCF converges when DIIS error is below 1.0E-08
 using 4 threads for integral computing
 -------------------------------------------------------
 OpenMP Integral computing Module                
 Release: version 1.0, May 2013, Q-Chem Inc. Pittsburgh 
 -------------------------------------------------------
 -------------------------------------------------------
 OpenMP BLAS3 based DFT computing Module                
 Release: version 1.0, May 2013, Q-Chem Inc. Pittsburgh 
 -------------------------------------------------------
 ---------------------------------------
  Cycle       Energy         DIIS Error
 ---------------------------------------
    1    -236.2037627724      9.72E-02
    2    -214.5962362453      7.25E-02
    3    -247.9992634923      8.04E-02
    4    -280.7261365398      3.65E-02
    5    -279.5017400844      3.96E-02
    6    -285.5401057315      1.60E-02
    7    -285.9640908364      1.45E-02
    8    -286.7824471250      4.65E-03
    9    -286.8323524030      2.97E-03
   10    -286.8611822171      5.94E-04
   11    -286.8622557544      2.30E-04
   12    -286.8624896819      1.15E-04
   13    -286.8625602716      4.35E-05
   14    -286.8625725037      2.00E-05
   15    -286.8625792939      4.80E-06
   16    -286.8625804664      1.84E-06
   17    -286.8625809367      8.94E-07
   18    -286.8625812563      3.02E-07
   19    -286.8625814144      1.21E-07
   20    -286.8625814700      7.37E-08
   21    -286.8625815091      3.94E-08
   22    -286.8625815204      7.29E-09 Convergence criterion met
 ---------------------------------------
 <S^2> = 0.7535
 SCF time:  CPU 110.65 s  wall 39.83 s
 SCF   energy in the final basis set = -286.86258152
 Total energy in the final basis set = -286.86258152
 
 --------------------------------------------------------------
 
                    Orbital Energies (a.u.)
 --------------------------------------------------------------
 
 Alpha MOs
 -- Occupied --
-14.372 -10.241 -10.234 -10.231 -10.207 -10.204 -10.200  -0.995
 -0.818  -0.784  -0.672  -0.648  -0.579  -0.529  -0.503  -0.487
 -0.461  -0.433  -0.400  -0.377  -0.365  -0.319  -0.288  -0.234
 -0.198
 -- Virtual --
 -0.046   0.007   0.019   0.023   0.036   0.038   0.046   0.049
  0.071   0.072   0.077   0.086   0.095   0.113   0.117   0.122
  0.133   0.138   0.144   0.146   0.157   0.178   0.184   0.187
  0.196   0.199   0.207   0.211   0.217   0.236   0.242   0.255
  0.269   0.279   0.281   0.303   0.307   0.320   0.340   0.350
  0.356   0.385   0.488   0.512   0.602   0.617   0.656   0.675
  0.688   0.713   0.728   0.738   0.748   0.761   0.777   0.782
  0.794   0.866   0.898   0.911   0.932   0.946   0.947   0.976
  0.999   1.021   1.038   1.053   1.095   1.119   1.135   1.157
  1.196   1.217   1.238   1.296   1.357   1.367   1.415   1.428
  1.522   1.559   1.582   1.678   1.689   1.749   1.825   1.851
  1.858   1.876   1.931   1.940   1.967   1.990   2.017   2.078
  2.116   2.166   2.182   2.215   2.297   2.339   2.376   2.379
  2.400   2.416   2.435   2.470   2.487   2.513   2.523   2.549
  2.595   2.600   2.618   2.682   2.692   2.705   2.759   2.852
  2.892   2.933   3.013   3.128   3.258   3.279   3.307   3.332
  3.450   3.555   3.789   4.198   4.314   4.360   4.428   4.515
  4.553   4.745
 
 Beta MOs
 -- Occupied --
-14.369 -10.241 -10.231 -10.221 -10.206 -10.204 -10.200  -0.986
 -0.816  -0.781  -0.664  -0.646  -0.565  -0.524  -0.496  -0.484
 -0.452  -0.428  -0.395  -0.374  -0.362  -0.308  -0.281  -0.218
 -- Virtual --
 -0.070  -0.043   0.007   0.020   0.024   0.037   0.039   0.046
  0.051   0.072   0.076   0.083   0.087   0.095   0.114   0.117
  0.124   0.133   0.139   0.144   0.147   0.158   0.179   0.186
  0.188   0.200   0.201   0.210   0.212   0.219   0.238   0.244
  0.258   0.271   0.279   0.284   0.307   0.309   0.323   0.347
  0.356   0.360   0.397   0.491   0.513   0.608   0.618   0.661
  0.687   0.695   0.718   0.735   0.740   0.753   0.768   0.780
  0.785   0.807   0.869   0.898   0.913   0.932   0.948   0.954
  0.977   1.003   1.028   1.043   1.058   1.097   1.122   1.142
  1.159   1.203   1.221   1.241   1.304   1.362   1.369   1.417
  1.431   1.532   1.569   1.587   1.689   1.700   1.754   1.831
  1.860   1.872   1.882   1.936   1.945   1.971   1.995   2.019
  2.080   2.125   2.176   2.190   2.226   2.305   2.345   2.377
  2.383   2.404   2.417   2.437   2.472   2.490   2.516   2.525
  2.554   2.600   2.603   2.636   2.685   2.696   2.709   2.770
  2.860   2.894   2.942   3.016   3.131   3.259   3.279   3.309
  3.336   3.453   3.564   3.789   4.204   4.315   4.361   4.433
  4.539   4.556   4.746
 --------------------------------------------------------------
 
          Ground-State Mulliken Net Atomic Charges

     Atom                 Charge (a.u.)    Spin (a.u.)
  --------------------------------------------------------
      1 C                    -0.072697      -0.085789
      2 C                     0.007135       0.040009
      3 C                    -0.228516      -0.020159
      4 C                     0.093917       0.086532
      5 C                    -0.207730      -0.102539
      6 N                    -0.162243       0.127357
      7 H                     0.142106       0.004189
      8 H                     0.130475      -0.001577
      9 H                     0.126660       0.000557
     10 H                     0.127503       0.002762
     11 H                     0.134774      -0.001244
     12 C                    -0.232564       0.942698
     13 H                     0.141180       0.007203
  --------------------------------------------------------
  Sum of atomic charges =    -0.000000
  Sum of spin   charges =     1.000000

 -----------------------------------------------------------------
                    Cartesian Multipole Moments
 -----------------------------------------------------------------
    Charge (ESU x 10^10)
                -0.0000
    Dipole Moment (Debye)
         X      -0.0101      Y      -0.6500      Z       0.4765
       Tot       0.8060
    Quadrupole Moments (Debye-Ang)
        XX     -37.0045     XY      -1.5178     YY     -40.9190
        XZ      -1.4407     YZ      -2.2426     ZZ     -43.6336
    Octopole Moments (Debye-Ang^2)
       XXX      -4.6849    XXY      -3.7351    XYY      -6.7332
       YYY     -13.7840    XXZ       3.6774    XYZ      -1.0996
       YYZ       4.7969    XZZ       3.9833    YZZ      -1.3789
       ZZZ       4.7182
    Hexadecapole Moments (Debye-Ang^3)
      XXXX    -343.2529   XXXY       1.5984   XXYY    -107.2379
      XYYY     -13.7660   YYYY    -290.9208   XXXZ      36.8824
      XXYZ       9.0871   XYYZ      14.9294   YYYZ      36.0687
      XXZZ     -82.1398   XYZZ       5.3431   YYZZ     -77.6400
      XZZZ      39.3245   YZZZ      41.0616   ZZZZ    -163.3562
 -----------------------------------------------------------------
Archival summary:
1\1\c8-68\SP\ProcedureUnspecified\6-31+G**\166(2)\hpark21\ThuMar303:49:302022ThuMar303:49:302022\0\\#,ProcedureUnspecified,6-31+G**,\\0,2\N\C,1,1.39255\H,2,1.08639,1,125.272\C,1,1.41808,2,125.645,3,129.073,0\H,4,1.08584,1,114.608,2,-125.359,0\C,4,1.34824,1,122.193,2,59.5329,0\H,6,1.08587,4,119.371,1,178.391,0\C,6,1.45666,4,121.131,1,4.80796,0\H,8,1.08612,6,118.467,4,178.32,0\C,8,1.35149,6,121.231,4,4.76534,0\H,10,1.08732,8,121.064,6,170.521,0\C,2,1.46776,1,65.7495,3,127.064,0\H,12,1.09202,2,120.73,1,-99.1186,0\\\@

 Total job time:  42.33s(wall), 112.56s(cpu) 
 Thu Mar  3 03:49:30 2022

        *************************************************************
        *                                                           *
        *  Thank you very much for using Q-Chem.  Have a nice day.  *
        *                                                           *
        *************************************************************


