
Running Job 1 of 1 qcfsm.in
qchem qcfsm.in_62633.0 ./qcfsm.d/ 1
/home/leeping/opt/qchem/5.0.2-openmp/exe/qcprog.exe_s qcfsm.in_62633.0 ./qcfsm.d/
Check license passed

                  Welcome to Q-Chem
     A Quantum Leap Into The Future Of Chemistry


 Q-Chem 5.0, Q-Chem, Inc., Pleasanton, CA (2017)

 Yihan Shao,  Zhengting Gan,  E. Epifanovsky,  A. T. B. Gilbert,  M. Wormit,  
 J. Kussmann,  A. W. Lange,  A. Behn,  Jia Deng,  Xintian Feng,  D. Ghosh,  
 M. Goldey,  P. R. Horn,  L. D. Jacobson,  I. Kaliman,  T. Kus,  A. Landau,  
 Jie Liu,  E. I. Proynov,  R. M. Richard,  R. P. Steele,  E. J. Sundstrom,  
 H. L. Woodcock III,  P. M. Zimmerman,  D. Zuev,  B. Albrecht,  E. Alguire,  
 S. A. Baeppler,  D. Barton,  Z. Benda,  Y. A. Bernard,  E. J. Berquist,  
 K. B. Bravaya,  H. Burton,  D. Casanova,  Chun-Min Chang,  Yunqing Chen,  
 A. Chien,  K. D. Closser,  M. P. Coons,  S. Dasgupta,  A. L. Dempwolff,  
 M. Diedenhofen,  Hainam Do,  R. G. Edgar,  Po-Tung Fang,  S. Fatehi,  
 Qingguo Feng,  J. Fosso-Tande,  Qinghui Ge,  A. Ghysels,  G. Gidofalvi,  
 J. Gomes,  J. Gonthier,  A. Gunina,  M. W. D. Hanson-Heine,  
 P. H. P. Harbach,  A. W. Hauser,  J. E. Herr,  E. G. Hohenstein,  
 Z. C. Holden,  Kerwin Hui,  T.-C. Jagau,  Hyunjun Ji,  B. Kaduk,  
 K. Khistyaev,  Jaehoon Kim,  P. Klunzinger,  K. Koh,  D. Kosenkov,  
 L. Koulias,  T. Kowalczyk,  C. M. Krauter,  A. Kunitsa,  Ka Un Lao,  
 A. Laurent,  K. V. Lawler,  Joonho Lee,  D. Lefrancois,  S. Lehtola,  
 D. S. Levine,  Yi-Pei Li,  You-Sheng Lin,  Fenglai Liu,  E. Livshits,  
 A. Luenser,  P. Manohar,  E. Mansoor,  S. F. Manzer,  Shan-Ping Mao,  
 Yuezhi Mao,  N. Mardirossian,  A. V. Marenich,  T. Markovich,  
 L. A. Martinez-Martinez,  S. A. Maurer,  N. J. Mayhall,  S. C. McKenzie,  
 J.-M. Mewes,  A. F. Morrison,  J. W. Mullinax,  K. Nanda,  
 T. S. Nguyen-Beck,  R. Olivares-Amaya,  J. A. Parkhill,  T. M. Perrine,  
 F. Plasser,  S. Prager,  A. Prociuk,  E. Ramos,  D. R. Rehn,  F. Rob,  
 M. Schneider,  N. Sergueev,  S. M. Sharada,  S. Sharma,  D. W. Small,  
 T. Stauch,  T. Stein,  Yu-Chuan Su,  A. J. W. Thom,  A. Tkatchenko,  
 T. Tsuchimochi,  L. Vogt,  O. Vydrov,  M. A. Watson,  J. Wenzel,  
 M. de Wergifosse,  T. A. Wesolowski,  A. White,  J. Witte,  A. Yamada,  
 Jun Yang,  K. Yao,  S. Yeganeh,  S. R. Yost,  Zhi-Qiang You,  A. Zech,  
 Igor Ying Zhang,  Xing Zhang,  Yan Zhao,  Ying Zhu,  B. R. Brooks,  
 G. K. L. Chan,  C. J. Cramer,  M. S. Gordon,  W. J. Hehre,  A. Klamt,  
 M. W. Schmidt,  C. D. Sherrill,  D. G. Truhlar,  A. Aspuru-Guzik,  R. Baer,  
 A. T. Bell,  N. A. Besley,  Jeng-Da Chai,  R. A. DiStasio Jr.,  A. Dreuw,  
 B. D. Dunietz,  T. R. Furlani,  Chao-Ping Hsu,  Yousung Jung,  Jing Kong,  
 D. S. Lambrecht,  WanZhen Liang,  C. Ochsenfeld,  V. A. Rassolov,  
 L. V. Slipchenko,  J. E. Subotnik,  T. Van Voorhis,  J. M. Herbert,  
 A. I. Krylov,  P. M. W. Gill,  M. Head-Gordon

 Contributors to earlier versions of Q-Chem not listed above: 
 R. D. Adamson,  B. Austin,  J. Baker,  G. J. O. Beran,  K. Brandhorst,  
 S. T. Brown,  E. F. C. Byrd,  A. K. Chakraborty,  C.-L. Cheng,  
 Siu Hung Chien,  D. M. Chipman,  D. L. Crittenden,  H. Dachsel,  
 R. J. Doerksen,  A. D. Dutoi,  L. Fusti-Molnar,  W. A. Goddard III,  
 A. Golubeva-Zadorozhnaya,  S. R. Gwaltney,  G. Hawkins,  A. Heyden,  
 S. Hirata,  G. Kedziora,  F. J. Keil,  C. Kelley,  Jihan Kim,  R. A. King,  
 R. Z. Khaliullin,  P. P. Korambath,  W. Kurlancheek,  A. M. Lee,  M. S. Lee,  
 S. V. Levchenko,  Ching Yeh Lin,  D. Liotard,  R. C. Lochan,  I. Lotan,  
 P. E. Maslen,  N. Nair,  D. P. O'Neill,  D. Neuhauser,  E. Neuscamman,  
 C. M. Oana,  R. Olson,  B. Peters,  R. Peverati,  P. A. Pieniazek,  
 Y. M. Rhee,  J. Ritchie,  M. A. Rohrdanz,  E. Rosta,  N. J. Russ,  
 H. F. Schaefer III,  N. E. Schultz,  N. Shenvi,  A. C. Simmonett,  A. Sodt,  
 D. Stuck,  K. S. Thanthiriwatte,  V. Vanovschi,  Tao Wang,  A. Warshel,  
 C. F. Williams,  Q. Wu,  X. Xu,  W. Zhang

 Please cite Q-Chem as follows:
 Y. Shao et al., Mol. Phys. 113, 184-215 (2015)
 DOI: 10.1080/00268976.2014.952696

 Q-Chem 5.0.2 for Intel X86 EM64T Linux

 Parts of Q-Chem use Armadillo 5.200.1 (Boston Tea Smuggler).
 http://arma.sourceforge.net/

 Q-Chem begins on Wed Mar  2 20:03:10 2022  

Host: 
0

     Scratch files written to ./qcfsm.d//
 Dec517 15110_ 26548  26544 5633   
Processing $rem in /home/leeping/opt/qchem/5.0.2-openmp/config/preferences.
 MEM_STATIC 2000
 MEM_TOTAL  8000
 SYMMETRY   OFF
 SYM_IGNORE TRUE 
 Now reading second FSM geometry

Checking the input file for inconsistencies... 	...done.

--------------------------------------------------------------
User input:
--------------------------------------------------------------
$molecule
0 2
C        1.3127821609   -0.0975170434    0.0429889822
C        0.4495302049   -1.2278573684    0.4504356029
C       -0.8931772870   -1.1032169608    0.4863742998
C       -1.5384400085    0.1829397450    0.2617716063
C       -0.8213794854    1.2682334863   -0.0840785854
N        0.5726430580    1.2083824747   -0.3339975311
H        2.2245575760    0.0623983828    0.6240245080
H        0.9373115305   -2.1508125059    0.7561629190
H       -1.5108367987   -1.9468426359    0.7828363665
H       -2.5987864045    0.2871563109    0.4740187789
H       -1.2423038934    2.2696237481   -0.1135147157
C        1.1871834179    0.4348999364   -1.3192550327
H        1.9209159297    0.8126124300   -2.0277671992
****
C        1.6206863912    0.1639680038   -0.8020044297
C        0.1881315629   -1.5841032205    1.2879900258
C       -1.0197172133   -1.2123556446    0.8873683060
C       -1.4326340420    0.0339392760    0.2453226063
C       -0.6401105781    1.0414661278   -0.1770190011
N        0.7590354153    1.1210209872   -0.0029032136
H        1.9242631762   -0.8656300607   -0.7308183619
H        0.5906042800   -2.4477793889    1.8035663510
H       -1.8413623619   -1.9179738174    1.0742716886
H       -2.5039764228    0.1646869333    0.1149926984
H       -1.0952730253    1.9388153736   -0.5974972305
C        1.5854798544    1.3658623963   -1.2390912839
H        1.8648729635    2.1980830339   -1.8641781555
$end

$rem
method                b3lyp
basis                 6-31g(d)
unrestricted          true
symmetry              off
sym_ignore            true
incdft                false
incfock               0
scf_convergence       8
thresh                14
jobtype               fsm
scf_guess             core
scf_guess_mix         5
scf_algorithm         diis
max_scf_cycles        100
fsm_nnode             21
fsm_ngrad             6
fsm_mode              2
fsm_opt_mode          2
$end

--------------------------------------------------------------
 ----------------------------------------------------------------
             Standard Nuclear Orientation (Angstroms)
    I     Atom           X                Y                Z
 ----------------------------------------------------------------
    1      C       1.3127821609    -0.0975170434     0.0429889822
    2      C       0.4495302049    -1.2278573684     0.4504356029
    3      C      -0.8931772870    -1.1032169608     0.4863742998
    4      C      -1.5384400085     0.1829397450     0.2617716063
    5      C      -0.8213794854     1.2682334863    -0.0840785854
    6      N       0.5726430580     1.2083824747    -0.3339975311
    7      H       2.2245575760     0.0623983828     0.6240245080
    8      H       0.9373115305    -2.1508125059     0.7561629190
    9      H      -1.5108367987    -1.9468426359     0.7828363665
   10      H      -2.5987864045     0.2871563109     0.4740187789
   11      H      -1.2423038934     2.2696237481    -0.1135147157
   12      C       1.1871834179     0.4348999364    -1.3192550327
   13      H       1.9209159297     0.8126124300    -2.0277671992
 ----------------------------------------------------------------
 Nuclear Repulsion Energy =   270.0613507845 hartrees
 There are       25 alpha and       24 beta electrons
 Requested basis set is 6-31G(d)
 There are 40 shells and 117 basis functions

 Total QAlloc Memory Limit   8000 MB
 Mega-Array Size      1956 MB
 MEM_STATIC part      2000 MB
 beginning FSman 

*******************************************
*******************************************
******** Starting FSM Calculation *********
*******************************************
*******************************************
-FSM parameters:
 Maximum displacement of each coordinate during optimization (Angstrom)      0.05
 Maximum optimization steps for each new node                                6
 The scaling factor for optimization (hartrees/Angstrom^2)                   1.75
 The number of LST interpolations used for reparameterization                100
-Aligning product structure to maximum coincidence with the reactant structure
 Total R --> P Distance 3.166711
 New node interpolation distace (Angstroms): 0.15
-Performing force calculation on reactant structure in state:0
 ----------------------------------------------------------------
             Standard Nuclear Orientation (Angstroms)
    I     Atom           X                Y                Z
 ----------------------------------------------------------------
    1      C       1.3127821609    -0.0975170434     0.0429889822
    2      C       0.4495302049    -1.2278573684     0.4504356029
    3      C      -0.8931772870    -1.1032169608     0.4863742998
    4      C      -1.5384400085     0.1829397450     0.2617716063
    5      C      -0.8213794854     1.2682334863    -0.0840785854
    6      N       0.5726430580     1.2083824747    -0.3339975311
    7      H       2.2245575760     0.0623983828     0.6240245080
    8      H       0.9373115305    -2.1508125059     0.7561629190
    9      H      -1.5108367987    -1.9468426359     0.7828363665
   10      H      -2.5987864045     0.2871563109     0.4740187789
   11      H      -1.2423038934     2.2696237481    -0.1135147157
   12      C       1.1871834179     0.4348999364    -1.3192550327
   13      H       1.9209159297     0.8126124300    -2.0277671992
 ----------------------------------------------------------------
 Nuclear Repulsion Energy =   270.0613507845 hartrees
 There are       25 alpha and       24 beta electrons

                       Distance Matrix (Angstroms)
             C (  1)   C (  2)   C (  3)   C (  4)   C (  5)   N (  6)
   C (  2)  1.479488
   C (  3)  2.464605  1.348959
   C (  4)  2.873324  2.444988  1.456369
   C (  5)  2.536940  2.851559  2.440153  1.345976
   N (  6)  1.547675  2.562373  2.857469  2.421393  1.417512
   H (  7)  1.092936  2.201276  3.331348  3.782315  3.351594  2.227085
   H (  8)  2.205814  1.087771  2.126248  3.438047  3.935591  3.550440
   H (  9)  3.455460  2.114348  1.086783  2.192771  3.400530  3.942544
   H ( 10)  3.954002  3.404123  2.200544  1.086391  2.105507  3.399928
   H ( 11)  3.486591  3.925903  3.443517  2.140744  1.086658  2.113972
   C ( 12)  1.467975  2.537853  3.154996  3.161037  2.500886  1.395230
   H ( 13)  2.342262  3.531286  4.232072  4.195905  3.392005  2.200757
             H (  7)   H (  8)   H (  9)   H ( 10)   H ( 11)   C ( 12)
   H (  8)  2.563741
   H (  9)  4.244460  2.456775
   H ( 10)  4.830907  4.304333  2.503948
   H ( 11)  4.175516  5.004730  4.319044  2.472937
   C ( 12)  2.234108  3.325012  4.167829  4.191805  3.274512
   H ( 13)  2.772547  4.183256  5.224080  5.192566  3.974066  1.087667

 
 Requested basis set is 6-31G(d)
 There are 40 shells and 117 basis functions
 A cutoff of  1.0D-14 yielded    801 shell pairs
 There are      7073 function pairs
 
 -------------------------------------------------------
 OpenMP Integral Computing Module                       
 Release: version 1.0, May 2013, Q-Chem Inc. Pittsburgh 
 -------------------------------------------------------
 Integral Job Info:
 Integral job number is                      11
 Integral operator is                         1
 short-range coefficients                     0
 long-range coefficients              100000000
 Omega coefficients                           0
 if combine SR and LR in K                    0
 Integral screening is                        0
 Integral computing path is                   2
 max size of driver memory is            800000
 size of driver memory is                593474
 size of scratch memory is              2361544
 max col of scratch BK array               1296
 max len of scratch array in speh3          155
 max len of scratch index in speh4           18
 max int batch size is                      520
 min int batch size is                       52
 fixed nKL is                                52
 max L of basis functions is                  2
 order of int derivative is                   0
 number of shells is                         40
 number of basis is                         117
 number of cartesian basis is               117
 number of contracted shell pairs           801
 number of primitive shell pairs           3461
 maxK2 (contraction) of shell pair           36
 max number of K2 of shell pair               1
 max number of CS2 of shell pair             88
 max number of PS2 of shell pair            384
 mem total for path MDJ                  535308
 -------------------------------------------------------
 Smallest overlap matrix eigenvalue = 9.84E-04

 Scale SEOQF with 1.000000e-01/1.000000e-01/1.000000e-01

 Standard Electronic Orientation quadrupole field applied
 Nucleus-field energy     =     0.0000000039 hartrees
 Guess MOs from core Hamiltonian diagonalization
 Mixing HOMO and LUMO in initial guess
 Adding  50% of the LUMO to the HOMO
 An unrestricted hybrid HF-DFT SCF calculation will be
 performed using Pulay DIIS extrapolation
 Exchange:     0.2000 Hartree-Fock + 0.0800 Slater + 0.7200 B88
 Correlation:  0.1900 VWN1RPA + 0.8100 LYP
 Using SG-1 standard quadrature grid
 SCF converges when DIIS error is below 1.0E-08
 using 4 threads for integral computing
 -------------------------------------------------------
 OpenMP Integral computing Module                
 Release: version 1.0, May 2013, Q-Chem Inc. Pittsburgh 
 -------------------------------------------------------
 -------------------------------------------------------
 OpenMP BLAS3 based DFT computing Module                
 Release: version 1.0, May 2013, Q-Chem Inc. Pittsburgh 
 -------------------------------------------------------
 ---------------------------------------
  Cycle       Energy         DIIS Error
 ---------------------------------------
    1    -236.3937693662      1.34E-01
    2    -234.7882937895      9.98E-02
    3    -255.0894739671      1.06E-01
    4    -277.8161687473      5.76E-02
    5    -266.1967461005      8.64E-02
    6    -284.5903523085      3.13E-02
    7    -285.9054379871      1.87E-02
    8    -286.3254402046      1.48E-02
    9    -286.8275948721      2.07E-03
   10    -286.8328833452      1.94E-03
   11    -286.8398924647      3.65E-04
   12    -286.8402585877      3.21E-04
   13    -286.8404564678      8.13E-05
   14    -286.8404946136      1.98E-05
   15    -286.8405020169      1.26E-05
   16    -286.8405068068      2.54E-06
   17    -286.8405100141      1.27E-06
   18    -286.8405111042      7.32E-07
   19    -286.8405118775      3.93E-07
   20    -286.8405125295      1.92E-07
   21    -286.8405126424      5.73E-08
   22    -286.8405126515      1.16E-08
   23    -286.8405126521      5.09E-09 Convergence criterion met
 ---------------------------------------
 <S^2> = 0.7531
 SCF time:  CPU 60.07 s  wall 33.44 s
 SCF   energy in the final basis set = -286.84051265
 Total energy in the final basis set = -286.84051265
 
 --------------------------------------------------------------
 
                    Orbital Energies (a.u.)
 --------------------------------------------------------------
 
 Alpha MOs
 -- Occupied --
-14.358 -10.230 -10.222 -10.220 -10.195 -10.193 -10.189  -0.983
 -0.807  -0.773  -0.662  -0.637  -0.570  -0.520  -0.493  -0.477
 -0.451  -0.424  -0.389  -0.368  -0.354  -0.308  -0.277  -0.223
 -0.188
 -- Virtual --
 -0.027   0.063   0.100   0.125   0.128   0.158   0.159   0.172
  0.188   0.192   0.255   0.276   0.319   0.333   0.440   0.481
  0.486   0.515   0.528   0.540   0.554   0.577   0.580   0.599
  0.613   0.630   0.642   0.669   0.690   0.720   0.757   0.789
  0.839   0.849   0.852   0.869   0.882   0.899   0.917   0.951
  0.968   1.012   1.075   1.106   1.129   1.160   1.194   1.280
  1.375   1.432   1.481   1.510   1.535   1.581   1.616   1.717
  1.742   1.787   1.844   1.862   1.891   1.909   1.980   2.001
  2.039   2.055   2.143   2.167   2.188   2.238   2.298   2.349
  2.386   2.465   2.538   2.546   2.579   2.611   2.656   2.681
  2.759   2.814   2.860   2.991   3.258   4.029   4.096   4.147
  4.227   4.285   4.398   4.599
 
 Beta MOs
 -- Occupied --
-14.355 -10.230 -10.220 -10.209 -10.195 -10.193 -10.189  -0.974
 -0.805  -0.770  -0.654  -0.636  -0.555  -0.515  -0.487  -0.474
 -0.442  -0.419  -0.384  -0.364  -0.351  -0.297  -0.270  -0.206
 -- Virtual --
 -0.051  -0.025   0.066   0.100   0.128   0.133   0.161   0.164
  0.178   0.188   0.199   0.258   0.280   0.327   0.342   0.443
  0.484   0.490   0.526   0.538   0.555   0.562   0.579   0.584
  0.605   0.624   0.632   0.645   0.672   0.693   0.724   0.770
  0.794   0.839   0.851   0.856   0.871   0.888   0.905   0.920
  0.952   0.979   1.016   1.079   1.112   1.134   1.162   1.201
  1.284   1.379   1.436   1.484   1.513   1.544   1.592   1.620
  1.723   1.756   1.794   1.851   1.884   1.897   1.923   1.984
  2.007   2.046   2.061   2.145   2.188   2.192   2.247   2.311
  2.357   2.397   2.471   2.542   2.553   2.583   2.620   2.658
  2.682   2.765   2.827   2.871   2.993   3.260   4.035   4.098
  4.151   4.244   4.296   4.400   4.600
 --------------------------------------------------------------
 
          Ground-State Mulliken Net Atomic Charges

     Atom                 Charge (a.u.)    Spin (a.u.)
  --------------------------------------------------------
      1 C                    -0.077027      -0.036815
      2 C                    -0.099307       0.029024
      3 C                    -0.135021      -0.010416
      4 C                    -0.123395       0.014357
      5 C                     0.023306       0.011505
      6 N                    -0.392139       0.120281
      7 H                     0.152394       0.004037
      8 H                     0.137689      -0.001559
      9 H                     0.133306       0.000588
     10 H                     0.133343       0.003111
     11 H                     0.148782      -0.000922
     12 C                    -0.054782       0.860449
     13 H                     0.152852       0.006360
  --------------------------------------------------------
  Sum of atomic charges =     0.000000
  Sum of spin   charges =     1.000000

 -----------------------------------------------------------------
                    Cartesian Multipole Moments
 -----------------------------------------------------------------
    Charge (ESU x 10^10)
                 0.0000
    Dipole Moment (Debye)
         X      -0.0931      Y      -0.6401      Z       0.4621
       Tot       0.7949
    Quadrupole Moments (Debye-Ang)
        XX     -36.1304     XY      -1.3764     YY     -39.5637
        XZ      -1.1384     YZ      -1.9320     ZZ     -42.0236
    Octopole Moments (Debye-Ang^2)
       XXX      -4.9246    XXY      -3.2778    XYY      -6.2323
       YYY     -13.4274    XXZ       3.3209    XYZ      -1.1474
       YYZ       4.3033    XZZ       2.9906    YZZ      -1.6859
       ZZZ       4.8117
    Hexadecapole Moments (Debye-Ang^3)
      XXXX    -331.8337   XXXY       0.3833   XXYY    -102.4864
      XYYY     -13.3065   YYYY    -276.6409   XXXZ      36.2537
      XXYZ       9.0838   XYYZ      14.1952   YYYZ      36.8737
      XXZZ     -77.1948   XYZZ       4.0715   YYZZ     -71.6212
      XZZZ      38.7102   YZZZ      40.8248   ZZZZ    -143.7523
 -----------------------------------------------------------------
 Calculating analytic gradient of the SCF energy
 Gradient of SCF Energy
            1           2           3           4           5           6
    1   0.0000124   0.0000131  -0.0000265  -0.0000023   0.0000242  -0.0000160
    2  -0.0000821  -0.0000060   0.0000010   0.0000016   0.0000020   0.0000209
    3   0.0000083  -0.0000150   0.0000157  -0.0000076  -0.0000048  -0.0000685
            7           8           9          10          11          12
    1   0.0000009  -0.0000055   0.0000022  -0.0000013  -0.0000108   0.0000263
    2   0.0000277   0.0000085   0.0000015  -0.0000045  -0.0000026   0.0000535
    3  -0.0000050   0.0000123  -0.0000052  -0.0000070  -0.0000023   0.0000887
           13
    1  -0.0000168
    2  -0.0000216
    3  -0.0000097
 Max gradient component =       8.875E-05
 RMS gradient           =       2.678E-05
 Gradient time:  CPU 7.66 s  wall 2.08 s
-Performing force calculation on product structure in state0
 ----------------------------------------------------------------
             Standard Nuclear Orientation (Angstroms)
    I     Atom           X                Y                Z
 ----------------------------------------------------------------
    1      C       1.6211658127     0.1647312354    -0.8008782791
    2      C       0.1877229102    -1.5845646197     1.2874819920
    3      C      -1.0199653114    -1.2129882101     0.8862179643
    4      C      -1.4328035027     0.0334492766     0.2443984907
    5      C      -0.6402800229     1.0413612579    -0.1770231546
    6      N       0.7587298875     1.1212298426    -0.0019600979
    7      H       1.9249781232    -0.8648119455    -0.7299035387
    8      H       0.5900948804    -2.4483358770     1.8029776483
    9      H      -1.8415391603    -1.9189057299     1.0723026130
   10      H      -2.5040961703     0.1639554962     0.1134195656
   11      H      -1.0954131632     1.9387532776    -0.5974418164
   12      C       1.5859158783     1.3667899698    -1.2375094625
   13      H       1.8654898388     2.1993360258    -1.8620819253
 ----------------------------------------------------------------
 Nuclear Repulsion Energy =   251.1064689448 hartrees
 There are       25 alpha and       24 beta electrons

                       Distance Matrix (Angstroms)
             C (  1)   C (  2)   C (  3)   C (  4)   C (  5)   N (  6)
   C (  2)  3.078318
   C (  3)  3.423445  1.325742
   C (  4)  3.230568  2.516366  1.461497
   C (  5)  2.504359  3.118630  2.521256  1.349658
   N (  6)  1.515571  3.051235  3.066136  2.459020  1.412181
   H (  7)  1.075778  2.757888  3.377243  3.609825  3.243412  2.415450
   H (  8)  3.830312  1.083393  2.226842  3.560975  4.196691  4.003503
   H (  9)  4.454287  2.067847  1.099059  2.159671  3.430309  4.142205
   H ( 10)  4.225367  3.417841  2.166988  1.087132  2.080387  3.402311
   H ( 11)  3.250899  4.196802  3.484310  2.110145  1.090509  2.112058
   C ( 12)  1.279388  4.128077  4.237463  3.617529  2.487264  1.507023
   H ( 13)  2.307697  5.201207  5.246233  4.472926  3.234070  2.418116
             H (  7)   H (  8)   H (  9)   H ( 10)   H ( 11)   C ( 12)
   H (  8)  3.271842
   H (  9)  4.306473  2.593651
   H ( 10)  4.624528  4.387789  2.386786
   H ( 11)  4.123141  5.277263  4.269225  2.374788
   C ( 12)  2.313585  4.979097  5.280007  4.472138  2.815378
   H ( 13)  3.267165  6.054762  6.269975  5.209478  3.230196  1.077676

 
 Applying Cartesian multipole field
    Component          Value
    ---------          -----
     (2,0,0)        1.00000E-11
     (0,2,0)        2.00000E-11
     (0,0,2)       -3.00000E-11
 Nucleus-field energy     =     0.0000000037 hartrees
 Requested basis set is 6-31G(d)
 There are 40 shells and 117 basis functions
 A cutoff of  1.0D-14 yielded    782 shell pairs
 There are      7014 function pairs
 Smallest overlap matrix eigenvalue = 1.54E-03
 Guess MOs from core Hamiltonian diagonalization
 Mixing HOMO and LUMO in initial guess
 Adding  50% of the LUMO to the HOMO
 An unrestricted hybrid HF-DFT SCF calculation will be
 performed using Pulay DIIS extrapolation
 Exchange:     0.2000 Hartree-Fock + 0.0800 Slater + 0.7200 B88
 Correlation:  0.1900 VWN1RPA + 0.8100 LYP
 Using SG-1 standard quadrature grid
 SCF converges when DIIS error is below 1.0E-08
 using 4 threads for integral computing
 -------------------------------------------------------
 OpenMP Integral computing Module                
 Release: version 1.0, May 2013, Q-Chem Inc. Pittsburgh 
 -------------------------------------------------------
 -------------------------------------------------------
 OpenMP BLAS3 based DFT computing Module                
 Release: version 1.0, May 2013, Q-Chem Inc. Pittsburgh 
 -------------------------------------------------------
 ---------------------------------------
  Cycle       Energy         DIIS Error
 ---------------------------------------
    1    -229.9247579712      1.34E-01
    2    -197.3292697521      1.18E-01
    3    -243.9069077999      9.24E-02
    4    -235.7597662929      1.19E-01
    5    -284.4883628248      2.80E-02
    6    -285.6671908653      2.13E-02
    7    -286.4842627272      1.15E-02
    8    -286.7131415251      2.02E-03
    9    -286.7188112959      1.46E-03
   10    -286.7229011229      5.76E-04
   11    -286.7235434932      3.46E-04
   12    -286.7238116772      1.63E-04
   13    -286.7239160107      5.26E-05
   14    -286.7239427407      1.39E-05
   15    -286.7239528629      5.12E-06
   16    -286.7239581351      2.41E-06
   17    -286.7239624528      7.79E-07
   18    -286.7239665089      5.05E-07
   19    -286.7239692024      1.56E-07
   20    -286.7239694015      5.54E-08
   21    -286.7239694248      2.54E-08
   22    -286.7239694371      1.04E-08
   23    -286.7239694399      7.47E-09 Convergence criterion met
 ---------------------------------------
 <S^2> = 0.7679
 SCF time:  CPU 55.76 s  wall 21.50 s
 SCF   energy in the final basis set = -286.72396944
 Total energy in the final basis set = -286.72396944
 
 --------------------------------------------------------------
 
                    Orbital Energies (a.u.)
 --------------------------------------------------------------
 
 Alpha MOs
 -- Occupied --
-14.350 -10.239 -10.238 -10.204 -10.196 -10.191 -10.178  -0.969
 -0.799  -0.744  -0.670  -0.596  -0.586  -0.535  -0.494  -0.479
 -0.432  -0.409  -0.381  -0.373  -0.318  -0.302  -0.238  -0.222
 -0.192
 -- Virtual --
 -0.017  -0.002   0.088   0.097   0.111   0.116   0.135   0.163
  0.166   0.181   0.197   0.276   0.342   0.368   0.395   0.421
  0.473   0.485   0.513   0.527   0.543   0.547   0.582   0.602
  0.606   0.642   0.656   0.671   0.698   0.710   0.758   0.781
  0.791   0.812   0.845   0.863   0.895   0.899   0.939   0.953
  0.997   1.028   1.038   1.090   1.092   1.186   1.205   1.275
  1.318   1.405   1.426   1.447   1.489   1.534   1.563   1.672
  1.709   1.726   1.742   1.788   1.828   1.878   1.930   1.934
  1.982   2.018   2.062   2.142   2.173   2.217   2.285   2.344
  2.362   2.396   2.419   2.525   2.540   2.588   2.685   2.721
  2.770   2.796   2.921   2.991   3.184   3.921   4.079   4.149
  4.225   4.273   4.301   4.525
 
 Beta MOs
 -- Occupied --
-14.350 -10.239 -10.238 -10.205 -10.192 -10.181 -10.177  -0.969
 -0.795  -0.736  -0.661  -0.596  -0.577  -0.530  -0.486  -0.473
 -0.429  -0.398  -0.381  -0.371  -0.315  -0.300  -0.233  -0.187
 -- Virtual --
 -0.059  -0.008  -0.001   0.090   0.100   0.111   0.119   0.141
  0.166   0.171   0.185   0.198   0.278   0.349   0.372   0.401
  0.433   0.476   0.487   0.525   0.528   0.551   0.557   0.586
  0.606   0.612   0.650   0.660   0.680   0.701   0.712   0.758
  0.783   0.793   0.817   0.847   0.868   0.899   0.911   0.946
  0.954   1.002   1.032   1.042   1.095   1.099   1.188   1.212
  1.286   1.323   1.410   1.431   1.448   1.492   1.540   1.564
  1.674   1.721   1.746   1.772   1.796   1.840   1.891   1.939
  1.950   1.994   2.025   2.071   2.144   2.175   2.221   2.295
  2.351   2.363   2.397   2.423   2.530   2.544   2.592   2.692
  2.727   2.776   2.798   2.926   2.992   3.190   3.922   4.085
  4.172   4.227   4.276   4.301   4.526
 --------------------------------------------------------------
 
          Ground-State Mulliken Net Atomic Charges

     Atom                 Charge (a.u.)    Spin (a.u.)
  --------------------------------------------------------
      1 C                     0.010002       0.002827
      2 C                    -0.225820       1.056978
      3 C                    -0.133192      -0.163921
      4 C                    -0.116713       0.069500
      5 C                     0.008625      -0.059267
      6 N                    -0.388432      -0.001579
      7 H                     0.179978       0.002145
      8 H                     0.153374       0.005561
      9 H                     0.139291       0.083451
     10 H                     0.122716      -0.002500
     11 H                     0.128566       0.004655
     12 C                    -0.052156       0.000364
     13 H                     0.173762       0.001787
  --------------------------------------------------------
  Sum of atomic charges =    -0.000000
  Sum of spin   charges =     1.000000

 -----------------------------------------------------------------
                    Cartesian Multipole Moments
 -----------------------------------------------------------------
    Charge (ESU x 10^10)
                 0.0000
    Dipole Moment (Debye)
         X       0.3086      Y      -0.3885      Z      -1.8982
       Tot       1.9620
    Quadrupole Moments (Debye-Ang)
        XX     -36.8419     XY      -0.3265     YY     -35.8900
        XZ      -2.9550     YZ      -5.6008     ZZ     -41.0226
    Octopole Moments (Debye-Ang^2)
       XXX     -16.6111    XXY      -5.6045    XYY      -0.1996
       YYY     -10.1515    XXZ      -5.7780    XYZ      -4.3696
       YYZ      -5.7390    XZZ       0.4888    YZZ      -2.3445
       ZZZ      -8.0553
    Hexadecapole Moments (Debye-Ang^3)
      XXXX    -389.6583   XXXY     -55.6034   XXYY    -113.2512
      XYYY     -51.2880   YYYY    -346.2548   XXXZ      65.0494
      XXYZ      21.9041   XYYZ      12.4448   YYYZ      68.2385
      XXZZ    -100.2236   XYZZ     -12.4534   YYZZ     -78.7042
      XZZZ      71.9327   YZZZ      90.1802   ZZZZ    -228.8201
 -----------------------------------------------------------------
 Calculating analytic gradient of the SCF energy
 Gradient of SCF Energy
            1           2           3           4           5           6
    1   0.0000158  -0.0000346   0.0000537  -0.0000173   0.0000306   0.0000405
    2  -0.0000315   0.0000137  -0.0000256  -0.0000091   0.0000255  -0.0000258
    3  -0.0000138   0.0000098  -0.0000724   0.0000515  -0.0000742   0.0000431
            7           8           9          10          11          12
    1   0.0000065  -0.0000222  -0.0000119  -0.0000256  -0.0000293   0.0000008
    2  -0.0000035   0.0000211  -0.0000054   0.0000098  -0.0000057   0.0000404
    3   0.0000468  -0.0000095   0.0000001   0.0000226   0.0000072  -0.0000011
           13
    1  -0.0000070
    2  -0.0000038
    3  -0.0000102
 Max gradient component =       7.424E-05
 RMS gradient           =       2.929E-05
 Gradient time:  CPU 6.99 s  wall 1.83 s

STARTING FREEZING STRING ITERATION # 1
 The distance between the innermost nodes (Angstroms): 3.167
-Adding two new nodes
 The distance between the previous and current R_nodes (Angstroms): 0.1506
 The distance between the previous and current P_nodes (Angstroms): 0.1629
-Optimizing new reactant side node
 Using BFGS, step: 2 E_tol 0.1165
 max_steps 6, node_spacing 0.1508, sigma 0.7000
 ----------------------------------------------------------------
             Standard Nuclear Orientation (Angstroms)
    I     Atom           X                Y                Z
 ----------------------------------------------------------------
    1      C       1.3349104494    -0.0893866157    -0.0007374360
    2      C       0.4341920587    -1.2572836762     0.4911136470
    3      C      -0.9040935993    -1.1110894757     0.5059240028
    4      C      -1.5364587147     0.1768124054     0.2611283884
    5      C      -0.8174282463     1.2593878080    -0.0866469101
    6      N       0.5783966382     1.2145684359    -0.3167406809
    7      H       2.2439596309     0.0311973696     0.5907655269
    8      H       0.9152326196    -2.1788511149     0.8106565204
    9      H      -1.5345612558    -1.9474105282     0.7983379417
   10      H      -2.5997133602     0.2843820693     0.4567097691
   11      H      -1.2434577049     2.2580441668    -0.1358696753
   12      C       1.1995170202     0.4793590360    -1.3348920408
   13      H       1.9227849970     0.8864576172    -2.0373238161
 ----------------------------------------------------------------
 Nuclear Repulsion Energy =   268.5063307162 hartrees
 There are       25 alpha and       24 beta electrons

                       Distance Matrix (Angstroms)
             C (  1)   C (  2)   C (  3)   C (  4)   C (  5)   N (  6)
   C (  2)  1.554733
   C (  3)  2.512712  1.346329
   C (  4)  2.895548  2.448058  1.455507
   C (  5)  2.541483  2.869494  2.444957  1.345333
   N (  6)  1.540282  2.604511  2.878062  2.425589  1.415372
   H (  7)  1.091232  2.223819  3.349964  3.797555  3.367408  2.235628
   H (  8)  2.280428  1.087563  2.131414  3.444114  3.953322  3.591626
   H (  9)  3.510647  2.108708  1.087395  2.191100  3.403092  3.963093
   H ( 10)  3.978722  3.403307  2.196563  1.086432  2.102953  3.400567
   H ( 11)  3.489509  3.945269  3.446466  2.138921  1.086848  2.107299
   C ( 12)  1.456630  2.633619  3.216101  3.181883  2.496924  1.401055
   H ( 13)  2.333571  3.633804  4.295294  4.213413  3.384226  2.208041
             H (  7)   H (  8)   H (  9)   H ( 10)   H ( 11)   C ( 12)
   H (  8)  2.588085
   H (  9)  4.270269  2.460733
   H ( 10)  4.852138  4.306697  2.496429
   H ( 11)  4.201062  5.024131  4.317793  2.466966
   C ( 12)  2.236038  3.427868  4.232619  4.204998  3.251077
   H ( 13)  2.782351  4.303751  5.293867  5.199586  3.939780  1.087316

 
 Applying Cartesian multipole field
    Component          Value
    ---------          -----
     (2,0,0)        1.00000E-11
     (0,2,0)        2.00000E-11
     (0,0,2)       -3.00000E-11
 Nucleus-field energy     =     0.0000000039 hartrees
 Requested basis set is 6-31G(d)
 There are 40 shells and 117 basis functions
 A cutoff of  1.0D-14 yielded    800 shell pairs
 There are      7072 function pairs
 Smallest overlap matrix eigenvalue = 1.02E-03
 Guess MOs from core Hamiltonian diagonalization
 Mixing HOMO and LUMO in initial guess
 Adding  50% of the LUMO to the HOMO
 An unrestricted hybrid HF-DFT SCF calculation will be
 performed using Pulay DIIS extrapolation
 Exchange:     0.2000 Hartree-Fock + 0.0800 Slater + 0.7200 B88
 Correlation:  0.1900 VWN1RPA + 0.8100 LYP
 Using SG-1 standard quadrature grid
 SCF converges when DIIS error is below 1.0E-08
 using 4 threads for integral computing
 -------------------------------------------------------
 OpenMP Integral computing Module                
 Release: version 1.0, May 2013, Q-Chem Inc. Pittsburgh 
 -------------------------------------------------------
 -------------------------------------------------------
 OpenMP BLAS3 based DFT computing Module                
 Release: version 1.0, May 2013, Q-Chem Inc. Pittsburgh 
 -------------------------------------------------------
 ---------------------------------------
  Cycle       Energy         DIIS Error
 ---------------------------------------
    1    -237.0735099360      1.33E-01
    2    -234.2914231776      9.82E-02
    3    -249.0867505422      1.11E-01
    4    -278.9410399586      5.39E-02
    5    -262.9575519284      9.23E-02
    6    -283.8101226897      3.62E-02
    7    -285.8033543002      1.99E-02
    8    -286.1475670509      1.61E-02
    9    -286.8168168942      2.58E-03
   10    -286.8312245339      1.65E-03
   11    -286.8357771371      5.68E-04
   12    -286.8366185057      3.37E-04
   13    -286.8368737439      1.10E-04
   14    -286.8369437884      2.17E-05
   15    -286.8369600428      1.32E-05
   16    -286.8369663234      4.14E-06
   17    -286.8369740404      2.43E-06
   18    -286.8369766738      1.06E-06
   19    -286.8369784640      5.59E-07
   20    -286.8369801924      2.84E-07
   21    -286.8369805563      9.92E-08
   22    -286.8369806110      2.75E-08
   23    -286.8369806129      8.07E-09 Convergence criterion met
 ---------------------------------------
 <S^2> = 0.7531
 SCF time:  CPU 57.24 s  wall 19.14 s
 SCF   energy in the final basis set = -286.83698061
 Total energy in the final basis set = -286.83698061
 
 --------------------------------------------------------------
 
                    Orbital Energies (a.u.)
 --------------------------------------------------------------
 
 Alpha MOs
 -- Occupied --
-14.358 -10.234 -10.224 -10.221 -10.199 -10.194 -10.189  -0.982
 -0.807  -0.768  -0.662  -0.632  -0.571  -0.517  -0.495  -0.476
 -0.447  -0.423  -0.389  -0.369  -0.350  -0.309  -0.276  -0.222
 -0.190
 -- Virtual --
 -0.028   0.065   0.101   0.124   0.130   0.154   0.158   0.171
  0.187   0.191   0.246   0.266   0.321   0.331   0.435   0.473
  0.483   0.514   0.524   0.541   0.553   0.575   0.579   0.595
  0.609   0.635   0.644   0.671   0.689   0.721   0.759   0.782
  0.839   0.850   0.853   0.874   0.886   0.891   0.917   0.951
  0.963   1.013   1.077   1.114   1.129   1.152   1.185   1.280
  1.368   1.425   1.476   1.512   1.533   1.579   1.615   1.684
  1.748   1.769   1.849   1.862   1.891   1.913   1.953   1.991
  2.037   2.050   2.150   2.158   2.187   2.232   2.292   2.343
  2.378   2.453   2.519   2.547   2.568   2.608   2.648   2.676
  2.760   2.803   2.853   2.984   3.241   4.019   4.093   4.132
  4.226   4.280   4.391   4.598
 
 Beta MOs
 -- Occupied --
-14.355 -10.234 -10.220 -10.211 -10.198 -10.194 -10.188  -0.974
 -0.805  -0.764  -0.655  -0.630  -0.557  -0.513  -0.489  -0.474
 -0.436  -0.419  -0.384  -0.365  -0.347  -0.300  -0.269  -0.206
 -- Virtual --
 -0.054  -0.025   0.068   0.101   0.129   0.133   0.157   0.161
  0.177   0.188   0.198   0.248   0.271   0.327   0.342   0.439
  0.477   0.487   0.522   0.538   0.556   0.560   0.579   0.581
  0.608   0.616   0.637   0.647   0.674   0.692   0.725   0.771
  0.786   0.840   0.851   0.857   0.876   0.891   0.897   0.920
  0.952   0.975   1.016   1.081   1.119   1.134   1.155   1.191
  1.284   1.372   1.428   1.480   1.514   1.542   1.588   1.620
  1.691   1.764   1.777   1.854   1.880   1.896   1.928   1.958
  1.998   2.043   2.056   2.151   2.181   2.190   2.242   2.302
  2.352   2.388   2.458   2.526   2.549   2.572   2.618   2.650
  2.678   2.766   2.817   2.864   2.986   3.243   4.025   4.095
  4.135   4.243   4.290   4.394   4.600
 --------------------------------------------------------------
 
          Ground-State Mulliken Net Atomic Charges

     Atom                 Charge (a.u.)    Spin (a.u.)
  --------------------------------------------------------
      1 C                    -0.074017      -0.039341
      2 C                    -0.112242       0.032099
      3 C                    -0.130538      -0.011584
      4 C                    -0.121965       0.012663
      5 C                     0.023089       0.013929
      6 N                    -0.390699       0.115905
      7 H                     0.150054       0.006160
      8 H                     0.137879      -0.001333
      9 H                     0.133696       0.000822
     10 H                     0.133206       0.002995
     11 H                     0.148630      -0.000936
     12 C                    -0.051216       0.864704
     13 H                     0.154123       0.003918
  --------------------------------------------------------
  Sum of atomic charges =    -0.000000
  Sum of spin   charges =     1.000000

 -----------------------------------------------------------------
                    Cartesian Multipole Moments
 -----------------------------------------------------------------
    Charge (ESU x 10^10)
                -0.0000
    Dipole Moment (Debye)
         X      -0.1150      Y      -0.6327      Z       0.3722
       Tot       0.7430
    Quadrupole Moments (Debye-Ang)
        XX     -36.1176     XY      -1.2980     YY     -39.5524
        XZ      -1.1855     YZ      -2.1412     ZZ     -41.9842
    Octopole Moments (Debye-Ang^2)
       XXX      -5.2616    XXY      -3.2686    XYY      -6.2676
       YYY     -13.6556    XXZ       2.9858    XYZ      -1.4113
       YYZ       4.1002    XZZ       2.9842    YZZ      -1.6379
       ZZZ       4.3630
    Hexadecapole Moments (Debye-Ang^3)
      XXXX    -335.0422   XXXY      -1.5431   XXYY    -103.5539
      XYYY     -15.3974   YYYY    -281.3218   XXXZ      37.6191
      XXYZ       9.4280   XYYZ      14.5020   YYYZ      38.8672
      XXZZ     -78.2271   XYZZ       3.6167   YYZZ     -72.2360
      XZZZ      39.9938   YZZZ      43.6279   ZZZZ    -146.8845
 -----------------------------------------------------------------
 Calculating analytic gradient of the SCF energy
 Gradient of SCF Energy
            1           2           3           4           5           6
    1   0.0202266  -0.0165962  -0.0016220   0.0009715   0.0009611  -0.0046138
    2   0.0260020  -0.0228529   0.0015466  -0.0012011  -0.0002140  -0.0001901
    3  -0.0218311   0.0194990  -0.0016738   0.0013468  -0.0010267   0.0017561
            7           8           9          10          11          12
    1  -0.0016194  -0.0009638   0.0002878   0.0000004   0.0003835   0.0025009
    2  -0.0034798  -0.0011089  -0.0006991  -0.0001107   0.0001996   0.0018467
    3   0.0007337   0.0011454  -0.0018071   0.0001490   0.0001531   0.0013781
           13
    1   0.0000834
    2   0.0002617
    3   0.0001775
 Max gradient component =       2.600E-02
 RMS gradient           =       8.492E-03
 Gradient time:  CPU 7.92 s  wall 2.25 s
 ----------------------------------------------------------------
             Standard Nuclear Orientation (Angstroms)
    I     Atom           X                Y                Z
 ----------------------------------------------------------------
    1      C       1.3045120627    -0.1366765605     0.0268472718
    2      C       0.4612260025    -1.2229689269     0.4663267646
    3      C      -0.9039175150    -1.1163117770     0.5148111562
    4      C      -1.5375036008     0.1771997516     0.2584548473
    5      C      -0.8175604988     1.2570024199    -0.0851454444
    6      N       0.5891946862     1.2158447819    -0.3146138662
    7      H       2.2525186710     0.0290185904     0.5804316322
    8      H       0.9100374463    -2.1854769145     0.8245057377
    9      H      -1.5422442973    -1.9459093956     0.8061387650
   10      H      -2.5997999870     0.2837829428     0.4510725697
   11      H      -1.2442774527     2.2538709669    -0.1429121377
   12      C       1.1988982070     0.4889853736    -1.3419916176
   13      H       1.9221969398     0.9078264590    -2.0415006244
 ----------------------------------------------------------------
 Nuclear Repulsion Energy =   268.6012440143 hartrees
 There are       25 alpha and       24 beta electrons

                       Distance Matrix (Angstroms)
             C (  1)   C (  2)   C (  3)   C (  4)   C (  5)   N (  6)
   C (  2)  1.443712
   C (  3)  2.464742  1.370162
   C (  4)  2.868661  2.449205  1.462984
   C (  5)  2.541274  2.844235  2.449495  1.342517
   N (  6)  1.567670  2.563992  2.890724  2.435167  1.425942
   H (  7)  1.110237  2.188429  3.358449  3.806560  3.372881  2.230764
   H (  8)  2.233708  1.120779  2.128252  3.448639  3.957616  3.601322
   H (  9)  3.461884  2.156851  1.086538  2.192618  3.402675  3.974394
   H ( 10)  3.949735  3.411805  2.200078  1.084866  2.100253  3.409502
   H ( 11)  3.498552  3.920246  3.450591  2.135331  1.085897  2.113906
   C ( 12)  1.508750  2.597107  3.232109  3.185362  2.497122  1.398416
   H ( 13)  2.398038  3.600545  4.314949  4.218191  3.384600  2.203159
             H (  7)   H (  8)   H (  9)   H ( 10)   H ( 11)   C ( 12)
   H (  8)  2.601119
   H (  9)  4.283866  2.464024
   H ( 10)  4.860724  4.307628  2.493196
   H ( 11)  4.207229  5.028397  4.315975  2.464043
   C ( 12)  2.239955  3.453969  4.249357  4.205627  3.243720
   H ( 13)  2.784950  4.336702  5.315563  5.201039  3.929763  1.089909

 
 Applying Cartesian multipole field
    Component          Value
    ---------          -----
     (2,0,0)        1.00000E-11
     (0,2,0)        2.00000E-11
     (0,0,2)       -3.00000E-11
 Nucleus-field energy     =     0.0000000039 hartrees
 Requested basis set is 6-31G(d)
 There are 40 shells and 117 basis functions
 A cutoff of  1.0D-14 yielded    800 shell pairs
 There are      7072 function pairs
 Smallest overlap matrix eigenvalue = 9.96E-04
 Guess MOs from core Hamiltonian diagonalization
 Mixing HOMO and LUMO in initial guess
 Adding  50% of the LUMO to the HOMO
 An unrestricted hybrid HF-DFT SCF calculation will be
 performed using Pulay DIIS extrapolation
 Exchange:     0.2000 Hartree-Fock + 0.0800 Slater + 0.7200 B88
 Correlation:  0.1900 VWN1RPA + 0.8100 LYP
 Using SG-1 standard quadrature grid
 SCF converges when DIIS error is below 1.0E-08
 using 4 threads for integral computing
 -------------------------------------------------------
 OpenMP Integral computing Module                
 Release: version 1.0, May 2013, Q-Chem Inc. Pittsburgh 
 -------------------------------------------------------
 -------------------------------------------------------
 OpenMP BLAS3 based DFT computing Module                
 Release: version 1.0, May 2013, Q-Chem Inc. Pittsburgh 
 -------------------------------------------------------
 ---------------------------------------
  Cycle       Energy         DIIS Error
 ---------------------------------------
    1    -236.2501467190      1.34E-01
    2    -234.0445904087      1.01E-01
    3    -257.0956337549      1.00E-01
    4    -274.8439259880      6.88E-02
    5    -270.6680146255      7.62E-02
    6    -284.9096726712      2.87E-02
    7    -286.0174927499      1.80E-02
    8    -286.4949214464      1.27E-02
    9    -286.8029827652      3.94E-03
   10    -286.8260920137      2.30E-03
   11    -286.8352009500      5.91E-04
   12    -286.8359037008      2.50E-04
   13    -286.8360759113      5.69E-05
   14    -286.8361078816      2.42E-05
   15    -286.8361153053      1.28E-05
   16    -286.8361183658      2.97E-06
   17    -286.8361196187      1.45E-06
   18    -286.8361200994      4.10E-07
   19    -286.8361205072      2.65E-07
   20    -286.8361209395      1.75E-07
   21    -286.8361212038      5.24E-08
   22    -286.8361212217      1.15E-08
   23    -286.8361212219      4.00E-09 Convergence criterion met
 ---------------------------------------
 <S^2> = 0.7533
 SCF time:  CPU 58.18 s  wall 21.87 s
 SCF   energy in the final basis set = -286.83612122
 Total energy in the final basis set = -286.83612122
 
 --------------------------------------------------------------
 
                    Orbital Energies (a.u.)
 --------------------------------------------------------------
 
 Alpha MOs
 -- Occupied --
-14.360 -10.234 -10.227 -10.220 -10.200 -10.196 -10.189  -0.976
 -0.805  -0.772  -0.661  -0.639  -0.569  -0.517  -0.490  -0.475
 -0.452  -0.423  -0.388  -0.364  -0.356  -0.310  -0.279  -0.217
 -0.190
 -- Virtual --
 -0.030   0.057   0.095   0.122   0.126   0.150   0.157   0.170
  0.184   0.190   0.251   0.282   0.314   0.333   0.440   0.481
  0.484   0.512   0.530   0.536   0.546   0.574   0.581   0.602
  0.611   0.626   0.641   0.669   0.689   0.720   0.765   0.785
  0.837   0.842   0.846   0.860   0.882   0.899   0.912   0.945
  0.960   1.009   1.079   1.115   1.129   1.148   1.186   1.286
  1.360   1.441   1.465   1.511   1.532   1.578   1.599   1.717
  1.748   1.761   1.840   1.865   1.884   1.903   1.974   1.994
  2.025   2.040   2.133   2.149   2.183   2.226   2.297   2.341
  2.379   2.452   2.522   2.530   2.572   2.601   2.671   2.680
  2.748   2.810   2.843   2.991   3.243   4.022   4.089   4.135
  4.213   4.288   4.392   4.601
 
 Beta MOs
 -- Occupied --
-14.357 -10.235 -10.220 -10.214 -10.199 -10.197 -10.188  -0.968
 -0.803  -0.769  -0.653  -0.638  -0.555  -0.513  -0.483  -0.472
 -0.443  -0.417  -0.383  -0.361  -0.352  -0.297  -0.274  -0.201
 -- Virtual --
 -0.052  -0.027   0.060   0.096   0.123   0.132   0.155   0.161
  0.174   0.186   0.196   0.254   0.286   0.322   0.342   0.444
  0.483   0.489   0.523   0.535   0.548   0.565   0.577   0.584
  0.608   0.621   0.628   0.645   0.672   0.691   0.724   0.777
  0.789   0.838   0.847   0.847   0.861   0.887   0.904   0.915
  0.945   0.972   1.012   1.083   1.120   1.133   1.152   1.191
  1.290   1.363   1.445   1.468   1.512   1.543   1.586   1.605
  1.724   1.758   1.771   1.843   1.887   1.893   1.916   1.981
  2.000   2.030   2.045   2.134   2.171   2.186   2.235   2.311
  2.347   2.388   2.459   2.529   2.534   2.576   2.608   2.674
  2.681   2.754   2.822   2.854   2.993   3.245   4.028   4.091
  4.140   4.231   4.295   4.396   4.602
 --------------------------------------------------------------
 
          Ground-State Mulliken Net Atomic Charges

     Atom                 Charge (a.u.)    Spin (a.u.)
  --------------------------------------------------------
      1 C                    -0.086871      -0.036779
      2 C                    -0.093797       0.029949
      3 C                    -0.140344      -0.018016
      4 C                    -0.119614       0.011110
      5 C                     0.021134       0.014987
      6 N                    -0.394682       0.110197
      7 H                     0.152817       0.004291
      8 H                     0.136662      -0.001627
      9 H                     0.136620       0.000908
     10 H                     0.132639       0.002934
     11 H                     0.148632      -0.000825
     12 C                    -0.049823       0.877788
     13 H                     0.156626       0.005082
  --------------------------------------------------------
  Sum of atomic charges =     0.000000
  Sum of spin   charges =     1.000000

 -----------------------------------------------------------------
                    Cartesian Multipole Moments
 -----------------------------------------------------------------
    Charge (ESU x 10^10)
                -0.0000
    Dipole Moment (Debye)
         X      -0.1636      Y      -0.6044      Z       0.3479
       Tot       0.7163
    Quadrupole Moments (Debye-Ang)
        XX     -36.2238     XY      -1.1023     YY     -39.5718
        XZ      -1.2598     YZ      -2.3177     ZZ     -42.0283
    Octopole Moments (Debye-Ang^2)
       XXX      -5.8011    XXY      -3.0468    XYY      -6.5591
       YYY     -13.4267    XXZ       2.9324    XYZ      -1.4435
       YYZ       3.9495    XZZ       2.9038    YZZ      -1.4327
       ZZZ       4.1408
    Hexadecapole Moments (Debye-Ang^3)
      XXXX    -334.4268   XXXY       0.0616   XXYY    -103.2904
      XYYY     -13.9993   YYYY    -280.2565   XXXZ      37.2489
      XXYZ       9.0093   XYYZ      14.0155   YYYZ      38.2818
      XXZZ     -78.2632   XYZZ       4.2626   YYZZ     -71.8380
      XZZZ      39.3181   YZZZ      43.3013   ZZZZ    -147.1754
 -----------------------------------------------------------------
 Calculating analytic gradient of the SCF energy
 Gradient of SCF Energy
            1           2           3           4           5           6
    1  -0.0253924   0.0290933  -0.0170761   0.0000716  -0.0056538   0.0040568
    2  -0.0307739   0.0370149  -0.0109381   0.0078121  -0.0045254   0.0059613
    3   0.0146702  -0.0106432   0.0066044  -0.0011711   0.0024617   0.0003115
            7           8           9          10          11          12
    1   0.0097448   0.0020703  -0.0034695   0.0011615   0.0001946   0.0060304
    2   0.0035222  -0.0193992   0.0007094  -0.0008263  -0.0006433   0.0099338
    3   0.0036379   0.0079022  -0.0020083  -0.0001509  -0.0011136  -0.0180073
           13
    1  -0.0008315
    2   0.0021526
    3  -0.0024937
 Max gradient component =       3.701E-02
 RMS gradient           =       1.222E-02
 Gradient time:  CPU 7.50 s  wall 1.93 s
WARNING!!!!! energy has increased from optimization step!
 ----------------------------------------------------------------
             Standard Nuclear Orientation (Angstroms)
    I     Atom           X                Y                Z
 ----------------------------------------------------------------
    1      C       1.3222567059    -0.1142957567     0.0176419697
    2      C       0.4403655549    -1.2491238508     0.4727613670
    3      C      -0.8910619259    -1.1080244045     0.5093008877
    4      C      -1.5376470761     0.1716830205     0.2593248227
    5      C      -0.8136043140     1.2606427423    -0.0868995310
    6      N       0.5859787623     1.2113672268    -0.3154583828
    7      H       2.2447361544     0.0274327489     0.5787969417
    8      H       0.9093185608    -2.1702497019     0.8168676872
    9      H      -1.5388840086    -1.9464537343     0.8070947421
   10      H      -2.6006437611     0.2844808130     0.4517891929
   11      H      -1.2444077194     2.2547792256    -0.1413161106
   12      C       1.1940098106     0.4802003582    -1.3282583840
   13      H       1.9228638991     0.9037489924    -2.0392201255
 ----------------------------------------------------------------
 Nuclear Repulsion Energy =   269.0222180966 hartrees
 There are       25 alpha and       24 beta electrons

                       Distance Matrix (Angstroms)
             C (  1)   C (  2)   C (  3)   C (  4)   C (  5)   N (  6)
   C (  2)  1.507548
   C (  3)  2.475481  1.339382
   C (  4)  2.884310  2.444746  1.455408
   C (  5)  2.542300  2.860872  2.443775  1.352754
   N (  6)  1.552560  2.587762  2.870793  2.433332  1.418979
   H (  7)  1.089013  2.212825  3.335764  3.798591  3.364135  2.225504
   H (  8)  2.244154  1.089403  2.112887  3.432658  3.944145  3.580788
   H (  9)  3.488003  2.124965  1.100599  2.187820  3.407451  3.968249
   H ( 10)  3.966945  3.405895  2.205685  1.086153  2.106321  3.406222
   H ( 11)  3.496505  3.936101  3.443342  2.141446  1.084832  2.114083
   C ( 12)  1.476929  2.608105  3.201032  3.174516  2.486077  1.389270
   H ( 13)  2.372304  3.625288  4.296553  4.218337  3.380412  2.203008
             H (  7)   H (  8)   H (  9)   H ( 10)   H ( 11)   C ( 12)
   H (  8)  2.582601
   H (  9)  4.273655  2.458430
   H ( 10)  4.853855  4.298700  2.496126
   H ( 11)  4.201638  5.013735  4.317008  2.464392
   C ( 12)  2.223934  3.421622  4.232859  4.195983  3.240963
   H ( 13)  2.779487  4.316709  5.311202  5.201033  3.931785  1.102764

 
 Applying Cartesian multipole field
    Component          Value
    ---------          -----
     (2,0,0)        1.00000E-11
     (0,2,0)        2.00000E-11
     (0,0,2)       -3.00000E-11
 Nucleus-field energy     =     0.0000000039 hartrees
 Requested basis set is 6-31G(d)
 There are 40 shells and 117 basis functions
 A cutoff of  1.0D-14 yielded    800 shell pairs
 There are      7072 function pairs
 Smallest overlap matrix eigenvalue = 9.91E-04
 Guess MOs from core Hamiltonian diagonalization
 Mixing HOMO and LUMO in initial guess
 Adding  50% of the LUMO to the HOMO
 An unrestricted hybrid HF-DFT SCF calculation will be
 performed using Pulay DIIS extrapolation
 Exchange:     0.2000 Hartree-Fock + 0.0800 Slater + 0.7200 B88
 Correlation:  0.1900 VWN1RPA + 0.8100 LYP
 Using SG-1 standard quadrature grid
 SCF converges when DIIS error is below 1.0E-08
 using 4 threads for integral computing
 -------------------------------------------------------
 OpenMP Integral computing Module                
 Release: version 1.0, May 2013, Q-Chem Inc. Pittsburgh 
 -------------------------------------------------------
 -------------------------------------------------------
 OpenMP BLAS3 based DFT computing Module                
 Release: version 1.0, May 2013, Q-Chem Inc. Pittsburgh 
 -------------------------------------------------------
 ---------------------------------------
  Cycle       Energy         DIIS Error
 ---------------------------------------
    1    -236.8721082036      1.33E-01
    2    -234.8830026831      9.93E-02
    3    -252.2059425981      1.08E-01
    4    -277.7197140647      5.78E-02
    5    -265.0844150264      8.88E-02
    6    -284.1226102054      3.44E-02
    7    -285.7905748045      2.00E-02
    8    -286.1331435128      1.68E-02
    9    -286.8244581089      2.08E-03
   10    -286.8347694110      1.36E-03
   11    -286.8380360652      5.07E-04
   12    -286.8387125891      2.05E-04
   13    -286.8388361589      9.05E-05
   14    -286.8388844089      1.72E-05
   15    -286.8389013832      8.75E-06
   16    -286.8389078823      3.81E-06
   17    -286.8389142944      1.10E-06
   18    -286.8389165322      8.62E-07
   19    -286.8389181699      6.26E-07
   20    -286.8389193701      2.12E-07
   21    -286.8389196425      7.29E-08
   22    -286.8389196821      1.72E-08
   23    -286.8389196835      5.75E-09 Convergence criterion met
 ---------------------------------------
 <S^2> = 0.7530
 SCF time:  CPU 59.08 s  wall 24.26 s
 SCF   energy in the final basis set = -286.83891968
 Total energy in the final basis set = -286.83891968
 
 --------------------------------------------------------------
 
                    Orbital Energies (a.u.)
 --------------------------------------------------------------
 
 Alpha MOs
 -- Occupied --
-14.358 -10.233 -10.225 -10.222 -10.197 -10.194 -10.189  -0.982
 -0.807  -0.770  -0.661  -0.635  -0.569  -0.517  -0.493  -0.477
 -0.449  -0.423  -0.390  -0.367  -0.353  -0.311  -0.277  -0.220
 -0.190
 -- Virtual --
 -0.028   0.062   0.098   0.125   0.127   0.154   0.158   0.171
  0.186   0.193   0.253   0.270   0.320   0.332   0.439   0.477
  0.484   0.515   0.529   0.541   0.550   0.577   0.580   0.599
  0.609   0.633   0.643   0.671   0.688   0.721   0.760   0.787
  0.834   0.846   0.851   0.871   0.882   0.892   0.915   0.949
  0.964   1.010   1.079   1.113   1.129   1.152   1.187   1.284
  1.365   1.442   1.474   1.513   1.531   1.578   1.604   1.700
  1.749   1.768   1.850   1.867   1.888   1.911   1.968   1.994
  2.036   2.043   2.142   2.163   2.188   2.236   2.295   2.346
  2.381   2.457   2.526   2.542   2.573   2.607   2.657   2.675
  2.759   2.812   2.852   2.987   3.248   4.028   4.094   4.132
  4.220   4.282   4.393   4.602
 
 Beta MOs
 -- Occupied --
-14.355 -10.233 -10.221 -10.211 -10.196 -10.194 -10.189  -0.974
 -0.805  -0.767  -0.654  -0.634  -0.555  -0.513  -0.486  -0.473
 -0.439  -0.418  -0.384  -0.364  -0.350  -0.300  -0.271  -0.205
 -- Virtual --
 -0.052  -0.025   0.065   0.099   0.128   0.132   0.158   0.161
  0.176   0.186   0.200   0.255   0.274   0.327   0.342   0.442
  0.480   0.488   0.524   0.539   0.555   0.561   0.579   0.584
  0.607   0.619   0.635   0.646   0.674   0.690   0.725   0.773
  0.791   0.835   0.849   0.854   0.872   0.887   0.898   0.918
  0.951   0.974   1.014   1.083   1.118   1.134   1.156   1.192
  1.288   1.368   1.447   1.477   1.514   1.541   1.588   1.609
  1.707   1.762   1.776   1.854   1.887   1.894   1.926   1.974
  2.001   2.042   2.048   2.144   2.185   2.192   2.245   2.308
  2.354   2.392   2.463   2.533   2.545   2.577   2.616   2.660
  2.677   2.765   2.825   2.864   2.990   3.249   4.034   4.096
  4.137   4.237   4.292   4.396   4.603
 --------------------------------------------------------------
 
          Ground-State Mulliken Net Atomic Charges

     Atom                 Charge (a.u.)    Spin (a.u.)
  --------------------------------------------------------
      1 C                    -0.081345      -0.037257
      2 C                    -0.101834       0.027911
      3 C                    -0.132966      -0.012239
      4 C                    -0.122968       0.010971
      5 C                     0.021776       0.016387
      6 N                    -0.388743       0.113337
      7 H                     0.153260       0.005121
      8 H                     0.137837      -0.001244
      9 H                     0.132523       0.000770
     10 H                     0.133634       0.002991
     11 H                     0.148962      -0.000999
     12 C                    -0.052225       0.867356
     13 H                     0.152091       0.006897
  --------------------------------------------------------
  Sum of atomic charges =     0.000000
  Sum of spin   charges =     1.000000

 -----------------------------------------------------------------
                    Cartesian Multipole Moments
 -----------------------------------------------------------------
    Charge (ESU x 10^10)
                -0.0000
    Dipole Moment (Debye)
         X      -0.1327      Y      -0.5936      Z       0.4009
       Tot       0.7285
    Quadrupole Moments (Debye-Ang)
        XX     -36.1527     XY      -1.2923     YY     -39.5531
        XZ      -1.1161     YZ      -2.2162     ZZ     -42.0526
    Octopole Moments (Debye-Ang^2)
       XXX      -5.5524    XXY      -3.0514    XYY      -6.2868
       YYY     -13.1460    XXZ       3.1230    XYZ      -1.4426
       YYZ       3.9705    XZZ       2.7947    YZZ      -1.5509
       ZZZ       4.4999
    Hexadecapole Moments (Debye-Ang^3)
      XXXX    -333.1732   XXXY      -1.2210   XXYY    -103.2323
      XYYY     -14.9759   YYYY    -280.7738   XXXZ      37.6463
      XXYZ       9.2809   XYYZ      14.3412   YYYZ      38.4965
      XXZZ     -78.2630   XYZZ       3.7853   YYZZ     -71.8079
      XZZZ      39.8946   YZZZ      43.2712   ZZZZ    -146.4386
 -----------------------------------------------------------------
 Calculating analytic gradient of the SCF energy
 Gradient of SCF Energy
            1           2           3           4           5           6
    1   0.0080533  -0.0153588   0.0168281  -0.0057875   0.0034532   0.0028738
    2   0.0053529  -0.0078216   0.0057539  -0.0083930   0.0062151  -0.0009239
    3  -0.0012101   0.0076862  -0.0015041   0.0032540  -0.0021961  -0.0040267
            7           8           9          10          11          12
    1  -0.0013715  -0.0016509  -0.0067952  -0.0000297   0.0000676  -0.0055845
    2  -0.0007222  -0.0019039  -0.0058540   0.0008310  -0.0014084   0.0036156
    3  -0.0021695   0.0021986   0.0003451  -0.0001079  -0.0002957   0.0044827
           13
    1   0.0053021
    2   0.0052584
    3  -0.0064564
 Max gradient component =       1.683E-02
 RMS gradient           =       5.612E-03
 Gradient time:  CPU 7.82 s  wall 2.60 s
 FSM gradient convergence criteria satisfied
done with opt_step_by_gradient, Reactant, iter1
-Optimizing new product side node
 Using BFGS, step: 2 E_tol 0.1165432
 max_steps 6, node_spacing 0.1507957, sigma 0.7000000
 ----------------------------------------------------------------
             Standard Nuclear Orientation (Angstroms)
    I     Atom           X                Y                Z
 ----------------------------------------------------------------
    1      C       1.6015439775     0.1425696258    -0.7565084391
    2      C       0.2035113849    -1.5672673487     1.2477134514
    3      C      -1.0145154488    -1.2091708925     0.8629478490
    4      C      -1.4416855652     0.0427677396     0.2441431469
    5      C      -0.6543546254     1.0559330184    -0.1717540596
    6      N       0.7456770909     1.1357447902    -0.0045184197
    7      H       1.9724456657    -0.8603783094    -0.6559142229
    8      H       0.6080584861    -2.4366533545     1.7525888545
    9      H      -1.8263068096    -1.9234004624     1.0554266113
   10      H      -2.5150460593     0.1741413655     0.1329846974
   11      H      -1.1121404462     1.9621834310    -0.5691775701
   12      C       1.5592773492     1.3305504646    -1.2502516799
   13      H       1.8770290845     2.1396150698    -1.8864143644
 ----------------------------------------------------------------
 Nuclear Repulsion Energy =   251.9022513723 hartrees
 There are       25 alpha and       24 beta electrons

                       Distance Matrix (Angstroms)
             C (  1)   C (  2)   C (  3)   C (  4)   C (  5)   N (  6)
   C (  2)  2.982439
   C (  3)  3.360596  1.326600
   C (  4)  3.205076  2.511183  1.460392
   C (  5)  2.503048  3.103547  2.516152  1.348838
   N (  6)  1.511421  3.027921  3.057680  2.457842  1.412242
   H (  7)  1.074054  2.693069  3.369055  3.644457  3.287361  2.431828
   H (  8)  3.732958  1.083693  2.220568  3.553081  4.182696  3.983515
   H (  9)  4.393347  2.069775  1.098261  2.161465  3.428684  4.134846
   H ( 10)  4.211711  3.415506  2.167485  1.087069  2.081489  3.402338
   H ( 11)  3.272640  4.181992  3.481092  2.110509  1.090322  2.110291
   C ( 12)  1.287194  4.058975  4.188103  3.591292  2.477648  1.500582
   H ( 13)  2.311011  5.134627  5.209068  4.466532  3.243814  2.414383
             H (  7)   H (  8)   H (  9)   H ( 10)   H ( 11)   C ( 12)
   H (  8)  3.185449
   H (  9)  4.299910  2.583718
   H ( 10)  4.672277  4.380999  2.392685
   H ( 11)  4.181991  5.263027  4.271666  2.378712
   C ( 12)  2.307404  4.910570  5.231303  4.455416  2.828303
   H ( 13)  3.243947  5.982881  6.235160  5.218370  3.271350  1.077151

 
 Applying Cartesian multipole field
    Component          Value
    ---------          -----
     (2,0,0)        1.00000E-11
     (0,2,0)        2.00000E-11
     (0,0,2)       -3.00000E-11
 Nucleus-field energy     =     0.0000000037 hartrees
 Requested basis set is 6-31G(d)
 There are 40 shells and 117 basis functions
 A cutoff of  1.0D-14 yielded    783 shell pairs
 There are      7020 function pairs
 Smallest overlap matrix eigenvalue = 1.66E-03
 Guess MOs from core Hamiltonian diagonalization
 Mixing HOMO and LUMO in initial guess
 Adding  50% of the LUMO to the HOMO
 An unrestricted hybrid HF-DFT SCF calculation will be
 performed using Pulay DIIS extrapolation
 Exchange:     0.2000 Hartree-Fock + 0.0800 Slater + 0.7200 B88
 Correlation:  0.1900 VWN1RPA + 0.8100 LYP
 Using SG-1 standard quadrature grid
 SCF converges when DIIS error is below 1.0E-08
 using 4 threads for integral computing
 -------------------------------------------------------
 OpenMP Integral computing Module                
 Release: version 1.0, May 2013, Q-Chem Inc. Pittsburgh 
 -------------------------------------------------------
 -------------------------------------------------------
 OpenMP BLAS3 based DFT computing Module                
 Release: version 1.0, May 2013, Q-Chem Inc. Pittsburgh 
 -------------------------------------------------------
 ---------------------------------------
  Cycle       Energy         DIIS Error
 ---------------------------------------
    1    -229.8686527903      1.34E-01
    2    -197.8668894028      1.17E-01
    3    -244.0652741537      9.29E-02
    4    -237.4422184432      1.19E-01
    5    -284.6004009512      2.72E-02
    6    -285.6366371788      2.16E-02
    7    -286.5129092079      1.09E-02
    8    -286.7132162835      1.97E-03
    9    -286.7191909432      1.30E-03
   10    -286.7225365896      5.65E-04
   11    -286.7231027943      3.09E-04
   12    -286.7233196066      1.42E-04
   13    -286.7234040674      5.35E-05
   14    -286.7234288623      1.04E-05
   15    -286.7234402326      5.12E-06
   16    -286.7234454026      2.30E-06
   17    -286.7234499649      7.03E-07
   18    -286.7234541885      4.14E-07
   19    -286.7234568036      1.53E-07
   20    -286.7234571572      7.24E-08
   21    -286.7234572499      3.58E-08
   22    -286.7234572847      1.17E-08
   23    -286.7234572881      7.53E-09 Convergence criterion met
 ---------------------------------------
 <S^2> = 0.7679
 SCF time:  CPU 56.67 s  wall 19.90 s
 SCF   energy in the final basis set = -286.72345729
 Total energy in the final basis set = -286.72345729
 
 --------------------------------------------------------------
 
                    Orbital Energies (a.u.)
 --------------------------------------------------------------
 
 Alpha MOs
 -- Occupied --
-14.352 -10.238 -10.237 -10.204 -10.196 -10.191 -10.178  -0.971
 -0.799  -0.744  -0.669  -0.596  -0.587  -0.534  -0.494  -0.478
 -0.432  -0.409  -0.380  -0.372  -0.322  -0.301  -0.237  -0.223
 -0.192
 -- Virtual --
 -0.017  -0.004   0.089   0.098   0.106   0.117   0.137   0.164
  0.173   0.181   0.197   0.277   0.342   0.367   0.396   0.422
  0.474   0.486   0.520   0.528   0.544   0.549   0.581   0.604
  0.607   0.642   0.656   0.669   0.694   0.711   0.757   0.778
  0.791   0.817   0.846   0.863   0.895   0.901   0.939   0.952
  0.994   1.027   1.037   1.089   1.094   1.187   1.201   1.275
  1.311   1.404   1.417   1.465   1.496   1.539   1.568   1.674
  1.714   1.730   1.742   1.785   1.831   1.883   1.929   1.937
  1.983   2.025   2.063   2.144   2.176   2.225   2.282   2.344
  2.347   2.385   2.427   2.524   2.542   2.594   2.683   2.721
  2.770   2.805   2.920   2.971   3.182   3.924   4.081   4.152
  4.224   4.273   4.298   4.524
 
 Beta MOs
 -- Occupied --
-14.352 -10.238 -10.237 -10.204 -10.192 -10.181 -10.176  -0.971
 -0.795  -0.736  -0.661  -0.595  -0.577  -0.529  -0.487  -0.472
 -0.428  -0.399  -0.379  -0.370  -0.318  -0.298  -0.233  -0.187
 -- Virtual --
 -0.060  -0.009  -0.003   0.091   0.101   0.106   0.120   0.142
  0.167   0.177   0.185   0.198   0.279   0.348   0.371   0.402
  0.433   0.476   0.488   0.527   0.533   0.552   0.559   0.585
  0.608   0.615   0.651   0.660   0.679   0.697   0.713   0.757
  0.779   0.793   0.823   0.847   0.868   0.901   0.912   0.945
  0.953   0.999   1.031   1.040   1.094   1.102   1.189   1.208
  1.287   1.315   1.409   1.420   1.468   1.499   1.545   1.569
  1.678   1.720   1.747   1.775   1.792   1.846   1.893   1.943
  1.951   1.997   2.031   2.071   2.147   2.179   2.229   2.292
  2.347   2.351   2.386   2.430   2.530   2.546   2.599   2.691
  2.726   2.777   2.807   2.925   2.971   3.188   3.926   4.087
  4.175   4.226   4.276   4.299   4.525
 --------------------------------------------------------------
 
          Ground-State Mulliken Net Atomic Charges

     Atom                 Charge (a.u.)    Spin (a.u.)
  --------------------------------------------------------
      1 C                     0.007829       0.004329
      2 C                    -0.226899       1.053969
      3 C                    -0.132261      -0.162830
      4 C                    -0.116384       0.068868
      5 C                     0.007584      -0.059183
      6 N                    -0.386449      -0.000564
      7 H                     0.180091       0.001431
      8 H                     0.152090       0.007298
      9 H                     0.140084       0.082261
     10 H                     0.122633      -0.002514
     11 H                     0.130139       0.004770
     12 C                    -0.052398       0.000167
     13 H                     0.173940       0.001999
  --------------------------------------------------------
  Sum of atomic charges =    -0.000000
  Sum of spin   charges =     1.000000

 -----------------------------------------------------------------
                    Cartesian Multipole Moments
 -----------------------------------------------------------------
    Charge (ESU x 10^10)
                -0.0000
    Dipole Moment (Debye)
         X       0.3467      Y      -0.4148      Z      -1.8034
       Tot       1.8827
    Quadrupole Moments (Debye-Ang)
        XX     -36.5990     XY      -0.4261     YY     -36.1188
        XZ      -2.9223     YZ      -5.5735     ZZ     -41.1086
    Octopole Moments (Debye-Ang^2)
       XXX     -15.2040    XXY      -5.6977    XYY      -0.4570
       YYY     -10.8187    XXZ      -5.5090    XYZ      -4.4091
       YYZ      -5.4075    XZZ       0.7800    YZZ      -2.0351
       ZZZ      -7.8551
    Hexadecapole Moments (Debye-Ang^3)
      XXXX    -384.7331   XXXY     -52.3820   XXYY    -112.1275
      XYYY     -48.9597   YYYY    -344.3256   XXXZ      62.5069
      XXYZ      20.6836   XYYZ      12.1212   YYYZ      66.6371
      XXZZ     -98.3585   XYZZ     -10.6610   YYZZ     -78.1821
      XZZZ      69.1006   YZZZ      87.3443   ZZZZ    -221.6875
 -----------------------------------------------------------------
 Calculating analytic gradient of the SCF energy
 Gradient of SCF Energy
            1           2           3           4           5           6
    1  -0.0030028   0.0019132  -0.0011601   0.0009532   0.0002102   0.0033515
    2  -0.0121045   0.0019465  -0.0011034   0.0002587   0.0000008  -0.0002778
    3   0.0081706  -0.0010528  -0.0007793   0.0002210  -0.0019916  -0.0013358
            7           8           9          10          11          12
    1   0.0017672  -0.0007552   0.0000802   0.0000075  -0.0005055  -0.0037672
    2   0.0018004  -0.0000555   0.0002926   0.0001134   0.0000648   0.0097812
    3  -0.0016787  -0.0000025   0.0002412   0.0004054   0.0002749  -0.0029118
           13
    1   0.0009079
    2  -0.0007172
    3   0.0004394
 Max gradient component =       1.210E-02
 RMS gradient           =       3.131E-03
 Gradient time:  CPU 6.84 s  wall 1.84 s
 ----------------------------------------------------------------
             Standard Nuclear Orientation (Angstroms)
    I     Atom           X                Y                Z
 ----------------------------------------------------------------
    1      C       1.6070314597     0.1675696258    -0.7722852331
    2      C       0.2000889783    -1.5706159108     1.2483387853
    3      C      -1.0117696448    -1.2066451404     0.8635252705
    4      C      -1.4441235917     0.0426187310     0.2436330670
    5      C      -0.6554326579     1.0566046192    -0.1671943379
    6      N       0.7379319608     1.1369009909    -0.0018086725
    7      H       1.9709444841    -0.8637206984    -0.6490683373
    8      H       0.6103428229    -2.4360495189     1.7504321972
    9      H      -1.8257990896    -1.9242179705     1.0540697369
   10      H      -2.5155474720     0.1743441328     0.1329894699
   11      H      -1.1118265325     1.9630954689    -0.5684259687
   12      C       1.5661067373     1.3081624152    -1.2445372794
   13      H       1.8755467816     2.1385884042    -1.8884031401
 ----------------------------------------------------------------
 Nuclear Repulsion Energy =   252.4456055237 hartrees
 There are       25 alpha and       24 beta electrons

                       Distance Matrix (Angstroms)
             C (  1)   C (  2)   C (  3)   C (  4)   C (  5)   N (  6)
   C (  2)  3.013917
   C (  3)  3.379713  1.322557
   C (  4)  3.218268  2.513045  1.460088
   C (  5)  2.505047  3.104503  2.512301  1.348696
   N (  6)  1.512802  3.030312  3.049995  2.453378  1.405441
   H (  7)  1.100534  2.689941  3.361863  3.644318  3.289029  2.437571
   H (  8)  3.759830  1.081379  2.220200  3.554585  4.180683  3.981533
   H (  9)  4.415368  2.065671  1.101754  2.161234  3.427324  4.130139
   H ( 10)  4.220809  3.415197  2.168447  1.085146  2.080510  3.395558
   H ( 11)  3.264607  4.184360  3.479619  2.111419  1.091333  2.103630
   C ( 12)  1.235172  4.045714  4.172964  3.588557  2.481771  1.503189
   H ( 13)  2.280950  5.138531  5.205794  4.467536  3.246399  2.420079
             H (  7)   H (  8)   H (  9)   H ( 10)   H ( 11)   C ( 12)
   H (  8)  3.175068
   H (  9)  4.294251  2.584895
   H ( 10)  4.670953  4.381948  2.393346
   H ( 11)  4.183404  5.262646  4.272406  2.379506
   C ( 12)  2.288133  4.889013  5.218899  4.454551  2.838554
   H ( 13)  3.249448  5.980734  6.234140  5.217853  3.270709  1.095410

 
 Applying Cartesian multipole field
    Component          Value
    ---------          -----
     (2,0,0)        1.00000E-11
     (0,2,0)        2.00000E-11
     (0,0,2)       -3.00000E-11
 Nucleus-field energy     =     0.0000000037 hartrees
 Requested basis set is 6-31G(d)
 There are 40 shells and 117 basis functions
 A cutoff of  1.0D-14 yielded    783 shell pairs
 There are      7020 function pairs
 Smallest overlap matrix eigenvalue = 1.34E-03
 Guess MOs from core Hamiltonian diagonalization
 Mixing HOMO and LUMO in initial guess
 Adding  50% of the LUMO to the HOMO
 An unrestricted hybrid HF-DFT SCF calculation will be
 performed using Pulay DIIS extrapolation
 Exchange:     0.2000 Hartree-Fock + 0.0800 Slater + 0.7200 B88
 Correlation:  0.1900 VWN1RPA + 0.8100 LYP
 Using SG-1 standard quadrature grid
 SCF converges when DIIS error is below 1.0E-08
 using 4 threads for integral computing
 -------------------------------------------------------
 OpenMP Integral computing Module                
 Release: version 1.0, May 2013, Q-Chem Inc. Pittsburgh 
 -------------------------------------------------------
 -------------------------------------------------------
 OpenMP BLAS3 based DFT computing Module                
 Release: version 1.0, May 2013, Q-Chem Inc. Pittsburgh 
 -------------------------------------------------------
 ---------------------------------------
  Cycle       Energy         DIIS Error
 ---------------------------------------
    1    -230.0658591001      1.34E-01
    2    -192.9486673224      1.16E-01
    3    -237.9998022883      1.02E-01
    4    -254.2453007298      1.10E-01
    5    -283.9891883947      3.03E-02
    6    -284.5074456266      2.98E-02
    7    -285.7976235744      1.71E-02
    8    -286.6820140408      3.88E-03
    9    -286.6927867369      3.58E-03
   10    -286.7178107388      7.65E-04
   11    -286.7195620570      3.03E-04
   12    -286.7198126025      2.17E-04
   13    -286.7199842970      3.59E-05
   14    -286.7200228650      1.33E-05
   15    -286.7200376373      6.89E-06
   16    -286.7200475575      2.49E-06
   17    -286.7200549071      1.39E-06
   18    -286.7200578635      6.45E-07
   19    -286.7200589079      4.06E-07
   20    -286.7200590764      2.55E-07
   21    -286.7200592020      1.34E-07
   22    -286.7200592397      3.15E-08
   23    -286.7200592405      6.45E-09 Convergence criterion met
 ---------------------------------------
 <S^2> = 0.7674
 SCF time:  CPU 56.89 s  wall 19.10 s
 SCF   energy in the final basis set = -286.72005924
 Total energy in the final basis set = -286.72005924
 
 --------------------------------------------------------------
 
                    Orbital Energies (a.u.)
 --------------------------------------------------------------
 
 Alpha MOs
 -- Occupied --
-14.349 -10.235 -10.233 -10.203 -10.195 -10.190 -10.177  -0.975
 -0.801  -0.747  -0.672  -0.588  -0.586  -0.532  -0.493  -0.480
 -0.437  -0.408  -0.385  -0.376  -0.312  -0.303  -0.241  -0.221
 -0.194
 -- Virtual --
 -0.016   0.008   0.090   0.097   0.106   0.116   0.138   0.162
  0.171   0.183   0.197   0.278   0.346   0.375   0.401   0.423
  0.475   0.487   0.514   0.526   0.543   0.549   0.582   0.606
  0.610   0.643   0.657   0.671   0.695   0.708   0.757   0.777
  0.785   0.819   0.846   0.862   0.896   0.902   0.937   0.957
  0.999   1.026   1.065   1.090   1.106   1.186   1.203   1.279
  1.315   1.405   1.425   1.475   1.495   1.538   1.568   1.682
  1.720   1.734   1.747   1.789   1.825   1.882   1.932   1.941
  1.980   2.021   2.067   2.151   2.175   2.221   2.291   2.351
  2.388   2.428   2.460   2.531   2.542   2.599   2.690   2.726
  2.774   2.808   2.922   3.037   3.188   3.925   4.082   4.153
  4.239   4.274   4.284   4.526
 
 Beta MOs
 -- Occupied --
-14.349 -10.235 -10.233 -10.204 -10.192 -10.180 -10.176  -0.975
 -0.798  -0.739  -0.664  -0.587  -0.576  -0.527  -0.486  -0.474
 -0.433  -0.397  -0.385  -0.373  -0.309  -0.301  -0.237  -0.189
 -- Virtual --
 -0.059  -0.007   0.009   0.092   0.101   0.106   0.119   0.144
  0.163   0.177   0.186   0.198   0.280   0.353   0.379   0.406
  0.435   0.477   0.488   0.522   0.528   0.552   0.559   0.586
  0.609   0.619   0.650   0.660   0.682   0.697   0.710   0.758
[...]
      1 C                    -0.040070      -0.216556
      2 C                    -0.222786       0.941638
      3 C                    -0.115358      -0.162757
      4 C                    -0.113617       0.061639
      5 C                     0.003788      -0.053031
      6 N                    -0.382570       0.020016
      7 H                     0.192093       0.013818
      8 H                     0.152879       0.006230
      9 H                     0.139558       0.072959
     10 H                     0.125926       0.000175
     11 H                     0.135747       0.005964
     12 C                    -0.051202       0.322782
     13 H                     0.175612      -0.012877
  --------------------------------------------------------
  Sum of atomic charges =     0.000000
  Sum of spin   charges =     1.000000

 -----------------------------------------------------------------
                    Cartesian Multipole Moments
 -----------------------------------------------------------------
    Charge (ESU x 10^10)
                 0.0000
    Dipole Moment (Debye)
         X       0.4533      Y      -0.8261      Z      -1.0668
       Tot       1.4234
    Quadrupole Moments (Debye-Ang)
        XX     -35.4010     XY      -1.4168     YY     -38.9247
        XZ      -2.0249     YZ      -5.3061     ZZ     -40.6085
    Octopole Moments (Debye-Ang^2)
       XXX      -8.1988    XXY      -6.9209    XYY      -3.8535
       YYY     -16.7659    XXZ      -1.4703    XYZ      -4.8179
       YYZ      -2.2851    XZZ       3.2817    YZZ      -0.1534
       ZZZ      -7.9500
    Hexadecapole Moments (Debye-Ang^3)
      XXXX    -366.3515   XXXY     -36.1983   XXYY    -113.0268
      XYYY     -42.0749   YYYY    -337.6650   XXXZ      54.0742
      XXYZ      12.0627   XYYZ      13.7126   YYYZ      54.0262
      XXZZ     -87.6617   XYZZ      -2.2142   YYZZ     -75.9232
      XZZZ      50.3824   YZZZ      65.1822   ZZZZ    -168.7263
 -----------------------------------------------------------------
 Calculating analytic gradient of the SCF energy
 Gradient of SCF Energy
            1           2           3           4           5           6
    1  -0.0004305   0.0023765  -0.0033014   0.0006409  -0.0006902   0.0029847
    2  -0.0160739   0.0059275   0.0011558  -0.0002009  -0.0048954  -0.0028621
    3   0.0118877  -0.0009549  -0.0007239  -0.0004751   0.0000768  -0.0022176
            7           8           9          10          11          12
    1  -0.0040130   0.0030837   0.0025306  -0.0027841   0.0000545  -0.0040801
    2  -0.0008144  -0.0014918   0.0003276   0.0000998   0.0028085   0.0122035
    3   0.0000717   0.0027583  -0.0012037   0.0011656   0.0005520  -0.0100409
           13
    1   0.0036283
    2   0.0038159
    3  -0.0008959
 Max gradient component =       1.607E-02
 RMS gradient           =       4.690E-03
 Gradient time:  CPU 7.26 s  wall 1.88 s
 ----------------------------------------------------------------
             Standard Nuclear Orientation (Angstroms)
    I     Atom           X                Y                Z
 ----------------------------------------------------------------
    1      C       1.5336627915     0.0670734192    -0.3985066228
    2      C       0.2627858768    -1.5049491857     0.8731557445
    3      C      -1.0144163449    -1.1865109150     0.7257699722
    4      C      -1.5026869676     0.1058910061     0.2519724896
    5      C      -0.7212808852     1.1423610134    -0.1044343173
    6      N       0.6971257751     1.2663857875    -0.0365250142
    7      H       2.2416747611    -0.5606713680     0.1043872832
    8      H       0.8180061463    -2.3598588318     1.2565101424
    9      H      -1.7723308839    -1.9328976422     0.9802482739
   10      H      -2.5841698290     0.2454972012     0.2282714788
   11      H      -1.1756606671     2.0902961203    -0.4026946580
   12      C       1.4059563957     0.9992076704    -1.3199220887
   13      H       1.8046028735     1.6069901996    -2.1249614669
 ----------------------------------------------------------------
 Nuclear Repulsion Energy =   256.4525881997 hartrees
 There are       25 alpha and       24 beta electrons

                       Distance Matrix (Angstroms)
             C (  1)   C (  2)   C (  3)   C (  4)   C (  5)   N (  6)
   C (  2)  2.388202
   C (  3)  3.054207  1.324527
   C (  4)  3.105487  2.469326  1.460546
   C (  5)  2.515451  2.988699  2.489741  1.346065
   N (  6)  1.506378  2.948977  3.086612  2.503828  1.425437
   H (  7)  1.071563  2.323503  3.373414  3.806091  3.423891  2.396586
   H (  8)  3.023449  1.089082  2.239688  3.531945  4.060433  3.851779
   H (  9)  4.102492  2.082381  1.093749  2.181686  3.426143  4.167428
   H ( 10)  4.169080  3.403688  2.182264  1.090714  2.094138  3.446626
   H ( 11)  3.381402  4.077096  3.469423  2.115041  1.092704  2.078518
   C ( 12)  1.316886  3.519550  3.849731  3.424773  2.454189  1.490280
   H ( 13)  2.329248  4.588036  4.886429  4.340654  3.267797  2.388322
             H (  7)   H (  8)   H (  9)   H ( 10)   H ( 11)   C ( 12)
   H (  8)  2.567352
   H (  9)  4.331556  2.639785
   H ( 10)  4.894286  4.406808  2.443349
   H ( 11)  4.354646  5.150878  4.295886  2.405265
   C ( 12)  2.271630  4.273993  4.897911  4.345813  2.948987
   H ( 13)  3.140029  5.305056  5.913340  5.162625  3.475882  1.084623

 
 Applying Cartesian multipole field
    Component          Value
    ---------          -----
     (2,0,0)        1.00000E-11
     (0,2,0)        2.00000E-11
     (0,0,2)       -3.00000E-11
 Nucleus-field energy     =     0.0000000043 hartrees
 Requested basis set is 6-31G(d)
 There are 40 shells and 117 basis functions
 A cutoff of  1.0D-14 yielded    791 shell pairs
 There are      7053 function pairs
 Smallest overlap matrix eigenvalue = 1.59E-03
 Guess MOs from core Hamiltonian diagonalization
 Mixing HOMO and LUMO in initial guess
 Adding  50% of the LUMO to the HOMO
 An unrestricted hybrid HF-DFT SCF calculation will be
 performed using Pulay DIIS extrapolation
 Exchange:     0.2000 Hartree-Fock + 0.0800 Slater + 0.7200 B88
 Correlation:  0.1900 VWN1RPA + 0.8100 LYP
 Using SG-1 standard quadrature grid
 SCF converges when DIIS error is below 1.0E-08
 using 4 threads for integral computing
 -------------------------------------------------------
 OpenMP Integral computing Module                
 Release: version 1.0, May 2013, Q-Chem Inc. Pittsburgh 
 -------------------------------------------------------
 -------------------------------------------------------
 OpenMP BLAS3 based DFT computing Module                
 Release: version 1.0, May 2013, Q-Chem Inc. Pittsburgh 
 -------------------------------------------------------
 ---------------------------------------
  Cycle       Energy         DIIS Error
 ---------------------------------------
    1    -231.1317511361      1.33E-01
    2    -198.2443105232      1.11E-01
    3    -242.0470562745      1.00E-01
    4    -266.4692272205      9.03E-02
    5    -277.2327240174      5.81E-02
    6    -284.3225504030      2.96E-02
    7    -285.3953136355      2.37E-02
    8    -286.6465638679      5.97E-03
    9    -286.6774526839      4.41E-03
   10    -286.7107151842      5.14E-04
   11    -286.7118780031      2.45E-04
   12    -286.7123073458      8.53E-05
   13    -286.7125477628      4.74E-05
   14    -286.7126332640      2.11E-05
   15    -286.7126946484      8.11E-06
   16    -286.7127290103      6.07E-06
   17    -286.7127489547      6.00E-06
   18    -286.7127640748      4.03E-06
   19    -286.7127745435      1.18E-06
   20    -286.7127750689      3.48E-07
   21    -286.7127751023      2.15E-07
   22    -286.7127751155      8.50E-08
   23    -286.7127751179      2.81E-08
   24    -286.7127751189      1.54E-08
   25    -286.7127751196      5.57E-09 Convergence criterion met
 ---------------------------------------
 <S^2> = 0.8106
 SCF time:  CPU 61.76 s  wall 21.52 s
 SCF   energy in the final basis set = -286.71277512
 Total energy in the final basis set = -286.71277512
 
 --------------------------------------------------------------
 
                    Orbital Energies (a.u.)
 --------------------------------------------------------------
 
 Alpha MOs
 -- Occupied --
-14.350 -10.239 -10.236 -10.207 -10.200 -10.194 -10.181  -0.970
 -0.801  -0.745  -0.667  -0.599  -0.586  -0.523  -0.492  -0.486
 -0.433  -0.411  -0.379  -0.367  -0.331  -0.302  -0.242  -0.208
 -0.191
 -- Virtual --
 -0.028  -0.008   0.098   0.102   0.106   0.129   0.139   0.162
  0.175   0.188   0.192   0.269   0.343   0.360   0.394   0.448
  0.494   0.502   0.505   0.544   0.547   0.563   0.583   0.597
  0.629   0.635   0.661   0.669   0.691   0.728   0.740   0.774
  0.793   0.844   0.858   0.867   0.895   0.912   0.939   0.944
  0.983   1.018   1.047   1.075   1.102   1.182   1.219   1.255
  1.306   1.376   1.454   1.519   1.523   1.538   1.633   1.682
  1.706   1.735   1.788   1.796   1.848   1.885   1.902   1.975
  1.997   2.029   2.091   2.168   2.192   2.253   2.274   2.297
  2.325   2.348   2.444   2.506   2.580   2.604   2.680   2.725
  2.784   2.792   2.903   2.934   3.175   3.954   4.085   4.165
  4.216   4.254   4.337   4.540
 
 Beta MOs
 -- Occupied --
-14.350 -10.239 -10.234 -10.208 -10.195 -10.185 -10.180  -0.968
 -0.797  -0.737  -0.659  -0.593  -0.576  -0.518  -0.487  -0.480
 -0.429  -0.403  -0.375  -0.364  -0.325  -0.297  -0.234  -0.187
 -- Virtual --
 -0.072  -0.016   0.004   0.101   0.106   0.107   0.132   0.145
  0.165   0.177   0.192   0.194   0.271   0.349   0.363   0.403
  0.454   0.497   0.506   0.510   0.547   0.562   0.567   0.586
  0.598   0.629   0.642   0.665   0.686   0.702   0.730   0.741
  0.779   0.796   0.846   0.864   0.868   0.906   0.915   0.943
  0.948   0.988   1.023   1.052   1.079   1.108   1.185   1.223
  1.261   1.309   1.383   1.459   1.521   1.526   1.550   1.639
  1.692   1.711   1.750   1.794   1.812   1.869   1.892   1.922
  1.983   2.008   2.038   2.102   2.174   2.194   2.255   2.278
  2.306   2.328   2.351   2.451   2.513   2.583   2.607   2.686
  2.730   2.791   2.797   2.907   2.937   3.181   3.955   4.090
  4.185   4.219   4.262   4.337   4.541
 --------------------------------------------------------------
 
          Ground-State Mulliken Net Atomic Charges

     Atom                 Charge (a.u.)    Spin (a.u.)
  --------------------------------------------------------
      1 C                    -0.042441      -0.229601
      2 C                    -0.222031       0.933257
      3 C                    -0.114838      -0.162279
      4 C                    -0.113449       0.060891
      5 C                     0.003613      -0.052293
      6 N                    -0.382047       0.021181
      7 H                     0.191952       0.014707
      8 H                     0.152659       0.006361
      9 H                     0.139417       0.072261
     10 H                     0.126024       0.000299
     11 H                     0.135859       0.006025
     12 C                    -0.050396       0.342872
     13 H                     0.175678      -0.013681
  --------------------------------------------------------
  Sum of atomic charges =     0.000000
  Sum of spin   charges =     1.000000

 -----------------------------------------------------------------
                    Cartesian Multipole Moments
 -----------------------------------------------------------------
    Charge (ESU x 10^10)
                -0.0000
    Dipole Moment (Debye)
         X       0.4461      Y      -0.8175      Z      -1.0580
       Tot       1.4095
    Quadrupole Moments (Debye-Ang)
        XX     -35.4026     XY      -1.4043     YY     -38.9374
        XZ      -2.0259     YZ      -5.3046     ZZ     -40.6073
    Octopole Moments (Debye-Ang^2)
       XXX      -8.1507    XXY      -6.8701    XYY      -3.8631
       YYY     -16.6824    XXZ      -1.4542    XYZ      -4.8047
       YYZ      -2.2407    XZZ       3.2814    YZZ      -0.1751
       ZZZ      -7.8379
    Hexadecapole Moments (Debye-Ang^3)
      XXXX    -365.7932   XXXY     -35.8910   XXYY    -112.9184
      XYYY     -41.8266   YYYY    -337.3481   XXXZ      53.8925
      XXYZ      11.9772   XYYZ      13.6742   YYYZ      53.7964
      XXZZ     -87.5186   XYZZ      -2.1620   YYZZ     -75.8198
      XZZZ      50.2520   YZZZ      64.9476   ZZZZ    -168.2856
 -----------------------------------------------------------------
 Calculating analytic gradient of the SCF energy
 Gradient of SCF Energy
            1           2           3           4           5           6
    1   0.0000238   0.0021416  -0.0032182   0.0007505  -0.0007768   0.0029019
    2  -0.0158273   0.0057861   0.0011355  -0.0000760  -0.0051461  -0.0028290
    3   0.0117749  -0.0004097  -0.0006390  -0.0004753   0.0001028  -0.0021956
            7           8           9          10          11          12
    1  -0.0044406   0.0030522   0.0024689  -0.0027943   0.0000288  -0.0037366
    2  -0.0011135  -0.0016742   0.0002283   0.0000721   0.0028036   0.0126870
    3  -0.0001612   0.0030080  -0.0013801   0.0012110   0.0005145  -0.0104013
           13
    1   0.0035987
    2   0.0039535
    3  -0.0009491
 Max gradient component =       1.583E-02
 RMS gradient           =       4.720E-03
 Gradient time:  CPU 7.08 s  wall 2.41 s
 E1 = -286.7128734, E2 = -286.7127751, Emax = -286.7128212
 Iteration 5, Curvature = -0.1986752
 Curvature, final (in Hartree/Bohr^2) = -0.0556347
 ----------------------------------------------------------------
             Standard Nuclear Orientation (Angstroms)
    I     Atom           X                Y                Z
 ----------------------------------------------------------------
    1      C       1.5355608404     0.0691814246    -0.3996552175
    2      C       0.2621791706    -1.5057991458     0.8756696623
    3      C      -1.0146043527    -1.1867137458     0.7261068398
    4      C      -1.5026343580     0.1057432109     0.2523084187
    5      C      -0.7211620818     1.1421325812    -0.1046545082
    6      N       0.6968987989     1.2663993102    -0.0365259418
    7      H       2.2401941439    -0.5620868358     0.1037127983
    8      H       0.8177236173    -2.3609315070     1.2575034758
    9      H      -1.7728177823    -1.9331794700     0.9793979417
   10      H      -2.5840954280     0.2454808585     0.2284863529
   11      H      -1.1756908597     2.0900346576    -0.4027961852
   12      C       1.4072350753     1.0004571749    -1.3202815173
   13      H       1.8045676871     1.6079829412    -2.1260255040
 ----------------------------------------------------------------
 Nuclear Repulsion Energy =   256.4022369961 hartrees
 There are       25 alpha and       24 beta electrons
 Requested basis set is 6-31G(d)
 There are 40 shells and 117 basis functions
 Geometry Optimization Parameters
   NAtoms,    NIC,     NZ,  NCons,   NDum,   NFix, NCnnct, MaxDiis
       13      81       0       0       0       0       0       0


** GEOMETRY OPTIMIZATION IN DELOCALIZED INTERNAL COORDINATES **
   Searching for a Minimum

   Optimization Cycle:   1

                       Coordinates (Angstroms)
     ATOM                X               Y               Z
      1  C         1.5355608404    0.0691814246   -0.3996552175
      2  C         0.2621791706   -1.5057991458    0.8756696623
      3  C        -1.0146043527   -1.1867137458    0.7261068398
      4  C        -1.5026343580    0.1057432109    0.2523084187
      5  C        -0.7211620818    1.1421325812   -0.1046545082
      6  N         0.6968987989    1.2663993102   -0.0365259418
      7  H         2.2401941439   -0.5620868358    0.1037127983
      8  H         0.8177236173   -2.3609315070    1.2575034758
      9  H        -1.7728177823   -1.9331794700    0.9793979417
     10  H        -2.5840954280    0.2454808585    0.2284863529
     11  H        -1.1756908597    2.0900346576   -0.4027961852
     12  C         1.4072350753    1.0004571749   -1.3202815173
     13  H         1.8045676871    1.6079829412   -2.1260255040
   Point Group: c1    Number of degrees of freedom:    33


   Energy is   -286.712775120


 Attempting to Generate Delocalized Internal Coordinates

 33 Hessian modes will be used to form the next step
  Hessian Eigenvalues:
     0.012322    0.014402    0.020543    0.021810    0.022087    0.022718
     0.026491    0.029525    0.032391    0.039966    0.068477    0.084851
     0.141328    0.159555    0.159920    0.159998    0.160000    0.220001
     0.220027    0.220182    0.274724    0.301886    0.343846    0.345020
     0.347305    0.349414    0.354537    0.369000    0.370251    0.416979
     0.512548    0.558402    0.608182

 Minimum Search - Taking Simple RFO Step
 Searching for Lamda that Minimizes Along All modes
 Value Taken    Lamda =  -0.01638322
 Calculated Step too Large.  Step scaled by  0.595728
 Step Taken.  Stepsize is  0.300000

                             Maximum     Tolerance    Cnvgd?
         Gradient           0.039935      0.000300      NO
         Displacement       0.233031      0.001200      NO
         Energy change     *********      0.000001      NO


 New Cartesian Coordinates Obtained by Inverse Iteration

 Displacement from previous Coordinates is:  1.242563
 ----------------------------------------------------------------
             Standard Nuclear Orientation (Angstroms)
    I     Atom           X                Y                Z
 ----------------------------------------------------------------
    1      C       1.6784805107     0.2140532648    -0.3008949031
    2      C       0.1878420000    -1.6661265785     0.8108548320
    3      C      -1.0540769106    -1.2170487720     0.7434216533
    4      C      -1.4723255795     0.1088044655     0.2875384414
    5      C      -0.6951710806     1.1405477703    -0.1017315933
    6      N       0.7158140241     1.3471005425    -0.0612779140
    7      H       2.4857990085    -0.2431099919     0.2392216547
    8      H       0.6637848717    -2.5844163971     1.1403042137
    9      H      -1.8650231318    -1.9004598004     1.0186716501
   10      H      -2.5470783538     0.2789986927     0.2677175729
   11      H      -1.1826066173     2.0573107811    -0.4358191607
   12      C       1.3975174313     0.9659845406    -1.3326389413
   13      H       1.6803982983     1.4770629373    -2.2421208902
 ----------------------------------------------------------------
 Nuclear Repulsion Energy =   253.0599047913 hartrees
 There are       25 alpha and       24 beta electrons

































 Eigenvalues after right structure
 -0.0714368 -0.0000000 -0.0000000 -0.0000000 0.0000000 0.0000000 0.0000012 0.0027155 0.0040326 0.0085374 0.0185917 0.0214122 0.0373521 0.0427486 0.0613030 0.0668791 0.0704410 0.0772239 0.1020931 0.1166294 0.1389485 0.1684878 0.2106137 0.2563843 0.2915701 0.3383598 0.3432318 0.3886303 0.5001625 0.6547487 0.7542222 0.8143928 0.9287887 1.0029569 1.1178233 1.2150390 1.6108180 1.6156703 1.8312531
Archival summary:
1\1\c8-68\JobtypUnspecified\ProcedureUnspecified\6-31G*\166(2)\hpark21\WedMar220:29:582022WedMar220:29:582022\0\\#,JobtypUnspecified,ProcedureUnspecified,6-31G*,\\0,2\N\C,1,1.4266\H,2,1.09072,1,109.208\C,2,1.34907,1,132.246,3,-173.773,0\H,4,1.08833,2,116.361,1,171.538,0\C,4,1.4631,2,128.19,1,-8.08847,0\H,6,1.09565,4,115.59,2,179.556,0\C,6,1.32234,4,126.308,2,-2.66301,0\H,8,1.0855,6,135.607,4,177.993,0\C,1,1.49209,2,113,3,-91.9333,0\H,10,1.08092,1,135.703,2,92.1199,0\C,10,1.30722,1,64.6983,2,-112.515,0\H,12,1.07354,10,143.483,1,-133.034,0\\\@

 Total job time:  1607.90s(wall), 4478.38s(cpu) 
 Wed Mar  2 20:29:58 2022

        *************************************************************
        *                                                           *
        *  Thank you very much for using Q-Chem.  Have a nice day.  *
        *                                                           *
        *************************************************************


