
Running Job 1 of 1 qcirc.in
qchem qcirc.in_40557.0 ./qcirc.d/ 1
/home/leeping/opt/qchem/5.0.2-openmp/exe/qcprog.exe_s qcirc.in_40557.0 ./qcirc.d/
Check license passed

                  Welcome to Q-Chem
     A Quantum Leap Into The Future Of Chemistry


 Q-Chem 5.0, Q-Chem, Inc., Pleasanton, CA (2017)

 Yihan Shao,  Zhengting Gan,  E. Epifanovsky,  A. T. B. Gilbert,  M. Wormit,  
 J. Kussmann,  A. W. Lange,  A. Behn,  Jia Deng,  Xintian Feng,  D. Ghosh,  
 M. Goldey,  P. R. Horn,  L. D. Jacobson,  I. Kaliman,  T. Kus,  A. Landau,  
 Jie Liu,  E. I. Proynov,  R. M. Richard,  R. P. Steele,  E. J. Sundstrom,  
 H. L. Woodcock III,  P. M. Zimmerman,  D. Zuev,  B. Albrecht,  E. Alguire,  
 S. A. Baeppler,  D. Barton,  Z. Benda,  Y. A. Bernard,  E. J. Berquist,  
 K. B. Bravaya,  H. Burton,  D. Casanova,  Chun-Min Chang,  Yunqing Chen,  
 A. Chien,  K. D. Closser,  M. P. Coons,  S. Dasgupta,  A. L. Dempwolff,  
 M. Diedenhofen,  Hainam Do,  R. G. Edgar,  Po-Tung Fang,  S. Fatehi,  
 Qingguo Feng,  J. Fosso-Tande,  Qinghui Ge,  A. Ghysels,  G. Gidofalvi,  
 J. Gomes,  J. Gonthier,  A. Gunina,  M. W. D. Hanson-Heine,  
 P. H. P. Harbach,  A. W. Hauser,  J. E. Herr,  E. G. Hohenstein,  
 Z. C. Holden,  Kerwin Hui,  T.-C. Jagau,  Hyunjun Ji,  B. Kaduk,  
 K. Khistyaev,  Jaehoon Kim,  P. Klunzinger,  K. Koh,  D. Kosenkov,  
 L. Koulias,  T. Kowalczyk,  C. M. Krauter,  A. Kunitsa,  Ka Un Lao,  
 A. Laurent,  K. V. Lawler,  Joonho Lee,  D. Lefrancois,  S. Lehtola,  
 D. S. Levine,  Yi-Pei Li,  You-Sheng Lin,  Fenglai Liu,  E. Livshits,  
 A. Luenser,  P. Manohar,  E. Mansoor,  S. F. Manzer,  Shan-Ping Mao,  
 Yuezhi Mao,  N. Mardirossian,  A. V. Marenich,  T. Markovich,  
 L. A. Martinez-Martinez,  S. A. Maurer,  N. J. Mayhall,  S. C. McKenzie,  
 J.-M. Mewes,  A. F. Morrison,  J. W. Mullinax,  K. Nanda,  
 T. S. Nguyen-Beck,  R. Olivares-Amaya,  J. A. Parkhill,  T. M. Perrine,  
 F. Plasser,  S. Prager,  A. Prociuk,  E. Ramos,  D. R. Rehn,  F. Rob,  
 M. Schneider,  N. Sergueev,  S. M. Sharada,  S. Sharma,  D. W. Small,  
 T. Stauch,  T. Stein,  Yu-Chuan Su,  A. J. W. Thom,  A. Tkatchenko,  
 T. Tsuchimochi,  L. Vogt,  O. Vydrov,  M. A. Watson,  J. Wenzel,  
 M. de Wergifosse,  T. A. Wesolowski,  A. White,  J. Witte,  A. Yamada,  
 Jun Yang,  K. Yao,  S. Yeganeh,  S. R. Yost,  Zhi-Qiang You,  A. Zech,  
 Igor Ying Zhang,  Xing Zhang,  Yan Zhao,  Ying Zhu,  B. R. Brooks,  
 G. K. L. Chan,  C. J. Cramer,  M. S. Gordon,  W. J. Hehre,  A. Klamt,  
 M. W. Schmidt,  C. D. Sherrill,  D. G. Truhlar,  A. Aspuru-Guzik,  R. Baer,  
 A. T. Bell,  N. A. Besley,  Jeng-Da Chai,  R. A. DiStasio Jr.,  A. Dreuw,  
 B. D. Dunietz,  T. R. Furlani,  Chao-Ping Hsu,  Yousung Jung,  Jing Kong,  
 D. S. Lambrecht,  WanZhen Liang,  C. Ochsenfeld,  V. A. Rassolov,  
 L. V. Slipchenko,  J. E. Subotnik,  T. Van Voorhis,  J. M. Herbert,  
 A. I. Krylov,  P. M. W. Gill,  M. Head-Gordon

 Contributors to earlier versions of Q-Chem not listed above: 
 R. D. Adamson,  B. Austin,  J. Baker,  G. J. O. Beran,  K. Brandhorst,  
 S. T. Brown,  E. F. C. Byrd,  A. K. Chakraborty,  C.-L. Cheng,  
 Siu Hung Chien,  D. M. Chipman,  D. L. Crittenden,  H. Dachsel,  
 R. J. Doerksen,  A. D. Dutoi,  L. Fusti-Molnar,  W. A. Goddard III,  
 A. Golubeva-Zadorozhnaya,  S. R. Gwaltney,  G. Hawkins,  A. Heyden,  
 S. Hirata,  G. Kedziora,  F. J. Keil,  C. Kelley,  Jihan Kim,  R. A. King,  
 R. Z. Khaliullin,  P. P. Korambath,  W. Kurlancheek,  A. M. Lee,  M. S. Lee,  
 S. V. Levchenko,  Ching Yeh Lin,  D. Liotard,  R. C. Lochan,  I. Lotan,  
 P. E. Maslen,  N. Nair,  D. P. O'Neill,  D. Neuhauser,  E. Neuscamman,  
 C. M. Oana,  R. Olson,  B. Peters,  R. Peverati,  P. A. Pieniazek,  
 Y. M. Rhee,  J. Ritchie,  M. A. Rohrdanz,  E. Rosta,  N. J. Russ,  
 H. F. Schaefer III,  N. E. Schultz,  N. Shenvi,  A. C. Simmonett,  A. Sodt,  
 D. Stuck,  K. S. Thanthiriwatte,  V. Vanovschi,  Tao Wang,  A. Warshel,  
 C. F. Williams,  Q. Wu,  X. Xu,  W. Zhang

 Please cite Q-Chem as follows:
 Y. Shao et al., Mol. Phys. 113, 184-215 (2015)
 DOI: 10.1080/00268976.2014.952696

 Q-Chem 5.0.2 for Intel X86 EM64T Linux

 Parts of Q-Chem use Armadillo 5.200.1 (Boston Tea Smuggler).
 http://arma.sourceforge.net/

 Q-Chem begins on Thu Mar  3 03:36:06 2022  

Host: 
0

     Scratch files written to ./qcirc.d//
 Dec517 15110_ 26548  26544 5633   
Processing $rem in /home/leeping/opt/qchem/5.0.2-openmp/config/preferences.
 MEM_STATIC 2000
 MEM_TOTAL  8000
 SYMMETRY   OFF
 SYM_IGNORE TRUE 

Checking the input file for inconsistencies... 	...done.

--------------------------------------------------------------
User input:
--------------------------------------------------------------
$molecule
0 2
C        1.7124023074    0.3570010938   -0.2954301372
C        0.1782871412   -1.8207164634    0.7523134609
C       -0.9976233437   -1.2167238966    0.7988114462
C       -1.4142363806    0.0897522221    0.2759000108
C       -0.6959589012    1.1491340711   -0.1582265402
N        0.6895701670    1.4414244162   -0.1032102182
H        2.2501400818   -0.3459026385    0.3117679468
H        0.5779547538   -2.7779833393    1.0602689736
H       -1.8122977856   -1.7822445894    1.2725577962
H       -2.4928310126    0.2253100378    0.2393135817
H       -1.2522810800    2.0150319703   -0.5158559720
C        1.5281503633    1.1130942520   -1.3165792116
H        1.7220781617    1.5315243228   -2.2883845309
$end

$rem
method                b3lyp
basis                 6-31+g(d,p)
unrestricted          true
symmetry              off
sym_ignore            true
incdft                false
incfock               0
scf_convergence       8
thresh                14
jobtype               opt
scf_guess             read
scf_algorithm         diis
max_scf_cycles        100
geom_opt_max_cycles   300
$end

--------------------------------------------------------------
 ----------------------------------------------------------------
             Standard Nuclear Orientation (Angstroms)
    I     Atom           X                Y                Z
 ----------------------------------------------------------------
    1      C       1.7124023074     0.3570010938    -0.2954301372
    2      C       0.1782871412    -1.8207164634     0.7523134609
    3      C      -0.9976233437    -1.2167238966     0.7988114462
    4      C      -1.4142363806     0.0897522221     0.2759000108
    5      C      -0.6959589012     1.1491340711    -0.1582265402
    6      N       0.6895701670     1.4414244162    -0.1032102182
    7      H       2.2501400818    -0.3459026385     0.3117679468
    8      H       0.5779547538    -2.7779833393     1.0602689736
    9      H      -1.8122977856    -1.7822445894     1.2725577962
   10      H      -2.4928310126     0.2253100378     0.2393135817
   11      H      -1.2522810800     2.0150319703    -0.5158559720
   12      C       1.5281503633     1.1130942520    -1.3165792116
   13      H       1.7220781617     1.5315243228    -2.2883845309
 ----------------------------------------------------------------
 Nuclear Repulsion Energy =   250.5758509777 hartrees
 There are       25 alpha and       24 beta electrons
 Requested basis set is 6-31+G(d,p)
 There are 53 shells and 163 basis functions

 Total QAlloc Memory Limit   8000 MB
 Mega-Array Size      1956 MB
 MEM_STATIC part      2000 MB
 A cutoff of  1.0D-14 yielded   1351 shell pairs
 There are     13295 function pairs
 
 -------------------------------------------------------
 OpenMP Integral Computing Module                       
 Release: version 1.0, May 2013, Q-Chem Inc. Pittsburgh 
 -------------------------------------------------------
 Integral Job Info:
 Integral job number is                      11
 Integral operator is                         1
 short-range coefficients                     0
 long-range coefficients              100000000
 Omega coefficients                           0
 if combine SR and LR in K                    0
 Integral screening is                        0
 Integral computing path is                   2
 max size of driver memory is            800000
 size of driver memory is                593474
 size of scratch memory is              2361544
 max col of scratch BK array               1296
 max len of scratch array in speh3          155
 max len of scratch index in speh4           18
 max int batch size is                      520
 min int batch size is                       52
 fixed nKL is                                52
 max L of basis functions is                  2
 order of int derivative is                   0
 number of shells is                         53
 number of basis is                         163
 number of cartesian basis is               163
 number of contracted shell pairs          1351
 number of primitive shell pairs           4461
 maxK2 (contraction) of shell pair           36
 max number of K2 of shell pair               1
 max number of CS2 of shell pair            128
 max number of PS2 of shell pair            720
 mem total for path MDJ                  532812
 -------------------------------------------------------
 Smallest overlap matrix eigenvalue = 2.19E-05

 Scale SEOQF with 1.000000e-01/1.000000e-01/1.000000e-01

 Standard Electronic Orientation quadrupole field applied
 Nucleus-field energy     =     0.0000000053 hartrees
 Guess MOs from SCF MO coefficient file
 Reading MOs from coefficient file
 Reading MOs from coefficient file
 An unrestricted hybrid HF-DFT SCF calculation will be
 performed using Pulay DIIS extrapolation
 Exchange:     0.2000 Hartree-Fock + 0.0800 Slater + 0.7200 B88
 Correlation:  0.1900 VWN1RPA + 0.8100 LYP
 Using SG-1 standard quadrature grid
 SCF converges when DIIS error is below 1.0E-08
Using Q-Chem read-in guess as SCF_GUESS READ specified.

 using 4 threads for integral computing
 -------------------------------------------------------
 OpenMP Integral computing Module                
 Release: version 1.0, May 2013, Q-Chem Inc. Pittsburgh 
 -------------------------------------------------------
 -------------------------------------------------------
 OpenMP BLAS3 based DFT computing Module                
 Release: version 1.0, May 2013, Q-Chem Inc. Pittsburgh 
 -------------------------------------------------------
 ---------------------------------------
  Cycle       Energy         DIIS Error
 ---------------------------------------
    1    -285.9331810228      1.74E-02
    2    -286.4520077676      7.86E-03
    3    -286.2255226730      1.00E-02
    4    -286.6222029293      4.60E-03
    5    -286.7302985291      1.64E-03
    6    -286.7415121870      6.36E-04
    7    -286.7441428494      2.36E-04
    8    -286.7448772846      1.19E-04
    9    -286.7450837116      5.04E-05
   10    -286.7451834642      2.64E-05
   11    -286.7452133808      8.09E-06
   12    -286.7452419221      3.50E-06
   13    -286.7452583497      1.80E-06
   14    -286.7452622895      9.63E-07
   15    -286.7452631746      4.43E-07
   16    -286.7452640102      3.09E-07
   17    -286.7452644326      1.51E-07
   18    -286.7452644987      8.35E-08
   19    -286.7452645025      2.05E-08
   20    -286.7452645028      6.52E-09 Convergence criterion met
 ---------------------------------------
 <S^2> = 0.7686
 SCF time:  CPU 96.86 s  wall 36.91 s
 SCF   energy in the final basis set = -286.74526450
 Total energy in the final basis set = -286.74526450
 
 --------------------------------------------------------------
 
                    Orbital Energies (a.u.)
 --------------------------------------------------------------
 
 Alpha MOs
 -- Occupied --
-14.365 -10.250 -10.247 -10.219 -10.214 -10.209 -10.195  -0.981
 -0.811  -0.762  -0.685  -0.604  -0.601  -0.545  -0.498  -0.494
 -0.445  -0.427  -0.390  -0.380  -0.334  -0.318  -0.251  -0.234
 -0.206
 -- Virtual --
 -0.044  -0.022   0.010   0.014   0.019   0.035   0.043   0.048
  0.065   0.072   0.075   0.078   0.080   0.092   0.103   0.117
  0.128   0.135   0.141   0.143   0.147   0.155   0.162   0.172
  0.189   0.194   0.199   0.201   0.209   0.214   0.231   0.237
  0.242   0.258   0.268   0.283   0.306   0.311   0.319   0.334
  0.373   0.442   0.484   0.509   0.578   0.626   0.656   0.662
  0.674   0.691   0.694   0.727   0.737   0.749   0.766   0.799
  0.802   0.849   0.862   0.902   0.939   0.948   0.960   0.977
  0.990   1.023   1.033   1.051   1.077   1.122   1.151   1.166
  1.180   1.228   1.252   1.285   1.316   1.374   1.391   1.405
  1.443   1.472   1.532   1.609   1.631   1.656   1.689   1.743
  1.805   1.825   1.861   1.918   1.934   1.948   1.984   2.031
  2.034   2.074   2.113   2.174   2.205   2.244   2.300   2.338
  2.375   2.383   2.417   2.434   2.447   2.484   2.488   2.512
  2.547   2.592   2.610   2.670   2.684   2.691   2.782   2.795
  2.857   2.930   3.056   3.112   3.226   3.291   3.349   3.364
  3.491   3.698   3.782   4.161   4.258   4.380   4.466   4.588
  4.683   4.981
 
 Beta MOs
 -- Occupied --
-14.365 -10.249 -10.247 -10.220 -10.211 -10.199 -10.194  -0.981
 -0.807  -0.754  -0.677  -0.602  -0.591  -0.540  -0.491  -0.487
 -0.442  -0.416  -0.388  -0.379  -0.331  -0.315  -0.242  -0.203
 -- Virtual --
 -0.089  -0.036  -0.016   0.012   0.014   0.021   0.036   0.044
  0.049   0.065   0.073   0.076   0.082   0.083   0.095   0.103
  0.119   0.130   0.138   0.142   0.144   0.148   0.156   0.164
  0.173   0.190   0.196   0.201   0.204   0.210   0.217   0.232
  0.238   0.244   0.260   0.269   0.286   0.305   0.313   0.320
  0.336   0.381   0.450   0.486   0.517   0.580   0.636   0.660
  0.671   0.686   0.694   0.700   0.731   0.744   0.751   0.768
  0.799   0.806   0.851   0.872   0.906   0.943   0.949   0.965
  0.984   0.991   1.033   1.034   1.057   1.080   1.123   1.157
  1.168   1.181   1.233   1.255   1.289   1.319   1.378   1.397
  1.408   1.447   1.480   1.535   1.619   1.653   1.686   1.698
  1.746   1.809   1.844   1.872   1.924   1.939   1.959   1.988
  2.031   2.042   2.081   2.119   2.179   2.206   2.248   2.304
  2.345   2.378   2.389   2.424   2.436   2.448   2.486   2.493
  2.514   2.549   2.595   2.612   2.674   2.694   2.707   2.787
  2.804   2.859   2.934   3.060   3.112   3.230   3.296   3.354
  3.366   3.501   3.707   3.782   4.161   4.264   4.397   4.476
  4.590   4.686   4.981
 --------------------------------------------------------------
 
          Ground-State Mulliken Net Atomic Charges

     Atom                 Charge (a.u.)    Spin (a.u.)
  --------------------------------------------------------
      1 C                    -0.180431      -0.084279
      2 C                    -0.252418       1.114190
      3 C                    -0.180255      -0.238164
      4 C                     0.015256       0.080591
      5 C                    -0.158552      -0.063766
      6 N                    -0.149230       0.003428
      7 H                     0.172762       0.001528
      8 H                     0.149694       0.008836
      9 H                     0.139209       0.081636
     10 H                     0.118805      -0.001623
     11 H                     0.124630       0.003577
     12 C                     0.038677       0.097821
     13 H                     0.161853      -0.003775
  --------------------------------------------------------
  Sum of atomic charges =    -0.000000
  Sum of spin   charges =     1.000000

 -----------------------------------------------------------------
                    Cartesian Multipole Moments
 -----------------------------------------------------------------
    Charge (ESU x 10^10)
                 0.0000
    Dipole Moment (Debye)
         X       0.4095      Y      -0.9977      Z      -1.0786
       Tot       1.5252
    Quadrupole Moments (Debye-Ang)
        XX     -37.1234     XY      -1.6886     YY     -41.9881
        XZ      -2.2548     YZ      -6.2493     ZZ     -40.8124
    Octopole Moments (Debye-Ang^2)
       XXX     -14.3359    XXY      -7.6414    XYY      -6.7106
       YYY     -26.7152    XXZ       0.3082    XYZ      -3.4714
       YYZ      -2.0403    XZZ       2.3435    YZZ       0.9147
       ZZZ     -11.5898
    Hexadecapole Moments (Debye-Ang^3)
      XXXX    -407.0135   XXXY     -57.6939   XXYY    -139.5613
      XYYY     -69.9141   YYYY    -429.5488   XXXZ      62.8599
      XXYZ      15.5654   XYYZ      15.5660   YYYZ      58.4715
      XXZZ     -93.4399   XYZZ      -4.4325   YYZZ     -91.5975
      XZZZ      50.0786   YZZZ      72.3690   ZZZZ    -174.7809
 -----------------------------------------------------------------
 Calculating analytic gradient of the SCF energy
 Gradient of SCF Energy
            1           2           3           4           5           6
    1  -0.0001180   0.0001935  -0.0001445   0.0000096  -0.0000471  -0.0000224
    2   0.0001017  -0.0001112   0.0001492   0.0000468   0.0000354   0.0000547
    3   0.0001387  -0.0004132  -0.0000595   0.0000212   0.0000324  -0.0000864
            7           8           9          10          11          12
    1   0.0001182   0.0000829   0.0001331  -0.0000616  -0.0000856  -0.0000200
    2   0.0002489   0.0000905   0.0000721   0.0000516   0.0000969  -0.0002693
    3   0.0005393  -0.0005442   0.0001780   0.0001021   0.0000520   0.0000042
           13
    1  -0.0000380
    2  -0.0005675
    3   0.0000355
 Max gradient component =       5.675E-04
 RMS gradient           =       1.958E-04
 Gradient time:  CPU 15.48 s  wall 4.12 s
 Geometry Optimization Parameters
   NAtoms,    NIC,     NZ,  NCons,   NDum,   NFix, NCnnct, MaxDiis
       13      81       0       0       0       0       0       0


** GEOMETRY OPTIMIZATION IN DELOCALIZED INTERNAL COORDINATES **
   Searching for a Minimum

   Optimization Cycle:   1

                       Coordinates (Angstroms)
     ATOM                X               Y               Z
      1  C         1.7124023074    0.3570010938   -0.2954301372
      2  C         0.1782871412   -1.8207164634    0.7523134609
      3  C        -0.9976233437   -1.2167238966    0.7988114462
      4  C        -1.4142363806    0.0897522221    0.2759000108
      5  C        -0.6959589012    1.1491340711   -0.1582265402
      6  N         0.6895701670    1.4414244162   -0.1032102182
      7  H         2.2501400818   -0.3459026385    0.3117679468
      8  H         0.5779547538   -2.7779833393    1.0602689736
      9  H        -1.8122977856   -1.7822445894    1.2725577962
     10  H        -2.4928310126    0.2253100378    0.2393135817
     11  H        -1.2522810800    2.0150319703   -0.5158559720
     12  C         1.5281503633    1.1130942520   -1.3165792116
     13  H         1.7220781617    1.5315243228   -2.2883845309
   Point Group: c1    Number of degrees of freedom:    33


   Energy is   -286.745264503


 Attempting to Generate Delocalized Internal Coordinates

 33 Hessian modes will be used to form the next step
  Hessian Eigenvalues:
     0.013384    0.013463    0.020047    0.021194    0.021825    0.022908
     0.024601    0.028816    0.032622    0.037203    0.119447    0.134390
     0.151001    0.159403    0.159971    0.159999    0.160000    0.220001
     0.220021    0.220303    0.271225    0.297268    0.337857    0.348619
     0.350804    0.357423    0.360277    0.365208    0.368189    0.429012
     0.546936    0.575431    0.612451

 Minimum Search - Taking Simple RFO Step
 Searching for Lamda that Minimizes Along All modes
 Value Taken    Lamda =  -0.00092847
 Step Taken.  Stepsize is  0.227332

                             Maximum     Tolerance    Cnvgd?
         Gradient           0.003915      0.000300      NO
         Displacement       0.182796      0.001200      NO
         Energy change     *********      0.000001      NO


 New Cartesian Coordinates Obtained by Inverse Iteration

 Displacement from previous Coordinates is:  0.817789
 ----------------------------------------------------------------
             Standard Nuclear Orientation (Angstroms)
    I     Atom           X                Y                Z
 ----------------------------------------------------------------
    1      C       1.7242958890     0.3404150845    -0.4031642736
    2      C       0.1568423031    -1.8348219863     0.8858635210
    3      C      -1.0220180855    -1.2386715223     0.8229483617
    4      C      -1.4080848187     0.0591442031     0.2553071885
    5      C      -0.6750820194     1.1172240475    -0.1586478473
    6      N       0.7107465700     1.4052260165    -0.0866981043
    7      H       2.2558407213    -0.4336991521     0.1159845663
    8      H       0.5326681289    -2.7810541633     1.2532620498
    9      H      -1.8657600195    -1.7964189880     1.2532565686
   10      H      -2.4840704284     0.1997588601     0.1821602533
   11      H      -1.2232745599     1.9900994905    -0.5113496842
   12      C       1.5470815434     1.2116088215    -1.3295853332
   13      H       1.7441692482     1.7398907471    -2.2460906603
 ----------------------------------------------------------------
 Nuclear Repulsion Energy =   249.3909811476 hartrees
 There are       25 alpha and       24 beta electrons
 Applying Cartesian multipole field
    Component          Value
    ---------          -----
     (2,0,0)        1.00000E-11
     (0,2,0)        2.00000E-11
     (0,0,2)       -3.00000E-11
 Nucleus-field energy     =     0.0000000052 hartrees
 Requested basis set is 6-31+G(d,p)
 There are 53 shells and 163 basis functions
 A cutoff of  1.0D-14 yielded   1346 shell pairs
 There are     13241 function pairs
 Smallest overlap matrix eigenvalue = 2.10E-05
 Guess MOs from SCF MO coefficient file
 Reading MOs from coefficient file
 Reading MOs from coefficient file
 An unrestricted hybrid HF-DFT SCF calculation will be
 performed using Pulay DIIS extrapolation
 Exchange:     0.2000 Hartree-Fock + 0.0800 Slater + 0.7200 B88
 Correlation:  0.1900 VWN1RPA + 0.8100 LYP
 Using SG-1 standard quadrature grid
 SCF converges when DIIS error is below 1.0E-08
 Geometry optimization detected.  Setting ReadMinima to 0
 Setting SaveMinima to 0
Using Q-Chem read-in guess as SCF_GUESS READ specified.

 using 4 threads for integral computing
 -------------------------------------------------------
 OpenMP Integral computing Module                
 Release: version 1.0, May 2013, Q-Chem Inc. Pittsburgh 
 -------------------------------------------------------
 -------------------------------------------------------
 OpenMP BLAS3 based DFT computing Module                
 Release: version 1.0, May 2013, Q-Chem Inc. Pittsburgh 
 -------------------------------------------------------
 ---------------------------------------
  Cycle       Energy         DIIS Error
 ---------------------------------------
    1    -286.7244722690      2.65E-03
    2    -286.7456087124      3.33E-04
    3    -286.7456533307      3.89E-04
    4    -286.7461478604      1.05E-04
    5    -286.7461834562      4.95E-05
    6    -286.7461960367      1.39E-05
    7    -286.7461990937      7.67E-06
    8    -286.7462008197      2.89E-06
    9    -286.7462018713      1.76E-06
   10    -286.7462028885      8.69E-07
   11    -286.7462031091      3.91E-07
   12    -286.7462032385      1.65E-07
   13    -286.7462032901      1.11E-07
   14    -286.7462033213      5.51E-08
   15    -286.7462033522      2.80E-08
   16    -286.7462033563      1.24E-08
   17    -286.7462033567      4.38E-09 Convergence criterion met
 ---------------------------------------
 <S^2> = 0.7667
 SCF time:  CPU 82.73 s  wall 30.17 s
 SCF   energy in the final basis set = -286.74620336
 Total energy in the final basis set = -286.74620336
 
 --------------------------------------------------------------
 
                    Orbital Energies (a.u.)
 --------------------------------------------------------------
 
 Alpha MOs
 -- Occupied --
-14.366 -10.251 -10.248 -10.220 -10.215 -10.209 -10.195  -0.982
 -0.811  -0.762  -0.686  -0.604  -0.601  -0.546  -0.498  -0.493
 -0.446  -0.427  -0.391  -0.380  -0.332  -0.318  -0.252  -0.237
 -0.206
 -- Virtual --
 -0.042  -0.025   0.010   0.014   0.018   0.034   0.042   0.050
  0.064   0.071   0.075   0.077   0.081   0.094   0.104   0.117
  0.128   0.135   0.142   0.144   0.146   0.155   0.164   0.174
  0.186   0.195   0.197   0.205   0.209   0.213   0.226   0.240
  0.245   0.257   0.264   0.287   0.302   0.311   0.315   0.332
  0.373   0.440   0.484   0.506   0.577   0.620   0.649   0.669
  0.673   0.690   0.696   0.725   0.727   0.748   0.766   0.799
  0.802   0.848   0.857   0.904   0.941   0.948   0.962   0.983
  0.987   1.019   1.035   1.053   1.075   1.122   1.148   1.161
  1.180   1.230   1.252   1.280   1.319   1.370   1.379   1.422
  1.434   1.470   1.527   1.598   1.624   1.658   1.686   1.742
  1.806   1.828   1.856   1.913   1.938   1.943   1.987   2.029
  2.032   2.070   2.112   2.173   2.207   2.236   2.304   2.340
  2.375   2.384   2.416   2.433   2.447   2.476   2.486   2.509
  2.544   2.591   2.606   2.667   2.687   2.693   2.785   2.799
  2.853   2.927   3.059   3.107   3.225   3.291   3.350   3.365
  3.488   3.697   3.776   4.155   4.251   4.375   4.465   4.587
  4.684   4.974
 
 Beta MOs
 -- Occupied --
-14.366 -10.250 -10.248 -10.221 -10.210 -10.199 -10.194  -0.982
 -0.807  -0.754  -0.678  -0.603  -0.590  -0.541  -0.491  -0.486
 -0.443  -0.416  -0.390  -0.378  -0.330  -0.315  -0.245  -0.203
 -- Virtual --
 -0.089  -0.035  -0.021   0.011   0.014   0.020   0.035   0.042
  0.051   0.064   0.072   0.076   0.079   0.084   0.096   0.105
  0.119   0.129   0.137   0.143   0.145   0.147   0.157   0.165
  0.175   0.187   0.196   0.201   0.206   0.213   0.213   0.227
  0.242   0.245   0.259   0.266   0.290   0.303   0.312   0.315
  0.335   0.381   0.449   0.484   0.515   0.580   0.631   0.657
  0.673   0.682   0.693   0.702   0.729   0.735   0.750   0.767
  0.799   0.806   0.850   0.867   0.906   0.944   0.950   0.966
  0.987   0.992   1.031   1.036   1.058   1.078   1.125   1.153
  1.162   1.182   1.235   1.257   1.284   1.320   1.375   1.382
  1.428   1.437   1.476   1.528   1.604   1.659   1.677   1.695
  1.745   1.809   1.848   1.866   1.919   1.944   1.954   1.991
  2.032   2.037   2.077   2.118   2.178   2.208   2.240   2.307
  2.347   2.378   2.389   2.423   2.436   2.448   2.478   2.490
  2.511   2.547   2.593   2.608   2.671   2.697   2.710   2.789
  2.807   2.855   2.931   3.063   3.107   3.229   3.296   3.354
  3.367   3.499   3.706   3.776   4.155   4.257   4.393   4.475
  4.588   4.687   4.974
 --------------------------------------------------------------
 
          Ground-State Mulliken Net Atomic Charges

     Atom                 Charge (a.u.)    Spin (a.u.)
  --------------------------------------------------------
      1 C                    -0.139267      -0.051402
      2 C                    -0.262393       1.151747
      3 C                    -0.184083      -0.268622
      4 C                     0.002569       0.101206
      5 C                    -0.145601      -0.077369
      6 N                    -0.157138       0.001472
      7 H                     0.170902       0.000583
      8 H                     0.150468       0.009273
      9 H                     0.139667       0.083416
     10 H                     0.117937      -0.001934
     11 H                     0.123704       0.003704
     12 C                     0.020988       0.049497
     13 H                     0.162248      -0.001571
  --------------------------------------------------------
  Sum of atomic charges =     0.000000
  Sum of spin   charges =     1.000000

 -----------------------------------------------------------------
                    Cartesian Multipole Moments
 -----------------------------------------------------------------
    Charge (ESU x 10^10)
                 0.0000
    Dipole Moment (Debye)
         X       0.3980      Y      -0.8266      Z      -1.2176
       Tot       1.5245
    Quadrupole Moments (Debye-Ang)
        XX     -37.0348     XY      -1.3574     YY     -41.0006
        XZ      -2.5468     YZ      -6.7518     ZZ     -41.3674
    Octopole Moments (Debye-Ang^2)
       XXX     -14.8201    XXY      -7.5069    XYY      -5.6147
       YYY     -23.0222    XXZ      -0.9260    XYZ      -4.2541
       YYZ      -2.9942    XZZ       1.6596    YZZ       1.1552
       ZZZ     -11.0408
    Hexadecapole Moments (Debye-Ang^3)
      XXXX    -410.4539   XXXY     -63.2374   XXYY    -139.1723
      XYYY     -71.5863   YYYY    -430.4801   XXXZ      65.1902
      XXYZ      17.5976   XYYZ      14.4567   YYYZ      61.8740
      XXZZ     -97.5210   XYZZ      -5.9519   YYZZ     -90.2300
      XZZZ      55.9311   YZZZ      80.1287   ZZZZ    -192.2022
 -----------------------------------------------------------------
 Calculating analytic gradient of the SCF energy
 Gradient of SCF Energy
            1           2           3           4           5           6
    1  -0.0008856  -0.0008655  -0.0001816  -0.0000814  -0.0017573   0.0013278
    2  -0.0032854   0.0004333  -0.0017865   0.0011106  -0.0024451   0.0035545
    3   0.0012624  -0.0006482   0.0007579  -0.0015236   0.0026560  -0.0029860
            7           8           9          10          11          12
    1   0.0006845  -0.0000561   0.0001054  -0.0001257   0.0005467   0.0013067
    2   0.0017668  -0.0001979   0.0003446  -0.0003753   0.0002475   0.0009739
    3   0.0002918  -0.0005436   0.0007654  -0.0003995   0.0008388  -0.0003927
           13
    1  -0.0000179
    2  -0.0003411
    3  -0.0000786
 Max gradient component =       3.555E-03
 RMS gradient           =       1.343E-03
 Gradient time:  CPU 15.84 s  wall 4.39 s
 Geometry Optimization Parameters
   NAtoms,    NIC,     NZ,  NCons,   NDum,   NFix, NCnnct, MaxDiis
       13      81       0       0       0       0       0       0

 Cartesian Hessian Update
 Hessian Updated using BFGS Update


** GEOMETRY OPTIMIZATION IN DELOCALIZED INTERNAL COORDINATES **
   Searching for a Minimum

   Optimization Cycle:   2

                       Coordinates (Angstroms)
     ATOM                X               Y               Z
      1  C         1.7242958890    0.3404150845   -0.4031642736
      2  C         0.1568423031   -1.8348219863    0.8858635210
      3  C        -1.0220180855   -1.2386715223    0.8229483617
      4  C        -1.4080848187    0.0591442031    0.2553071885
      5  C        -0.6750820194    1.1172240475   -0.1586478473
      6  N         0.7107465700    1.4052260165   -0.0866981043
      7  H         2.2558407213   -0.4336991521    0.1159845663
      8  H         0.5326681289   -2.7810541633    1.2532620498
      9  H        -1.8657600195   -1.7964189880    1.2532565686
     10  H        -2.4840704284    0.1997588601    0.1821602533
     11  H        -1.2232745599    1.9900994905   -0.5113496842
     12  C         1.5470815434    1.2116088215   -1.3295853332
     13  H         1.7441692482    1.7398907471   -2.2460906603
   Point Group: c1    Number of degrees of freedom:    33


   Energy is   -286.746203357

 Hessian Updated using BFGS Update

 33 Hessian modes will be used to form the next step
  Hessian Eigenvalues:
     0.000151    0.014375    0.019876    0.020963    0.021934    0.022990
     0.024801    0.027285    0.032614    0.038080    0.119707    0.137729
     0.150947    0.159318    0.159958    0.159972    0.160507    0.216961
     0.220057    0.270829    0.296020    0.337827    0.347703    0.350790
     0.354787    0.357475    0.365111    0.366544    0.406343    0.541484
     0.572600    0.605660    1.633701

 Minimum Search - Taking Simple RFO Step
 Searching for Lamda that Minimizes Along All modes
 Value Taken    Lamda =  -0.00393098
 Calculated Step too Large.  Step scaled by  0.309104
 Step Taken.  Stepsize is  0.300000

                             Maximum     Tolerance    Cnvgd?
         Gradient           0.005366      0.000300      NO
         Displacement       0.245616      0.001200      NO
         Energy change     -0.000939      0.000001      NO


 New Cartesian Coordinates Obtained by Inverse Iteration

 Displacement from previous Coordinates is:  1.060670
 ----------------------------------------------------------------
             Standard Nuclear Orientation (Angstroms)
    I     Atom           X                Y                Z
 ----------------------------------------------------------------
    1      C       1.7340390656     0.3254777336    -0.5499104693
    2      C       0.1241294703    -1.8430204085     1.0595727515
    3      C      -1.0472255758    -1.2653946451     0.8520153989
    4      C      -1.3949928769     0.0181457081     0.2288737287
    5      C      -0.6454536278     1.0744706499    -0.1612040936
    6      N       0.7411633432     1.3496998605    -0.0711752586
    7      H       2.2520976894    -0.5294390694    -0.1601569824
    8      H       0.4636319316    -2.7708367296     1.5027030322
    9      H      -1.9228670515    -1.8181496957     1.2209183314
   10      H      -2.4661696044     0.1640099500     0.1114124430
   11      H      -1.1835354948     1.9569592726    -0.5052503450
   12      C       1.5689028139     1.3291512969    -1.3333970980
   13      H       1.7696343896     1.9876275356    -2.1611548328
 ----------------------------------------------------------------
 Nuclear Repulsion Energy =   248.0387413157 hartrees
 There are       25 alpha and       24 beta electrons
 Applying Cartesian multipole field
    Component          Value
    ---------          -----
     (2,0,0)        1.00000E-11
     (0,2,0)        2.00000E-11
     (0,0,2)       -3.00000E-11
 Nucleus-field energy     =     0.0000000050 hartrees
 Requested basis set is 6-31+G(d,p)
 There are 53 shells and 163 basis functions
 A cutoff of  1.0D-14 yielded   1345 shell pairs
 There are     13226 function pairs
 Smallest overlap matrix eigenvalue = 1.95E-05
 Guess MOs from SCF MO coefficient file
 Reading MOs from coefficient file
 Reading MOs from coefficient file
 An unrestricted hybrid HF-DFT SCF calculation will be
 performed using Pulay DIIS extrapolation
 Exchange:     0.2000 Hartree-Fock + 0.0800 Slater + 0.7200 B88
 Correlation:  0.1900 VWN1RPA + 0.8100 LYP
 Using SG-1 standard quadrature grid
 SCF converges when DIIS error is below 1.0E-08
 Geometry optimization detected.  Setting ReadMinima to 0
 Setting SaveMinima to 0
Using Q-Chem read-in guess as SCF_GUESS READ specified.

 using 4 threads for integral computing
 -------------------------------------------------------
 OpenMP Integral computing Module                
 Release: version 1.0, May 2013, Q-Chem Inc. Pittsburgh 
 -------------------------------------------------------
 -------------------------------------------------------
 OpenMP BLAS3 based DFT computing Module                
 Release: version 1.0, May 2013, Q-Chem Inc. Pittsburgh 
 -------------------------------------------------------
 ---------------------------------------
  Cycle       Energy         DIIS Error
 ---------------------------------------
    1    -286.7084412818      3.50E-03
    2    -286.7455925332      5.64E-04
    3    -286.7454460081      6.67E-04
    4    -286.7469086860      1.76E-04
    5    -286.7470079044      6.76E-05
    6    -286.7470282181      1.94E-05
    7    -286.7470314377      7.27E-06
    8    -286.7470328620      3.21E-06
    9    -286.7470335031      1.96E-06
   10    -286.7470340947      9.87E-07
   11    -286.7470342058      4.31E-07
   12    -286.7470342761      1.00E-07
   13    -286.7470343034      8.01E-08
   14    -286.7470343142      2.88E-08
   15    -286.7470343269      1.95E-08
   16    -286.7470343329      1.07E-08
   17    -286.7470343366      3.70E-09 Convergence criterion met
 ---------------------------------------
 <S^2> = 0.7660
 SCF time:  CPU 81.18 s  wall 26.95 s
 SCF   energy in the final basis set = -286.74703434
 Total energy in the final basis set = -286.74703434
 
 --------------------------------------------------------------
 
                    Orbital Energies (a.u.)
 --------------------------------------------------------------
 
 Alpha MOs
 -- Occupied --
-14.368 -10.252 -10.249 -10.220 -10.214 -10.208 -10.195  -0.983
 -0.811  -0.762  -0.687  -0.605  -0.600  -0.547  -0.498  -0.492
 -0.446  -0.426  -0.393  -0.379  -0.330  -0.318  -0.252  -0.239
 -0.206
 -- Virtual --
 -0.040  -0.028   0.009   0.014   0.018   0.034   0.040   0.051
  0.063   0.070   0.071   0.078   0.084   0.095   0.104   0.116
  0.126   0.135   0.141   0.144   0.146   0.154   0.165   0.173
  0.188   0.190   0.198   0.202   0.212   0.217   0.221   0.241
  0.251   0.255   0.267   0.291   0.297   0.312   0.313   0.332
  0.373   0.440   0.478   0.503   0.579   0.616   0.648   0.667
  0.686   0.690   0.703   0.713   0.726   0.745   0.765   0.798
  0.803   0.841   0.854   0.905   0.936   0.952   0.960   0.979
  0.990   1.014   1.035   1.056   1.068   1.123   1.142   1.159
  1.181   1.222   1.247   1.277   1.317   1.357   1.375   1.407
  1.456   1.470   1.521   1.591   1.623   1.661   1.684   1.744
  1.802   1.826   1.857   1.906   1.938   1.947   1.992   2.022
  2.036   2.066   2.110   2.173   2.204   2.225   2.308   2.344
  2.375   2.387   2.413   2.432   2.451   2.465   2.479   2.509
  2.542   2.589   2.604   2.662   2.691   2.695   2.788   2.805
  2.846   2.926   3.064   3.102   3.224   3.290   3.351   3.366
  3.486   3.696   3.770   4.149   4.249   4.371   4.464   4.584
  4.685   4.968
 
 Beta MOs
 -- Occupied --
-14.368 -10.252 -10.249 -10.221 -10.210 -10.199 -10.194  -0.983
 -0.807  -0.753  -0.679  -0.605  -0.590  -0.542  -0.492  -0.485
 -0.443  -0.415  -0.392  -0.378  -0.328  -0.315  -0.248  -0.202
 -- Virtual --
 -0.087  -0.033  -0.026   0.010   0.014   0.020   0.035   0.040
  0.052   0.063   0.071   0.072   0.079   0.086   0.097   0.107
  0.118   0.128   0.136   0.142   0.145   0.147   0.155   0.166
  0.175   0.188   0.193   0.199   0.206   0.213   0.218   0.223
  0.244   0.252   0.256   0.269   0.293   0.298   0.312   0.314
  0.335   0.381   0.449   0.478   0.512   0.582   0.627   0.654
  0.669   0.693   0.695   0.709   0.722   0.731   0.748   0.765
  0.799   0.807   0.846   0.863   0.908   0.938   0.955   0.963
  0.985   0.993   1.029   1.037   1.061   1.070   1.127   1.145
  1.161   1.183   1.231   1.251   1.279   1.318   1.360   1.380
  1.415   1.457   1.475   1.522   1.593   1.664   1.674   1.695
  1.747   1.806   1.850   1.862   1.912   1.945   1.957   1.996
  2.027   2.038   2.071   2.115   2.179   2.205   2.229   2.312
  2.351   2.378   2.392   2.421   2.435   2.451   2.467   2.482
  2.511   2.544   2.591   2.606   2.666   2.703   2.711   2.794
  2.811   2.848   2.930   3.067   3.102   3.228   3.295   3.354
  3.369   3.497   3.706   3.770   4.148   4.255   4.390   4.473
  4.585   4.687   4.968
 --------------------------------------------------------------
 
          Ground-State Mulliken Net Atomic Charges

     Atom                 Charge (a.u.)    Spin (a.u.)
  --------------------------------------------------------
      1 C                    -0.072072      -0.020348
      2 C                    -0.278302       1.194204
      3 C                    -0.154889      -0.298708
      4 C                    -0.053025       0.108640
      5 C                    -0.111981      -0.092739
      6 N                    -0.164694       0.000181
      7 H                     0.169712       0.000228
      8 H                     0.150475       0.009246
      9 H                     0.139382       0.084757
     10 H                     0.117024      -0.002231
     11 H                     0.122410       0.003810
     12 C                    -0.026907       0.012870
     13 H                     0.162867       0.000089
  --------------------------------------------------------
  Sum of atomic charges =    -0.000000
  Sum of spin   charges =     1.000000

 -----------------------------------------------------------------
                    Cartesian Multipole Moments
 -----------------------------------------------------------------
    Charge (ESU x 10^10)
                -0.0000
    Dipole Moment (Debye)
         X       0.3863      Y      -0.5753      Z      -1.3965
       Tot       1.5589
    Quadrupole Moments (Debye-Ang)
        XX     -37.0433     XY      -0.8979     YY     -39.6857
        XZ      -2.9180     YZ      -7.0740     ZZ     -42.0574
    Octopole Moments (Debye-Ang^2)
       XXX     -15.5392    XXY      -7.1055    XYY      -4.0870
       YYY     -17.4946    XXZ      -2.6888    XYZ      -4.8228
       YYZ      -4.0474    XZZ       0.8258    YZZ       0.7593
       ZZZ      -9.6137
    Hexadecapole Moments (Debye-Ang^3)
      XXXX    -413.8362   XXXY     -70.2668   XXYY    -137.8868
      XYYY     -72.7195   YYYY    -429.1491   XXXZ      68.1924
      XXYZ      20.9984   XYYZ      13.0455   YYYZ      66.1594
      XXZZ    -103.0520   XYZZ      -9.0815   YYZZ     -88.9581
      XZZZ      64.7720   YZZZ      90.4389   ZZZZ    -218.2533
 -----------------------------------------------------------------
 Calculating analytic gradient of the SCF energy
 Gradient of SCF Energy
            1           2           3           4           5           6
    1  -0.0014307  -0.0027194   0.0001912  -0.0001712  -0.0028296   0.0019174
    2  -0.0050692   0.0001955  -0.0032389   0.0019480  -0.0056060   0.0077579
    3   0.0005330   0.0000261   0.0015911  -0.0033840   0.0049981  -0.0050393
            7           8           9          10          11          12
    1   0.0011060  -0.0001792   0.0000323  -0.0001051   0.0012476   0.0030020
    2   0.0030169  -0.0006483   0.0007143  -0.0008142   0.0004555   0.0011069
    3  -0.0000689  -0.0004536   0.0013508  -0.0009745   0.0019113  -0.0003231
           13
    1  -0.0000612
    2   0.0001816
    3  -0.0001671
 Max gradient component =       7.758E-03
 RMS gradient           =       2.523E-03
 Gradient time:  CPU 15.23 s  wall 4.25 s
 Geometry Optimization Parameters
   NAtoms,    NIC,     NZ,  NCons,   NDum,   NFix, NCnnct, MaxDiis
       13      81       0       0       0       0       0       0

 Cartesian Hessian Update
 Hessian Updated using BFGS Update


** GEOMETRY OPTIMIZATION IN DELOCALIZED INTERNAL COORDINATES **
   Searching for a Minimum

   Optimization Cycle:   3

                       Coordinates (Angstroms)
     ATOM                X               Y               Z
      1  C         1.7340390656    0.3254777336   -0.5499104693
      2  C         0.1241294703   -1.8430204085    1.0595727515
      3  C        -1.0472255758   -1.2653946451    0.8520153989
      4  C        -1.3949928769    0.0181457081    0.2288737287
      5  C        -0.6454536278    1.0744706499   -0.1612040936
      6  N         0.7411633432    1.3496998605   -0.0711752586
      7  H         2.2520976894   -0.5294390694   -0.1601569824
      8  H         0.4636319316   -2.7708367296    1.5027030322
      9  H        -1.9228670515   -1.8181496957    1.2209183314
     10  H        -2.4661696044    0.1640099500    0.1114124430
     11  H        -1.1835354948    1.9569592726   -0.5052503450
     12  C         1.5689028139    1.3291512969   -1.3333970980
     13  H         1.7696343896    1.9876275356   -2.1611548328
   Point Group: c1    Number of degrees of freedom:    33


   Energy is   -286.747034337

 Hessian Updated using BFGS Update

 33 Hessian modes will be used to form the next step
  Hessian Eigenvalues:
     0.007797    0.013914    0.019206    0.020544    0.021941    0.022025
     0.024889    0.026194    0.032669    0.038334    0.117746    0.138399
     0.148991    0.157994    0.159944    0.159972    0.160786    0.211030
     0.220406    0.269905    0.296014    0.337863    0.348045    0.350772
     0.355417    0.357413    0.364957    0.367010    0.411386    0.540530
     0.575845    0.606235    1.663941

 Minimum Search - Taking Simple RFO Step
 Searching for Lamda that Minimizes Along All modes
 Value Taken    Lamda =  -0.00065730
 Step Taken.  Stepsize is  0.194969

                             Maximum     Tolerance    Cnvgd?
         Gradient           0.019931      0.000300      NO
         Displacement       0.166956      0.001200      NO
         Energy change     -0.000831      0.000001      NO


 New Cartesian Coordinates Obtained by Inverse Iteration

 Displacement from previous Coordinates is:  0.662744
 ----------------------------------------------------------------
             Standard Nuclear Orientation (Angstroms)
    I     Atom           X                Y                Z
 ----------------------------------------------------------------
    1      C       1.7121559180     0.2981692739    -0.6415266988
    2      C       0.1208511866    -1.8146325916     1.1509482018
    3      C      -1.0510948065    -1.2733849752     0.8639318523
    4      C      -1.3924330946    -0.0034050053     0.2118573334
    5      C      -0.6368803575     1.0531065506    -0.1655010360
    6      N       0.7529152897     1.3043595197    -0.0640307121
    7      H       2.1980040263    -0.6107056109    -0.3429542390
    8      H       0.4510591274    -2.7214911323     1.6426391536
    9      H      -1.9332409828    -1.8387530428     1.1974905646
   10      H      -2.4612547940     0.1379750027     0.0714485266
   11      H      -1.1665806587     1.9428354321    -0.5037554749
   12      C       1.5863156047     1.3842569865    -1.3172453779
   13      H       1.8135380138     2.1203710516    -2.0700554876
 ----------------------------------------------------------------
 Nuclear Repulsion Energy =   247.9033052814 hartrees
 There are       25 alpha and       24 beta electrons
 Applying Cartesian multipole field
    Component          Value
    ---------          -----
     (2,0,0)        1.00000E-11
     (0,2,0)        2.00000E-11
     (0,0,2)       -3.00000E-11
 Nucleus-field energy     =     0.0000000047 hartrees
 Requested basis set is 6-31+G(d,p)
 There are 53 shells and 163 basis functions
 A cutoff of  1.0D-14 yielded   1341 shell pairs
 There are     13184 function pairs
 Smallest overlap matrix eigenvalue = 1.84E-05
 Guess MOs from SCF MO coefficient file
 Reading MOs from coefficient file
 Reading MOs from coefficient file
 An unrestricted hybrid HF-DFT SCF calculation will be
 performed using Pulay DIIS extrapolation
 Exchange:     0.2000 Hartree-Fock + 0.0800 Slater + 0.7200 B88
 Correlation:  0.1900 VWN1RPA + 0.8100 LYP
 Using SG-1 standard quadrature grid
 SCF converges when DIIS error is below 1.0E-08
 Geometry optimization detected.  Setting ReadMinima to 0
 Setting SaveMinima to 0
Using Q-Chem read-in guess as SCF_GUESS READ specified.

 using 4 threads for integral computing
 -------------------------------------------------------
 OpenMP Integral computing Module                
 Release: version 1.0, May 2013, Q-Chem Inc. Pittsburgh 
 -------------------------------------------------------
 -------------------------------------------------------
 OpenMP BLAS3 based DFT computing Module                
 Release: version 1.0, May 2013, Q-Chem Inc. Pittsburgh 
 -------------------------------------------------------
 ---------------------------------------
  Cycle       Energy         DIIS Error
 ---------------------------------------
    1    -286.7314147862      2.40E-03
    2    -286.7468671613      3.73E-04
    3    -286.7467396083      4.71E-04
    4    -286.7474189027      1.35E-04
    5    -286.7474752698      4.54E-05
    6    -286.7474839280      1.17E-05
    7    -286.7474849094      6.02E-06
    8    -286.7474852839      2.39E-06
    9    -286.7474854251      1.19E-06
   10    -286.7474855450      5.57E-07
   11    -286.7474855603      3.22E-07
   12    -286.7474855658      9.67E-08
   13    -286.7474855675      4.56E-08
   14    -286.7474855683      1.04E-08
   15    -286.7474855690      5.78E-09 Convergence criterion met
 ---------------------------------------
 <S^2> = 0.7660
 SCF time:  CPU 71.92 s  wall 26.80 s
 SCF   energy in the final basis set = -286.74748557
 Total energy in the final basis set = -286.74748557
 
 --------------------------------------------------------------
 
                    Orbital Energies (a.u.)
 --------------------------------------------------------------
 
 Alpha MOs
 -- Occupied --
-14.368 -10.253 -10.250 -10.220 -10.213 -10.207 -10.195  -0.983
 -0.811  -0.762  -0.686  -0.606  -0.600  -0.547  -0.499  -0.491
 -0.446  -0.426  -0.394  -0.379  -0.330  -0.318  -0.253  -0.239
 -0.205
 -- Virtual --
 -0.040  -0.029   0.009   0.014   0.018   0.034   0.039   0.052
  0.062   0.068   0.070   0.078   0.086   0.095   0.105   0.115
  0.125   0.134   0.142   0.144   0.148   0.152   0.165   0.172
  0.186   0.189   0.196   0.203   0.214   0.217   0.221   0.242
  0.250   0.253   0.277   0.289   0.299   0.313   0.314   0.333
  0.372   0.440   0.474   0.501   0.580   0.617   0.650   0.666
  0.691   0.693   0.708   0.714   0.726   0.743   0.765   0.795
  0.802   0.835   0.857   0.904   0.933   0.952   0.959   0.975
  0.992   1.013   1.036   1.056   1.067   1.127   1.137   1.160
  1.179   1.215   1.248   1.278   1.314   1.356   1.373   1.396
  1.457   1.482   1.519   1.587   1.624   1.662   1.687   1.749
  1.799   1.828   1.858   1.901   1.936   1.955   1.997   2.018
  2.039   2.061   2.110   2.171   2.201   2.219   2.312   2.346
  2.375   2.390   2.410   2.431   2.452   2.461   2.479   2.510
  2.542   2.589   2.604   2.659   2.690   2.699   2.789   2.809
  2.842   2.925   3.064   3.098   3.223   3.288   3.349   3.365
  3.484   3.698   3.767   4.144   4.253   4.369   4.462   4.580
  4.682   4.965
 
 Beta MOs
 -- Occupied --
-14.368 -10.253 -10.250 -10.221 -10.209 -10.198 -10.193  -0.984
 -0.807  -0.753  -0.678  -0.605  -0.589  -0.543  -0.492  -0.484
 -0.443  -0.414  -0.393  -0.377  -0.328  -0.316  -0.249  -0.201
 -- Virtual --
 -0.085  -0.033  -0.028   0.010   0.015   0.020   0.036   0.039
  0.052   0.062   0.068   0.071   0.080   0.087   0.097   0.109
  0.116   0.127   0.134   0.143   0.145   0.149   0.153   0.165
  0.173   0.188   0.190   0.197   0.206   0.215   0.218   0.224
  0.244   0.252   0.253   0.279   0.291   0.301   0.313   0.315
  0.336   0.380   0.449   0.475   0.509   0.584   0.627   0.655
  0.667   0.694   0.703   0.712   0.723   0.731   0.747   0.765
  0.797   0.806   0.840   0.864   0.907   0.934   0.955   0.962
  0.983   0.993   1.029   1.038   1.059   1.070   1.130   1.140
  1.161   1.182   1.225   1.251   1.279   1.316   1.358   1.379
  1.404   1.459   1.487   1.520   1.587   1.666   1.674   1.698
  1.752   1.804   1.850   1.863   1.909   1.944   1.964   2.001
  2.024   2.041   2.066   2.116   2.178   2.202   2.222   2.315
  2.353   2.378   2.394   2.418   2.434   2.454   2.463   2.481
  2.512   2.545   2.591   2.606   2.663   2.706   2.711   2.795
  2.814   2.845   2.929   3.068   3.098   3.227   3.293   3.352
  3.368   3.495   3.708   3.768   4.144   4.258   4.388   4.471
  4.581   4.685   4.965
 --------------------------------------------------------------
 
          Ground-State Mulliken Net Atomic Charges

     Atom                 Charge (a.u.)    Spin (a.u.)
  --------------------------------------------------------
      1 C                    -0.049304      -0.010322
      2 C                    -0.293784       1.209050
      3 C                    -0.132391      -0.299987
      4 C                    -0.080308       0.101343
      5 C                    -0.090033      -0.101538
      6 N                    -0.165908      -0.000325
      7 H                     0.170191       0.000070
      8 H                     0.149832       0.009721
      9 H                     0.139065       0.084933
     10 H                     0.116885      -0.002344
     11 H                     0.121795       0.003906
     12 C                    -0.049384       0.004921
     13 H                     0.163343       0.000573
  --------------------------------------------------------
  Sum of atomic charges =     0.000000
  Sum of spin   charges =     1.000000

 -----------------------------------------------------------------
                    Cartesian Multipole Moments
 -----------------------------------------------------------------
    Charge (ESU x 10^10)
                 0.0000
    Dipole Moment (Debye)
         X       0.3774      Y      -0.4215      Z      -1.4838
       Tot       1.5880
    Quadrupole Moments (Debye-Ang)
        XX     -37.1566     XY      -0.5713     YY     -38.8225
        XZ      -3.1490     YZ      -7.0358     ZZ     -42.5159
    Octopole Moments (Debye-Ang^2)
       XXX     -16.0827    XXY      -6.5547    XYY      -2.7295
       YYY     -13.4663    XXZ      -3.9108    XYZ      -5.0026
       YYZ      -4.5431    XZZ       0.4930    YZZ      -0.1307
       ZZZ      -7.9295
    Hexadecapole Moments (Debye-Ang^3)
      XXXX    -414.3848   XXXY     -71.0736   XXYY    -134.2202
      XYYY     -70.0231   YYYY    -421.6365   XXXZ      68.5446
      XXYZ      22.2154   XYYZ      11.9066   YYYZ      67.8314
      XXZZ    -105.3367   XYZZ     -10.9239   YYZZ     -87.9854
      XZZZ      69.5731   YZZZ      95.2080   ZZZZ    -233.6152
 -----------------------------------------------------------------
 Calculating analytic gradient of the SCF energy
 Gradient of SCF Energy
            1           2           3           4           5           6
    1  -0.0027038  -0.0033246   0.0009007   0.0001213  -0.0037291   0.0025083
    2  -0.0075376   0.0007864  -0.0037918   0.0021472  -0.0078694   0.0105513
    3   0.0007242  -0.0002377   0.0021287  -0.0040043   0.0064503  -0.0067955
            7           8           9          10          11          12
    1   0.0011522  -0.0004030  -0.0003382  -0.0000455   0.0015007   0.0043739
    2   0.0031959  -0.0008056   0.0008449  -0.0010677   0.0004897   0.0023539
    3  -0.0002160  -0.0002147   0.0016383  -0.0013636   0.0024416  -0.0004206
           13
    1  -0.0000129
    2   0.0007028
    3  -0.0001308
 Max gradient component =       1.055E-02
 RMS gradient           =       3.400E-03
 Gradient time:  CPU 15.36 s  wall 4.42 s
 Geometry Optimization Parameters
   NAtoms,    NIC,     NZ,  NCons,   NDum,   NFix, NCnnct, MaxDiis
       13      81       0       0       0       0       0       0

 Cartesian Hessian Update
 Hessian Updated using BFGS Update


** GEOMETRY OPTIMIZATION IN DELOCALIZED INTERNAL COORDINATES **
   Searching for a Minimum

   Optimization Cycle:   4

                       Coordinates (Angstroms)
     ATOM                X               Y               Z
      1  C         1.7121559180    0.2981692739   -0.6415266988
      2  C         0.1208511866   -1.8146325916    1.1509482018
      3  C        -1.0510948065   -1.2733849752    0.8639318523
      4  C        -1.3924330946   -0.0034050053    0.2118573334
      5  C        -0.6368803575    1.0531065506   -0.1655010360
      6  N         0.7529152897    1.3043595197   -0.0640307121
      7  H         2.1980040263   -0.6107056109   -0.3429542390
      8  H         0.4510591274   -2.7214911323    1.6426391536
      9  H        -1.9332409828   -1.8387530428    1.1974905646
     10  H        -2.4612547940    0.1379750027    0.0714485266
     11  H        -1.1665806587    1.9428354321   -0.5037554749
     12  C         1.5863156047    1.3842569865   -1.3172453779
     13  H         1.8135380138    2.1203710516   -2.0700554876
   Point Group: c1    Number of degrees of freedom:    33


   Energy is   -286.747485569

 Hessian Updated using BFGS Update

 33 Hessian modes will be used to form the next step
  Hessian Eigenvalues:
     0.007008    0.013824    0.020147    0.021141    0.021916    0.023514
     0.025916    0.027135    0.032809    0.043474    0.118498    0.137596
     0.148901    0.157287    0.159930    0.159990    0.160609    0.211045
     0.220176    0.267565    0.296130    0.337792    0.347243    0.350766
     0.353934    0.357442    0.364722    0.366422    0.404420    0.535957
     0.569719    0.603213    0.970075

 Minimum Search - Taking Simple RFO Step
 Searching for Lamda that Minimizes Along All modes
 Value Taken    Lamda =  -0.00109510
 Step Taken.  Stepsize is  0.206746

                             Maximum     Tolerance    Cnvgd?
         Gradient           0.022693      0.000300      NO
         Displacement       0.144742      0.001200      NO
         Energy change     -0.000451      0.000001      NO


 New Cartesian Coordinates Obtained by Inverse Iteration

 Displacement from previous Coordinates is:  0.589339
 ----------------------------------------------------------------
             Standard Nuclear Orientation (Angstroms)
    I     Atom           X                Y                Z
 ----------------------------------------------------------------
    1      C       1.6893486201     0.2617633016    -0.7180011441
    2      C       0.1266988737    -1.7627856924     1.2168028808
    3      C      -1.0517437222    -1.2720331130     0.8685915518
    4      C      -1.3992311510    -0.0148810515     0.1986407041
    5      C      -0.6352910568     1.0379376793    -0.1715093647
    6      N       0.7595519279     1.2412504146    -0.0505065473
    7      H       2.1506663614    -0.6839755347    -0.5068107606
    8      H       0.4594011899    -2.6444997415     1.7515198214
    9      H      -1.9287983964    -1.8671381765     1.1618775431
   10      H      -2.4664459703     0.1229882327     0.0453826504
   11      H      -1.1489928964     1.9371919968    -0.5099011010
   12      C       1.5945081606     1.4112840961    -1.2878862081
   13      H       1.8436825322     2.2115990475    -1.9649534196
 ----------------------------------------------------------------
 Nuclear Repulsion Energy =   248.3425499865 hartrees
 There are       25 alpha and       24 beta electrons
 Applying Cartesian multipole field
    Component          Value
    ---------          -----
     (2,0,0)        1.00000E-11
     (0,2,0)        2.00000E-11
     (0,0,2)       -3.00000E-11
 Nucleus-field energy     =     0.0000000045 hartrees
 Requested basis set is 6-31+G(d,p)
 There are 53 shells and 163 basis functions
 A cutoff of  1.0D-14 yielded   1341 shell pairs
 There are     13184 function pairs
 Smallest overlap matrix eigenvalue = 1.82E-05
 Guess MOs from SCF MO coefficient file
 Reading MOs from coefficient file
 Reading MOs from coefficient file
 An unrestricted hybrid HF-DFT SCF calculation will be
 performed using Pulay DIIS extrapolation
 Exchange:     0.2000 Hartree-Fock + 0.0800 Slater + 0.7200 B88
 Correlation:  0.1900 VWN1RPA + 0.8100 LYP
 Using SG-1 standard quadrature grid
 SCF converges when DIIS error is below 1.0E-08
 Geometry optimization detected.  Setting ReadMinima to 0
 Setting SaveMinima to 0
Using Q-Chem read-in guess as SCF_GUESS READ specified.

 using 4 threads for integral computing
 -------------------------------------------------------
 OpenMP Integral computing Module                
 Release: version 1.0, May 2013, Q-Chem Inc. Pittsburgh 
 -------------------------------------------------------
 -------------------------------------------------------
 OpenMP BLAS3 based DFT computing Module                
 Release: version 1.0, May 2013, Q-Chem Inc. Pittsburgh 
 -------------------------------------------------------
 ---------------------------------------
  Cycle       Energy         DIIS Error
 ---------------------------------------
    1    -286.7367409977      2.16E-03
    2    -286.7479392903      3.19E-04
    3    -286.7479208602      3.85E-04
    4    -286.7483651720      1.15E-04
    5    -286.7484048190      4.24E-05
    6    -286.7484128254      1.13E-05
    7    -286.7484139647      6.06E-06
    8    -286.7484144120      2.43E-06
    9    -286.7484145955      1.45E-06
   10    -286.7484147109      6.45E-07
   11    -286.7484147211      2.85E-07
   12    -286.7484147228      8.47E-08
   13    -286.7484147232      4.70E-08
   14    -286.7484147234      1.00E-08
   15    -286.7484147235      4.26E-09 Convergence criterion met
 ---------------------------------------
 <S^2> = 0.7661
 SCF time:  CPU 72.04 s  wall 22.63 s
 SCF   energy in the final basis set = -286.74841472
 Total energy in the final basis set = -286.74841472
 
 --------------------------------------------------------------
 
                    Orbital Energies (a.u.)
 --------------------------------------------------------------
 
 Alpha MOs
 -- Occupied --
-14.368 -10.253 -10.251 -10.220 -10.212 -10.206 -10.194  -0.984
 -0.811  -0.761  -0.685  -0.606  -0.599  -0.547  -0.500  -0.490
 -0.446  -0.424  -0.395  -0.379  -0.331  -0.318  -0.253  -0.239
 -0.205
 -- Virtual --
 -0.039  -0.030   0.009   0.015   0.018   0.035   0.038   0.053
  0.061   0.066   0.069   0.077   0.087   0.096   0.107   0.114
  0.125   0.134   0.142   0.144   0.149   0.153   0.162   0.171
  0.184   0.187   0.197   0.204   0.215   0.217   0.222   0.241
  0.247   0.252   0.279   0.288   0.304   0.312   0.314   0.335
  0.371   0.441   0.472   0.497   0.583   0.616   0.652   0.664
  0.689   0.695   0.710   0.726   0.728   0.742   0.765   0.791
  0.801   0.831   0.860   0.899   0.928   0.950   0.958   0.972
  0.994   1.017   1.038   1.054   1.069   1.131   1.134   1.161
  1.175   1.214   1.250   1.281   1.309   1.358   1.373   1.387
  1.454   1.493   1.516   1.583   1.625   1.666   1.696   1.754
  1.790   1.831   1.860   1.900   1.937   1.961   2.002   2.017
  2.042   2.062   2.114   2.165   2.199   2.215   2.315   2.349
  2.373   2.393   2.408   2.432   2.447   2.464   2.484   2.511
  2.545   2.590   2.603   2.659   2.689   2.703   2.787   2.810
  2.839   2.922   3.060   3.098   3.221   3.284   3.345   3.363
  3.483   3.703   3.766   4.138   4.260   4.369   4.459   4.578
  4.677   4.963
 
 Beta MOs
 -- Occupied --
-14.368 -10.253 -10.251 -10.221 -10.208 -10.197 -10.192  -0.984
 -0.807  -0.752  -0.677  -0.606  -0.589  -0.542  -0.494  -0.483
 -0.443  -0.413  -0.394  -0.377  -0.329  -0.315  -0.249  -0.201
 -- Virtual --
 -0.083  -0.032  -0.029   0.010   0.016   0.020   0.036   0.039
  0.053   0.061   0.067   0.070   0.079   0.088   0.097   0.111
  0.115   0.127   0.134   0.143   0.145   0.151   0.153   0.163
  0.173   0.185   0.190   0.199   0.206   0.216   0.217   0.225
  0.243   0.250   0.252   0.281   0.290   0.305   0.313   0.316
  0.338   0.380   0.449   0.473   0.505   0.586   0.627   0.656
  0.666   0.694   0.705   0.714   0.729   0.736   0.746   0.764
  0.794   0.805   0.836   0.867   0.902   0.930   0.952   0.962
  0.979   0.995   1.033   1.041   1.056   1.073   1.134   1.139
  1.162   1.179   1.224   1.253   1.282   1.312   1.360   1.379
  1.394   1.456   1.497   1.518   1.583   1.670   1.676   1.708
  1.757   1.796   1.849   1.867   1.907   1.944   1.969   2.006
  2.023   2.045   2.066   2.119   2.173   2.200   2.218   2.318
  2.356   2.378   2.396   2.416   2.436   2.450   2.466   2.486
  2.513   2.547   2.593   2.605   2.663   2.707   2.712   2.792
  2.815   2.842   2.927   3.063   3.099   3.226   3.289   3.349
  3.366   3.494   3.712   3.766   4.138   4.265   4.389   4.469
  4.578   4.680   4.963
 --------------------------------------------------------------
 
          Ground-State Mulliken Net Atomic Charges

     Atom                 Charge (a.u.)    Spin (a.u.)
  --------------------------------------------------------
      1 C                    -0.044367      -0.006093
      2 C                    -0.313231       1.212967
      3 C                    -0.120805      -0.291639
      4 C                    -0.085337       0.094525
      5 C                    -0.074262      -0.109455
      6 N                    -0.165515      -0.000457
      7 H                     0.170938      -0.000130
      8 H                     0.148739       0.010401
      9 H                     0.138580       0.084472
     10 H                     0.116749      -0.002443
     11 H                     0.122083       0.004042
     12 C                    -0.056885       0.002917
     13 H                     0.163312       0.000894
  --------------------------------------------------------
  Sum of atomic charges =     0.000000
  Sum of spin   charges =     1.000000

 -----------------------------------------------------------------
                    Cartesian Multipole Moments
 -----------------------------------------------------------------
    Charge (ESU x 10^10)
                 0.0000
    Dipole Moment (Debye)
         X       0.3753      Y      -0.2763      Z      -1.5508
       Tot       1.6193
    Quadrupole Moments (Debye-Ang)
        XX     -37.2850     XY      -0.3130     YY     -38.0363
        XZ      -3.2484     YZ      -6.8137     ZZ     -42.9314
    Octopole Moments (Debye-Ang^2)
       XXX     -16.2457    XXY      -6.0170    XYY      -1.5267
       YYY      -9.6134    XXZ      -4.8257    XYZ      -4.8900
       YYZ      -4.8593    XZZ       0.3071    YZZ      -1.1840
       ZZZ      -6.3729
    Hexadecapole Moments (Debye-Ang^3)
      XXXX    -414.4896   XXXY     -69.6172   XXYY    -129.4605
      XYYY     -65.2686   YYYY    -407.6274   XXXZ      68.1287
      XXYZ      22.8812   XYYZ      11.2490   YYYZ      68.4429
      XXZZ    -107.2484   XYZZ     -12.7611   YYZZ     -86.9551
      XZZZ      72.9793   YZZZ      97.3111   ZZZZ    -244.6725
 -----------------------------------------------------------------
 Calculating analytic gradient of the SCF energy
 Gradient of SCF Energy
            1           2           3           4           5           6
    1  -0.0030912  -0.0028496   0.0011221   0.0009416  -0.0044388   0.0031898
    2  -0.0086945   0.0013179  -0.0037040   0.0014996  -0.0063241   0.0093057
    3   0.0013036  -0.0010837   0.0028474  -0.0039260   0.0056335  -0.0068359
            7           8           9          10          11          12
    1   0.0014560  -0.0007141  -0.0007555   0.0001378   0.0009261   0.0042703
    2   0.0030671  -0.0007863   0.0007218  -0.0009567   0.0005080   0.0029048
    3  -0.0003836   0.0002614   0.0014719  -0.0014352   0.0026216  -0.0005977
           13
    1  -0.0001945
    2   0.0011408
    3   0.0001226
 Max gradient component =       9.306E-03
 RMS gradient           =       3.320E-03
 Gradient time:  CPU 15.19 s  wall 4.15 s
 Geometry Optimization Parameters
   NAtoms,    NIC,     NZ,  NCons,   NDum,   NFix, NCnnct, MaxDiis
       13      81       0       0       0       0       0       0

 Cartesian Hessian Update
 Hessian Updated using BFGS Update


** GEOMETRY OPTIMIZATION IN DELOCALIZED INTERNAL COORDINATES **
   Searching for a Minimum

   Optimization Cycle:   5

                       Coordinates (Angstroms)
     ATOM                X               Y               Z
      1  C         1.6893486201    0.2617633016   -0.7180011441
      2  C         0.1266988737   -1.7627856924    1.2168028808
      3  C        -1.0517437222   -1.2720331130    0.8685915518
      4  C        -1.3992311510   -0.0148810515    0.1986407041
      5  C        -0.6352910568    1.0379376793   -0.1715093647
      6  N         0.7595519279    1.2412504146   -0.0505065473
      7  H         2.1506663614   -0.6839755347   -0.5068107606
      8  H         0.4594011899   -2.6444997415    1.7515198214
      9  H        -1.9287983964   -1.8671381765    1.1618775431
     10  H        -2.4664459703    0.1229882327    0.0453826504
     11  H        -1.1489928964    1.9371919968   -0.5099011010
     12  C         1.5945081606    1.4112840961   -1.2878862081
     13  H         1.8436825322    2.2115990475   -1.9649534196
   Point Group: c1    Number of degrees of freedom:    33


   Energy is   -286.748414723

 Hessian Updated using BFGS Update

 33 Hessian modes will be used to form the next step
  Hessian Eigenvalues:
     0.005285    0.013750    0.020242    0.021703    0.021857    0.023763
     0.026991    0.030147    0.032632    0.044272    0.118844    0.140558
     0.148939    0.157136    0.159881    0.160229    0.160401    0.210597
     0.216214    0.238276    0.294964    0.302191    0.338281    0.349473
     0.350810    0.357454    0.361990    0.365380    0.373801    0.455184
     0.553232    0.590532    0.622125

 Minimum Search - Taking Simple RFO Step
 Searching for Lamda that Minimizes Along All modes
 Value Taken    Lamda =  -0.00278958
 Calculated Step too Large.  Step scaled by  0.818449
 Step Taken.  Stepsize is  0.300000

                             Maximum     Tolerance    Cnvgd?
         Gradient           0.020384      0.000300      NO
         Displacement       0.158571      0.001200      NO
         Energy change     -0.000929      0.000001      NO


 New Cartesian Coordinates Obtained by Inverse Iteration

 Displacement from previous Coordinates is:  0.757342
 ----------------------------------------------------------------
             Standard Nuclear Orientation (Angstroms)
    I     Atom           X                Y                Z
 ----------------------------------------------------------------
    1      C       1.6341323385     0.1946198250    -0.7793206326
    2      C       0.1644736708    -1.6531354116     1.2467660244
    3      C      -1.0386055151    -1.2496186526     0.8624386261
    4      C      -1.4283450771    -0.0089501485     0.1929061994
    5      C      -0.6528040439     1.0321082730    -0.1852711694
    6      N       0.7442368439     1.1494776401    -0.0244423874
    7      H       2.0436271490    -0.7915421246    -0.6609651817
    8      H       0.5365095201    -2.4992866295     1.8126909669
    9      H      -1.8811224321    -1.9123734025     1.1050025110
   10      H      -2.4967731316     0.1167836595     0.0390497139
   11      H      -1.1326564978     1.9402855650    -0.5486572056
   12      C       1.6001470938     1.4022620427    -1.2225895375
   13      H       1.9005345538     2.2580708229    -1.8043613214
 ----------------------------------------------------------------
 Nuclear Repulsion Energy =   250.2456340871 hartrees
 There are       25 alpha and       24 beta electrons
 Applying Cartesian multipole field
    Component          Value
    ---------          -----
     (2,0,0)        1.00000E-11
     (0,2,0)        2.00000E-11
     (0,0,2)       -3.00000E-11
 Nucleus-field energy     =     0.0000000041 hartrees
 Requested basis set is 6-31+G(d,p)
 There are 53 shells and 163 basis functions
 A cutoff of  1.0D-14 yielded   1345 shell pairs
 There are     13198 function pairs
 Smallest overlap matrix eigenvalue = 1.89E-05
 Guess MOs from SCF MO coefficient file
 Reading MOs from coefficient file
 Reading MOs from coefficient file
 An unrestricted hybrid HF-DFT SCF calculation will be
 performed using Pulay DIIS extrapolation
 Exchange:     0.2000 Hartree-Fock + 0.0800 Slater + 0.7200 B88
 Correlation:  0.1900 VWN1RPA + 0.8100 LYP
 Using SG-1 standard quadrature grid
 SCF converges when DIIS error is below 1.0E-08
 Geometry optimization detected.  Setting ReadMinima to 0
 Setting SaveMinima to 0
Using Q-Chem read-in guess as SCF_GUESS READ specified.

 using 4 threads for integral computing
 -------------------------------------------------------
 OpenMP Integral computing Module                
 Release: version 1.0, May 2013, Q-Chem Inc. Pittsburgh 
 -------------------------------------------------------
 -------------------------------------------------------
 OpenMP BLAS3 based DFT computing Module                
 Release: version 1.0, May 2013, Q-Chem Inc. Pittsburgh 
 -------------------------------------------------------
 ---------------------------------------
  Cycle       Energy         DIIS Error
 ---------------------------------------
    1    -286.7357703595      2.71E-03
    2    -286.7490985391      4.29E-04
    3    -286.7492521096      4.58E-04
    4    -286.7499522106      9.07E-05
    5    -286.7499753624      5.13E-05
    6    -286.7499862038      1.51E-05
    7    -286.7499885916      7.86E-06
    8    -286.7499895172      3.11E-06
    9    -286.7499898879      2.23E-06
   10    -286.7499900584      1.07E-06
   11    -286.7499900768      4.19E-07
   12    -286.7499900798      1.29E-07
   13    -286.7499900803      7.46E-08
   14    -286.7499900804      2.15E-08
   15    -286.7499900805      8.46E-09 Convergence criterion met
 ---------------------------------------
 <S^2> = 0.7662
 SCF time:  CPU 72.24 s  wall 24.49 s
 SCF   energy in the final basis set = -286.74999008
 Total energy in the final basis set = -286.74999008
 
 --------------------------------------------------------------
 
                    Orbital Energies (a.u.)
 --------------------------------------------------------------
 
 Alpha MOs
 -- Occupied --
-14.367 -10.253 -10.251 -10.219 -10.211 -10.205 -10.192  -0.986
 -0.812  -0.759  -0.683  -0.606  -0.597  -0.546  -0.503  -0.489
 -0.445  -0.422  -0.395  -0.381  -0.333  -0.316  -0.252  -0.236
 -0.204
 -- Virtual --
 -0.038  -0.029   0.009   0.015   0.018   0.035   0.038   0.053
  0.060   0.064   0.069   0.077   0.087   0.097   0.110   0.112
  0.125   0.136   0.142   0.143   0.151   0.155   0.160   0.173
  0.180   0.188   0.198   0.205   0.213   0.220   0.224   0.240
  0.247   0.250   0.276   0.288   0.307   0.314   0.316   0.340
  0.372   0.443   0.472   0.489   0.588   0.617   0.653   0.663
  0.685   0.699   0.711   0.729   0.741   0.743   0.766   0.785
  0.800   0.827   0.867   0.894   0.923   0.949   0.951   0.966
  0.996   1.027   1.047   1.060   1.072   1.133   1.140   1.165
  1.172   1.228   1.254   1.281   1.301   1.360   1.375   1.383
  1.444   1.495   1.522   1.585   1.631   1.673   1.713   1.759
  1.777   1.835   1.866   1.899   1.943   1.964   2.005   2.021
  2.043   2.069   2.122   2.153   2.199   2.213   2.315   2.356
  2.370   2.394   2.410   2.439   2.443   2.467   2.498   2.515
  2.552   2.594   2.603   2.660   2.693   2.709   2.781   2.807
  2.838   2.919   3.048   3.100   3.220   3.279   3.337   3.361
  3.486   3.715   3.766   4.130   4.276   4.374   4.458   4.577
  4.669   4.966
 
 Beta MOs
 -- Occupied --
-14.367 -10.253 -10.251 -10.219 -10.206 -10.195 -10.191  -0.986
 -0.808  -0.750  -0.675  -0.606  -0.588  -0.541  -0.496  -0.482
 -0.442  -0.411  -0.394  -0.379  -0.330  -0.314  -0.247  -0.200
 -- Virtual --
 -0.080  -0.032  -0.028   0.009   0.017   0.019   0.036   0.039
  0.053   0.061   0.064   0.070   0.078   0.088   0.099   0.111
  0.116   0.127   0.136   0.142   0.144   0.152   0.156   0.160
  0.175   0.181   0.192   0.201   0.208   0.213   0.221   0.226
  0.241   0.251   0.252   0.278   0.290   0.307   0.315   0.320
  0.343   0.381   0.449   0.475   0.496   0.590   0.628   0.656
  0.664   0.692   0.707   0.716   0.732   0.742   0.750   0.766
  0.791   0.804   0.832   0.872   0.896   0.925   0.951   0.954
  0.972   0.997   1.039   1.051   1.064   1.077   1.137   1.143
  1.166   1.176   1.241   1.256   1.282   1.305   1.363   1.379
  1.388   1.447   1.497   1.527   1.585   1.676   1.682   1.724
  1.763   1.787   1.848   1.876   1.906   1.953   1.971   2.010
  2.025   2.049   2.071   2.127   2.161   2.200   2.216   2.319
  2.362   2.375   2.397   2.419   2.444   2.446   2.469   2.500
  2.517   2.554   2.598   2.604   2.667   2.710   2.716   2.785
  2.813   2.842   2.924   3.052   3.101   3.224   3.285   3.341
  3.362   3.497   3.724   3.767   4.131   4.279   4.393   4.469
  4.577   4.672   4.966
 --------------------------------------------------------------
 
          Ground-State Mulliken Net Atomic Charges

     Atom                 Charge (a.u.)    Spin (a.u.)
  --------------------------------------------------------
      1 C                    -0.052036      -0.005694
      2 C                    -0.332055       1.198682
      3 C                    -0.115638      -0.274404
      4 C                    -0.081806       0.093612
      5 C                    -0.061836      -0.112030
      6 N                    -0.163144      -0.000353
      7 H                     0.172470      -0.000303
      8 H                     0.146831       0.010933
      9 H                     0.137770       0.082681
     10 H                     0.117715      -0.002544
     11 H                     0.123000       0.004406
     12 C                    -0.053746       0.003585
     13 H                     0.162477       0.001428
  --------------------------------------------------------
  Sum of atomic charges =     0.000000
  Sum of spin   charges =     1.000000

 -----------------------------------------------------------------
                    Cartesian Multipole Moments
 -----------------------------------------------------------------
    Charge (ESU x 10^10)
                -0.0000
    Dipole Moment (Debye)
         X       0.3986      Y      -0.1526      Z      -1.6106
       Tot       1.6662
    Quadrupole Moments (Debye-Ang)
        XX     -37.4844     XY      -0.0273     YY     -37.2125
        XZ      -3.1507     YZ      -6.2908     ZZ     -43.4813
    Octopole Moments (Debye-Ang^2)
       XXX     -15.8408    XXY      -5.1072    XYY       0.1610
       YYY      -6.2671    XXZ      -5.5926    XYZ      -4.5688
       YYZ      -5.1569    XZZ       0.3873    YZZ      -2.5318
       ZZZ      -4.9688
    Hexadecapole Moments (Debye-Ang^3)
      XXXX    -412.4598   XXXY     -61.8211   XXYY    -120.9937
      XYYY     -55.4043   YYYY    -380.8904   XXXZ      64.8640
      XXYZ      21.6275   XYYZ      10.8253   YYYZ      66.9332
      XXZZ    -107.5542   XYZZ     -14.0859   YYZZ     -85.3511
      XZZZ      73.4480   YZZZ      95.3752   ZZZZ    -248.5366
 -----------------------------------------------------------------
 Calculating analytic gradient of the SCF energy
 Gradient of SCF Energy
            1           2           3           4           5           6
    1  -0.0044070  -0.0005634   0.0003019   0.0019574  -0.0034300   0.0033120
    2  -0.0077509   0.0017826  -0.0021794   0.0000440  -0.0022003   0.0048642
    3   0.0018833  -0.0024792   0.0027180  -0.0020330   0.0028232  -0.0059381
            7           8           9          10          11          12
    1   0.0019206  -0.0008251  -0.0007483   0.0000737   0.0002146   0.0025792
    2   0.0019358  -0.0004212   0.0002840  -0.0004098   0.0003570   0.0023913
    3  -0.0001925   0.0008794   0.0005444  -0.0010328   0.0018358   0.0002930
           13
    1  -0.0003856
    2   0.0013027
    3   0.0006984
 Max gradient component =       7.751E-03
 RMS gradient           =       2.465E-03
 Gradient time:  CPU 15.39 s  wall 3.99 s
 Geometry Optimization Parameters
   NAtoms,    NIC,     NZ,  NCons,   NDum,   NFix, NCnnct, MaxDiis
       13      81       0       0       0       0       0       0

 Cartesian Hessian Update
 Hessian Updated using BFGS Update


** GEOMETRY OPTIMIZATION IN DELOCALIZED INTERNAL COORDINATES **
   Searching for a Minimum

   Optimization Cycle:   6

                       Coordinates (Angstroms)
     ATOM                X               Y               Z
      1  C         1.6341323385    0.1946198250   -0.7793206326
      2  C         0.1644736708   -1.6531354116    1.2467660244
      3  C        -1.0386055151   -1.2496186526    0.8624386261
      4  C        -1.4283450771   -0.0089501485    0.1929061994
      5  C        -0.6528040439    1.0321082730   -0.1852711694
      6  N         0.7442368439    1.1494776401   -0.0244423874
      7  H         2.0436271490   -0.7915421246   -0.6609651817
      8  H         0.5365095201   -2.4992866295    1.8126909669
      9  H        -1.8811224321   -1.9123734025    1.1050025110
     10  H        -2.4967731316    0.1167836595    0.0390497139
     11  H        -1.1326564978    1.9402855650   -0.5486572056
     12  C         1.6001470938    1.4022620427   -1.2225895375
     13  H         1.9005345538    2.2580708229   -1.8043613214
   Point Group: c1    Number of degrees of freedom:    33


   Energy is   -286.749990080

 Hessian Updated using BFGS Update

 33 Hessian modes will be used to form the next step
  Hessian Eigenvalues:
     0.005395    0.013755    0.020259    0.021608    0.021855    0.023745
     0.027084    0.030558    0.032694    0.043211    0.118802    0.140299
     0.149831    0.158868    0.159980    0.160190    0.163327    0.210561
[...]
    9      H      -1.8588245781    -1.9386142220     1.0669011896
   10      H      -2.5120084201     0.1236681406     0.0470023991
   11      H      -1.0950064193     1.9079173276    -0.6335363477
   12      C       1.6049544501     1.4172919477    -1.1701298219
   13      H       1.9011566029     2.2878156806    -1.7304793702
 ----------------------------------------------------------------
 Nuclear Repulsion Energy =   250.8200035212 hartrees
 There are       25 alpha and       24 beta electrons
 Applying Cartesian multipole field
    Component          Value
    ---------          -----
     (2,0,0)        1.00000E-11
     (0,2,0)        2.00000E-11
     (0,0,2)       -3.00000E-11
 Nucleus-field energy     =     0.0000000039 hartrees
 Requested basis set is 6-31+G(d,p)
 There are 53 shells and 163 basis functions
 A cutoff of  1.0D-14 yielded   1346 shell pairs
 There are     13207 function pairs
 Smallest overlap matrix eigenvalue = 1.83E-05
 Guess MOs from SCF MO coefficient file
 Reading MOs from coefficient file
 Reading MOs from coefficient file
 An unrestricted hybrid HF-DFT SCF calculation will be
 performed using Pulay DIIS extrapolation
 Exchange:     0.2000 Hartree-Fock + 0.0800 Slater + 0.7200 B88
 Correlation:  0.1900 VWN1RPA + 0.8100 LYP
 Using SG-1 standard quadrature grid
 SCF converges when DIIS error is below 1.0E-08
 Geometry optimization detected.  Setting ReadMinima to 0
 Setting SaveMinima to 0
Using Q-Chem read-in guess as SCF_GUESS READ specified.

 using 4 threads for integral computing
 -------------------------------------------------------
 OpenMP Integral computing Module                
 Release: version 1.0, May 2013, Q-Chem Inc. Pittsburgh 
 -------------------------------------------------------
 -------------------------------------------------------
 OpenMP BLAS3 based DFT computing Module                
 Release: version 1.0, May 2013, Q-Chem Inc. Pittsburgh 
 -------------------------------------------------------
 ---------------------------------------
  Cycle       Energy         DIIS Error
 ---------------------------------------
    1    -286.7508646278      5.76E-05
    2    -286.7509104299      8.65E-06
    3    -286.7509100728      1.38E-05
    4    -286.7509107007      2.86E-06
    5    -286.7509107289      5.39E-07
    6    -286.7509107299      4.40E-07
    7    -286.7509107309      8.86E-08
    8    -286.7509107311      4.30E-08
    9    -286.7509107312      2.80E-08
   10    -286.7509107312      1.71E-08
   11    -286.7509107312      3.44E-09 Convergence criterion met
 ---------------------------------------
 <S^2> = 0.7663
 SCF time:  CPU 53.06 s  wall 21.49 s
 SCF   energy in the final basis set = -286.75091073
 Total energy in the final basis set = -286.75091073
 
 --------------------------------------------------------------
 
                    Orbital Energies (a.u.)
 --------------------------------------------------------------
 
 Alpha MOs
 -- Occupied --
-14.366 -10.252 -10.250 -10.218 -10.210 -10.204 -10.192  -0.985
 -0.813  -0.757  -0.682  -0.606  -0.597  -0.546  -0.505  -0.489
 -0.444  -0.421  -0.394  -0.385  -0.332  -0.315  -0.250  -0.232
 -0.206
 -- Virtual --
 -0.038  -0.026   0.009   0.015   0.018   0.035   0.038   0.052
  0.059   0.061   0.069   0.077   0.087   0.098   0.107   0.113
  0.124   0.137   0.140   0.145   0.151   0.155   0.159   0.173
  0.178   0.190   0.197   0.205   0.212   0.225   0.226   0.239
  0.246   0.251   0.279   0.286   0.301   0.315   0.316   0.344
  0.374   0.443   0.472   0.490   0.591   0.617   0.653   0.664
  0.683   0.701   0.716   0.729   0.742   0.753   0.770   0.782
  0.800   0.825   0.873   0.889   0.917   0.943   0.945   0.964
  0.995   1.028   1.052   1.062   1.078   1.138   1.144   1.165
  1.178   1.245   1.258   1.279   1.291   1.363   1.370   1.385
  1.427   1.490   1.530   1.583   1.634   1.681   1.717   1.764
  1.777   1.834   1.871   1.891   1.945   1.961   2.003   2.018
  2.042   2.070   2.119   2.143   2.189   2.230   2.297   2.353
  2.368   2.392   2.423   2.443   2.449   2.465   2.507   2.522
  2.565   2.595   2.612   2.659   2.696   2.713   2.770   2.807
  2.843   2.915   3.043   3.102   3.214   3.279   3.334   3.364
  3.494   3.721   3.774   4.127   4.284   4.380   4.460   4.581
  4.665   4.987
 
 Beta MOs
 -- Occupied --
-14.366 -10.252 -10.250 -10.218 -10.205 -10.195 -10.191  -0.985
 -0.809  -0.748  -0.674  -0.605  -0.587  -0.541  -0.498  -0.483
 -0.441  -0.410  -0.393  -0.382  -0.329  -0.313  -0.246  -0.202
 -- Virtual --
 -0.077  -0.031  -0.026   0.009   0.017   0.019   0.036   0.039
  0.052   0.061   0.062   0.070   0.078   0.087   0.099   0.108
  0.118   0.127   0.137   0.140   0.145   0.153   0.156   0.160
  0.175   0.179   0.192   0.201   0.208   0.212   0.226   0.228
  0.239   0.247   0.254   0.280   0.288   0.301   0.316   0.320
  0.348   0.383   0.448   0.479   0.495   0.594   0.628   0.655
  0.666   0.690   0.709   0.723   0.731   0.746   0.755   0.773
  0.792   0.805   0.829   0.877   0.892   0.919   0.947   0.949
  0.969   0.996   1.041   1.054   1.066   1.084   1.141   1.147
  1.168   1.180   1.258   1.260   1.280   1.296   1.366   1.375
  1.388   1.431   1.491   1.534   1.584   1.679   1.693   1.726
  1.773   1.782   1.848   1.881   1.896   1.958   1.966   2.008
  2.022   2.046   2.072   2.124   2.152   2.189   2.233   2.301
  2.359   2.373   2.394   2.433   2.444   2.453   2.467   2.508
  2.523   2.567   2.598   2.613   2.667   2.711   2.720   2.774
  2.813   2.846   2.920   3.047   3.102   3.218   3.284   3.340
  3.364   3.506   3.730   3.774   4.129   4.287   4.397   4.473
  4.581   4.669   4.988
 --------------------------------------------------------------
 
          Ground-State Mulliken Net Atomic Charges

     Atom                 Charge (a.u.)    Spin (a.u.)
  --------------------------------------------------------
      1 C                    -0.038721      -0.004000
      2 C                    -0.348476       1.201088
      3 C                    -0.118006      -0.270674
      4 C                    -0.093414       0.091891
      5 C                    -0.037223      -0.117032
      6 N                    -0.162854      -0.000234
      7 H                     0.172896      -0.000200
      8 H                     0.146293       0.009136
      9 H                     0.136695       0.082532
     10 H                     0.119068      -0.002575
     11 H                     0.122514       0.004688
     12 C                    -0.060307       0.003884
     13 H                     0.161534       0.001497
  --------------------------------------------------------
  Sum of atomic charges =    -0.000000
  Sum of spin   charges =     1.000000

 -----------------------------------------------------------------
                    Cartesian Multipole Moments
 -----------------------------------------------------------------
    Charge (ESU x 10^10)
                 0.0000
    Dipole Moment (Debye)
         X       0.3520      Y      -0.2083      Z      -1.8216
       Tot       1.8669
    Quadrupole Moments (Debye-Ang)
        XX     -37.8761     XY      -0.0199     YY     -36.7591
        XZ      -3.0479     YZ      -5.9657     ZZ     -43.7198
    Octopole Moments (Debye-Ang^2)
       XXX     -16.9724    XXY      -5.1205    XYY       0.9772
       YYY      -6.4844    XXZ      -6.5308    XYZ      -4.2637
       YYZ      -6.1490    XZZ       0.3177    YZZ      -3.0749
       ZZZ      -7.1974
    Hexadecapole Moments (Debye-Ang^3)
      XXXX    -416.6760   XXXY     -61.1374   XXYY    -118.8207
      XYYY     -53.6752   YYYY    -367.0314   XXXZ      64.4283
      XXYZ      21.9211   XYYZ      11.3934   YYYZ      66.8442
      XXZZ    -108.8080   XYZZ     -16.1819   YYZZ     -85.1257
      XZZZ      73.9093   YZZZ      95.9705   ZZZZ    -253.6250
 -----------------------------------------------------------------
 Calculating analytic gradient of the SCF energy
 Gradient of SCF Energy
            1           2           3           4           5           6
    1  -0.0000554  -0.0000424   0.0000593  -0.0000816   0.0001703  -0.0001578
    2   0.0000993  -0.0000942   0.0000885  -0.0000171   0.0000398  -0.0001191
    3   0.0000056  -0.0000271  -0.0000277   0.0000193   0.0000779  -0.0000840
            7           8           9          10          11          12
    1   0.0000195   0.0000011  -0.0000033   0.0000075  -0.0000164   0.0001354
    2  -0.0000005   0.0000388  -0.0000233  -0.0000017  -0.0000120   0.0000161
    3   0.0000250   0.0000293  -0.0000158  -0.0000066  -0.0000380   0.0000734
           13
    1  -0.0000363
    2  -0.0000148
    3  -0.0000310
 Max gradient component =       1.703E-04
 RMS gradient           =       6.389E-05
 Gradient time:  CPU 15.33 s  wall 4.71 s
 Geometry Optimization Parameters
   NAtoms,    NIC,     NZ,  NCons,   NDum,   NFix, NCnnct, MaxDiis
       13      81       0       0       0       0       0       0

 Cartesian Hessian Update
 Hessian Updated using BFGS Update


** GEOMETRY OPTIMIZATION IN DELOCALIZED INTERNAL COORDINATES **
   Searching for a Minimum

   Optimization Cycle:  17

                       Coordinates (Angstroms)
     ATOM                X               Y               Z
      1  C         1.6391022493    0.1891736337   -0.8026979909
      2  C         0.1663821214   -1.5994422011    1.2964800594
      3  C        -1.0382871808   -1.2337632397    0.8754418839
      4  C        -1.4448435370    0.0022261921    0.2097386769
      5  C        -0.6470299557    1.0155748759   -0.1960473667
      6  N         0.7453244276    1.0928516890    0.0176860284
      7  H         1.9600480564   -0.8368246241   -0.7775901557
      8  H         0.5723866558   -2.4491737412    1.8304774221
      9  H        -1.8588245781   -1.9386142220    1.0669011896
     10  H        -2.5120084201    0.1236681406    0.0470023991
     11  H        -1.0950064193    1.9079173276   -0.6335363477
     12  C         1.6049544501    1.4172919477   -1.1701298219
     13  H         1.9011566029    2.2878156806   -1.7304793702
   Point Group: c1    Number of degrees of freedom:    33


   Energy is   -286.750910731

 Hessian Updated using BFGS Update

 33 Hessian modes will be used to form the next step
  Hessian Eigenvalues:
     0.002403    0.004331    0.008058    0.014906    0.020941    0.022059
     0.022904    0.027288    0.037340    0.038729    0.084990    0.109714
     0.149438    0.159036    0.159322    0.160213    0.161066    0.209773
     0.220646    0.237970    0.280599    0.309963    0.338966    0.349393
     0.350835    0.357353    0.363910    0.365344    0.371427    0.434780
     0.562383    0.583013    0.619766

 Minimum Search - Taking Simple RFO Step
 Searching for Lamda that Minimizes Along All modes
 Value Taken    Lamda =   0.00000000
 Step Taken.  Stepsize is  0.008889

                             Maximum     Tolerance    Cnvgd?
         Gradient           0.000074      0.000300     YES
         Displacement       0.006825      0.001200      NO
         Energy change     -0.000001      0.000001     YES


                       Distance Matrix (Angstroms)
             C (  1)   C (  2)   C (  3)   C (  4)   C (  5)   N (  6)
   C (  2)  3.126436
   C (  3)  3.465446  1.327487
   C (  4)  3.251261  2.518412  1.461547
   C (  5)  2.505467  3.118909  2.522042  1.352052
   N (  6)  1.512780  3.036270  3.054530  2.454218  1.410781
   H (  7)  1.075318  2.846154  3.446751  3.643091  3.250605  2.414885
   H (  8)  3.877160  1.082606  2.232395  3.564460  4.195028  3.982721
   H (  9)  4.500930  2.066206  1.098523  2.161705  3.433762  4.131856
   H ( 10)  4.237688  3.421123  2.168130  1.086311  2.081518  3.398587
   H ( 11)  3.233890  4.197337  3.485741  2.113092  1.090117  2.115476
   C ( 12)  1.282360  4.153834  4.266050  3.634242  2.486292  1.501710
   H ( 13)  2.309491  5.223284  5.275668  4.492670  3.235171  2.412461
             H (  7)   H (  8)   H (  9)   H ( 10)   H ( 11)   C ( 12)
   H (  8)  3.365604
   H (  9)  4.381766  2.598944
   H ( 10)  4.647772  4.394746  2.391621
   H ( 11)  4.109467  5.275965  4.274425  2.377935
   C ( 12)  2.315431  5.001939  5.316407  4.483777  2.796146
   H ( 13)  3.267238  6.073311  6.310745  5.226758  3.213191  1.076819

 
 Final energy is   -286.750910731191     


 ******************************
 **  OPTIMIZATION CONVERGED  **
 ******************************

                       Coordinates (Angstroms)
     ATOM                X               Y               Z
      1  C         1.6391022493    0.1891736337   -0.8026979909
      2  C         0.1663821214   -1.5994422011    1.2964800594
      3  C        -1.0382871808   -1.2337632397    0.8754418839
      4  C        -1.4448435370    0.0022261921    0.2097386769
      5  C        -0.6470299557    1.0155748759   -0.1960473667
      6  N         0.7453244276    1.0928516890    0.0176860284
      7  H         1.9600480564   -0.8368246241   -0.7775901557
      8  H         0.5723866558   -2.4491737412    1.8304774221
      9  H        -1.8588245781   -1.9386142220    1.0669011896
     10  H        -2.5120084201    0.1236681406    0.0470023991
     11  H        -1.0950064193    1.9079173276   -0.6335363477
     12  C         1.6049544501    1.4172919477   -1.1701298219
     13  H         1.9011566029    2.2878156806   -1.7304793702

Z-matrix Print:
$molecule
0 2
N 
C  1 1.410781
H  2 1.090117 1 114.931740
C  2 1.352052 1 125.306741 3 -173.390717 0
H  4 1.086311 2 116.803211 1 174.893335 0
C  4 1.461547 2 127.328413 1 -3.538992 0
H  6 1.098523 4 114.470235 2 -177.045732 0
C  6 1.327487 4 129.039152 2 4.447636 0
H  8 1.082606 6 135.478292 4 176.628695 0
C  1 1.501710 2 117.191031 3 -55.945856 0
H  10 1.076819 1 138.049408 2 80.032023 0
C  10 1.282360 1 65.272558 2 -104.946446 0
H  12 1.075318 10 158.188990 1 -172.515375 0
$end

 
 --------------------------------------------------------------
 
                    Orbital Energies (a.u.)
 --------------------------------------------------------------
 
 Alpha MOs
 -- Occupied --
-14.366 -10.252 -10.250 -10.218 -10.210 -10.204 -10.192  -0.985
 -0.813  -0.757  -0.682  -0.606  -0.597  -0.546  -0.505  -0.489
 -0.444  -0.421  -0.394  -0.385  -0.332  -0.315  -0.250  -0.232
 -0.206
 -- Virtual --
 -0.038  -0.026   0.009   0.015   0.018   0.035   0.038   0.052
  0.059   0.061   0.069   0.077   0.087   0.098   0.107   0.113
  0.124   0.137   0.140   0.145   0.151   0.155   0.159   0.173
  0.178   0.190   0.197   0.205   0.212   0.225   0.226   0.239
  0.246   0.251   0.279   0.286   0.301   0.315   0.316   0.344
  0.374   0.443   0.472   0.490   0.591   0.617   0.653   0.664
  0.683   0.701   0.716   0.729   0.742   0.753   0.770   0.782
  0.800   0.825   0.873   0.889   0.917   0.943   0.945   0.964
  0.995   1.028   1.052   1.062   1.078   1.138   1.144   1.165
  1.178   1.245   1.258   1.279   1.291   1.363   1.370   1.385
  1.427   1.490   1.530   1.583   1.634   1.681   1.717   1.764
  1.777   1.834   1.871   1.891   1.945   1.961   2.003   2.018
  2.042   2.070   2.119   2.143   2.189   2.230   2.297   2.353
  2.368   2.392   2.423   2.443   2.449   2.465   2.507   2.522
  2.565   2.595   2.612   2.659   2.696   2.713   2.770   2.807
  2.843   2.915   3.043   3.102   3.214   3.279   3.334   3.364
  3.494   3.721   3.774   4.127   4.284   4.380   4.460   4.581
  4.665   4.987
 
 Beta MOs
 -- Occupied --
-14.366 -10.252 -10.250 -10.218 -10.205 -10.195 -10.191  -0.985
 -0.809  -0.748  -0.674  -0.605  -0.587  -0.541  -0.498  -0.483
 -0.441  -0.410  -0.393  -0.382  -0.329  -0.313  -0.246  -0.202
 -- Virtual --
 -0.077  -0.031  -0.026   0.009   0.017   0.019   0.036   0.039
  0.052   0.061   0.062   0.070   0.078   0.087   0.099   0.108
  0.118   0.127   0.137   0.140   0.145   0.153   0.156   0.160
  0.175   0.179   0.192   0.201   0.208   0.212   0.226   0.228
  0.239   0.247   0.254   0.280   0.288   0.301   0.316   0.320
  0.348   0.383   0.448   0.479   0.495   0.594   0.628   0.655
  0.666   0.690   0.709   0.723   0.731   0.746   0.755   0.773
  0.792   0.805   0.829   0.877   0.892   0.919   0.947   0.949
  0.969   0.996   1.041   1.054   1.066   1.084   1.141   1.147
  1.168   1.180   1.258   1.260   1.280   1.296   1.366   1.375
  1.388   1.431   1.491   1.534   1.584   1.679   1.693   1.726
  1.773   1.782   1.848   1.881   1.896   1.958   1.966   2.008
  2.022   2.046   2.072   2.124   2.152   2.189   2.233   2.301
  2.359   2.373   2.394   2.433   2.444   2.453   2.467   2.508
  2.523   2.567   2.598   2.613   2.667   2.711   2.720   2.774
  2.813   2.846   2.920   3.047   3.102   3.218   3.284   3.340
  3.364   3.506   3.730   3.774   4.129   4.287   4.397   4.473
  4.581   4.669   4.988
 --------------------------------------------------------------
 
          Ground-State Mulliken Net Atomic Charges

     Atom                 Charge (a.u.)    Spin (a.u.)
  --------------------------------------------------------
      1 C                    -0.038721      -0.004000
      2 C                    -0.348476       1.201088
      3 C                    -0.118006      -0.270674
      4 C                    -0.093414       0.091891
      5 C                    -0.037223      -0.117032
      6 N                    -0.162854      -0.000234
      7 H                     0.172896      -0.000200
      8 H                     0.146293       0.009136
      9 H                     0.136695       0.082532
     10 H                     0.119068      -0.002575
     11 H                     0.122514       0.004688
     12 C                    -0.060307       0.003884
     13 H                     0.161534       0.001497
  --------------------------------------------------------
  Sum of atomic charges =    -0.000000
  Sum of spin   charges =     1.000000

 -----------------------------------------------------------------
                    Cartesian Multipole Moments
 -----------------------------------------------------------------
    Charge (ESU x 10^10)
                 0.0000
    Dipole Moment (Debye)
         X       0.3520      Y      -0.2083      Z      -1.8216
       Tot       1.8669
    Quadrupole Moments (Debye-Ang)
        XX     -37.8761     XY      -0.0199     YY     -36.7591
        XZ      -3.0479     YZ      -5.9657     ZZ     -43.7198
    Octopole Moments (Debye-Ang^2)
       XXX     -16.9724    XXY      -5.1205    XYY       0.9772
       YYY      -6.4844    XXZ      -6.5308    XYZ      -4.2637
       YYZ      -6.1490    XZZ       0.3177    YZZ      -3.0749
       ZZZ      -7.1974
    Hexadecapole Moments (Debye-Ang^3)
      XXXX    -416.6760   XXXY     -61.1374   XXYY    -118.8207
      XYYY     -53.6752   YYYY    -367.0314   XXXZ      64.4283
      XXYZ      21.9211   XYYZ      11.3934   YYYZ      66.8442
      XXZZ    -108.8080   XYZZ     -16.1819   YYZZ     -85.1257
      XZZZ      73.9093   YZZZ      95.9705   ZZZZ    -253.6250
 -----------------------------------------------------------------
Archival summary:
1\1\c8-68\OPT\ProcedureUnspecified\6-31+G**\166(2)\hpark21\ThuMar303:44:112022ThuMar303:44:112022\0\\#,OPT,ProcedureUnspecified,6-31+G**,\\0,2\N\C,1,1.41078\H,2,1.09012,1,114.932\C,2,1.35205,1,125.307,3,-173.391,0\H,4,1.08631,2,116.803,1,174.893,0\C,4,1.46155,2,127.328,1,-3.53899,0\H,6,1.09852,4,114.47,2,-177.046,0\C,6,1.32749,4,129.039,2,4.44764,0\H,8,1.08261,6,135.478,4,176.629,0\C,1,1.50171,2,117.191,3,-55.9459,0\H,10,1.07682,1,138.049,2,80.032,0\C,10,1.28236,1,65.2726,2,-104.946,0\H,12,1.07532,10,158.189,1,-172.515,0\\\@

 Total job time:  484.42s(wall), 1385.15s(cpu) 
 Thu Mar  3 03:44:11 2022

        *************************************************************
        *                                                           *
        *  Thank you very much for using Q-Chem.  Have a nice day.  *
        *                                                           *
        *************************************************************


