
Running Job 1 of 1 qcts1.in
qchem qcts1.in_64159.0 ./qcts1.d/ 1
/home/leeping/opt/qchem/5.0.2-openmp/exe/qcprog.exe_s qcts1.in_64159.0 ./qcts1.d/
Check license passed

                  Welcome to Q-Chem
     A Quantum Leap Into The Future Of Chemistry


 Q-Chem 5.0, Q-Chem, Inc., Pleasanton, CA (2017)

 Yihan Shao,  Zhengting Gan,  E. Epifanovsky,  A. T. B. Gilbert,  M. Wormit,  
 J. Kussmann,  A. W. Lange,  A. Behn,  Jia Deng,  Xintian Feng,  D. Ghosh,  
 M. Goldey,  P. R. Horn,  L. D. Jacobson,  I. Kaliman,  T. Kus,  A. Landau,  
 Jie Liu,  E. I. Proynov,  R. M. Richard,  R. P. Steele,  E. J. Sundstrom,  
 H. L. Woodcock III,  P. M. Zimmerman,  D. Zuev,  B. Albrecht,  E. Alguire,  
 S. A. Baeppler,  D. Barton,  Z. Benda,  Y. A. Bernard,  E. J. Berquist,  
 K. B. Bravaya,  H. Burton,  D. Casanova,  Chun-Min Chang,  Yunqing Chen,  
 A. Chien,  K. D. Closser,  M. P. Coons,  S. Dasgupta,  A. L. Dempwolff,  
 M. Diedenhofen,  Hainam Do,  R. G. Edgar,  Po-Tung Fang,  S. Fatehi,  
 Qingguo Feng,  J. Fosso-Tande,  Qinghui Ge,  A. Ghysels,  G. Gidofalvi,  
 J. Gomes,  J. Gonthier,  A. Gunina,  M. W. D. Hanson-Heine,  
 P. H. P. Harbach,  A. W. Hauser,  J. E. Herr,  E. G. Hohenstein,  
 Z. C. Holden,  Kerwin Hui,  T.-C. Jagau,  Hyunjun Ji,  B. Kaduk,  
 K. Khistyaev,  Jaehoon Kim,  P. Klunzinger,  K. Koh,  D. Kosenkov,  
 L. Koulias,  T. Kowalczyk,  C. M. Krauter,  A. Kunitsa,  Ka Un Lao,  
 A. Laurent,  K. V. Lawler,  Joonho Lee,  D. Lefrancois,  S. Lehtola,  
 D. S. Levine,  Yi-Pei Li,  You-Sheng Lin,  Fenglai Liu,  E. Livshits,  
 A. Luenser,  P. Manohar,  E. Mansoor,  S. F. Manzer,  Shan-Ping Mao,  
 Yuezhi Mao,  N. Mardirossian,  A. V. Marenich,  T. Markovich,  
 L. A. Martinez-Martinez,  S. A. Maurer,  N. J. Mayhall,  S. C. McKenzie,  
 J.-M. Mewes,  A. F. Morrison,  J. W. Mullinax,  K. Nanda,  
 T. S. Nguyen-Beck,  R. Olivares-Amaya,  J. A. Parkhill,  T. M. Perrine,  
 F. Plasser,  S. Prager,  A. Prociuk,  E. Ramos,  D. R. Rehn,  F. Rob,  
 M. Schneider,  N. Sergueev,  S. M. Sharada,  S. Sharma,  D. W. Small,  
 T. Stauch,  T. Stein,  Yu-Chuan Su,  A. J. W. Thom,  A. Tkatchenko,  
 T. Tsuchimochi,  L. Vogt,  O. Vydrov,  M. A. Watson,  J. Wenzel,  
 M. de Wergifosse,  T. A. Wesolowski,  A. White,  J. Witte,  A. Yamada,  
 Jun Yang,  K. Yao,  S. Yeganeh,  S. R. Yost,  Zhi-Qiang You,  A. Zech,  
 Igor Ying Zhang,  Xing Zhang,  Yan Zhao,  Ying Zhu,  B. R. Brooks,  
 G. K. L. Chan,  C. J. Cramer,  M. S. Gordon,  W. J. Hehre,  A. Klamt,  
 M. W. Schmidt,  C. D. Sherrill,  D. G. Truhlar,  A. Aspuru-Guzik,  R. Baer,  
 A. T. Bell,  N. A. Besley,  Jeng-Da Chai,  R. A. DiStasio Jr.,  A. Dreuw,  
 B. D. Dunietz,  T. R. Furlani,  Chao-Ping Hsu,  Yousung Jung,  Jing Kong,  
 D. S. Lambrecht,  WanZhen Liang,  C. Ochsenfeld,  V. A. Rassolov,  
 L. V. Slipchenko,  J. E. Subotnik,  T. Van Voorhis,  J. M. Herbert,  
 A. I. Krylov,  P. M. W. Gill,  M. Head-Gordon

 Contributors to earlier versions of Q-Chem not listed above: 
 R. D. Adamson,  B. Austin,  J. Baker,  G. J. O. Beran,  K. Brandhorst,  
 S. T. Brown,  E. F. C. Byrd,  A. K. Chakraborty,  C.-L. Cheng,  
 Siu Hung Chien,  D. M. Chipman,  D. L. Crittenden,  H. Dachsel,  
 R. J. Doerksen,  A. D. Dutoi,  L. Fusti-Molnar,  W. A. Goddard III,  
 A. Golubeva-Zadorozhnaya,  S. R. Gwaltney,  G. Hawkins,  A. Heyden,  
 S. Hirata,  G. Kedziora,  F. J. Keil,  C. Kelley,  Jihan Kim,  R. A. King,  
 R. Z. Khaliullin,  P. P. Korambath,  W. Kurlancheek,  A. M. Lee,  M. S. Lee,  
 S. V. Levchenko,  Ching Yeh Lin,  D. Liotard,  R. C. Lochan,  I. Lotan,  
 P. E. Maslen,  N. Nair,  D. P. O'Neill,  D. Neuhauser,  E. Neuscamman,  
 C. M. Oana,  R. Olson,  B. Peters,  R. Peverati,  P. A. Pieniazek,  
 Y. M. Rhee,  J. Ritchie,  M. A. Rohrdanz,  E. Rosta,  N. J. Russ,  
 H. F. Schaefer III,  N. E. Schultz,  N. Shenvi,  A. C. Simmonett,  A. Sodt,  
 D. Stuck,  K. S. Thanthiriwatte,  V. Vanovschi,  Tao Wang,  A. Warshel,  
 C. F. Williams,  Q. Wu,  X. Xu,  W. Zhang

 Please cite Q-Chem as follows:
 Y. Shao et al., Mol. Phys. 113, 184-215 (2015)
 DOI: 10.1080/00268976.2014.952696

 Q-Chem 5.0.2 for Intel X86 EM64T Linux

 Parts of Q-Chem use Armadillo 5.200.1 (Boston Tea Smuggler).
 http://arma.sourceforge.net/

 Q-Chem begins on Wed Mar  2 20:30:30 2022  

Host: 
0

     Scratch files written to ./qcts1.d//
 Dec517 15110_ 26548  26544 5633   
Processing $rem in /home/leeping/opt/qchem/5.0.2-openmp/config/preferences.
 MEM_STATIC 2000
 MEM_TOTAL  8000
 SYMMETRY   OFF
 SYM_IGNORE TRUE 

Checking the input file for inconsistencies... 	...done.

--------------------------------------------------------------
User input:
--------------------------------------------------------------
$molecule
0 2
C        1.6784805107    0.2140532648   -0.3008949031
C        0.1878420000   -1.6661265785    0.8108548320
C       -1.0540769106   -1.2170487720    0.7434216533
C       -1.4723255795    0.1088044655    0.2875384414
C       -0.6951710806    1.1405477703   -0.1017315933
N        0.7158140241    1.3471005425   -0.0612779140
H        2.4857990085   -0.2431099919    0.2392216547
H        0.6637848717   -2.5844163971    1.1403042137
H       -1.8650231318   -1.9004598004    1.0186716501
H       -2.5470783538    0.2789986927    0.2677175729
H       -1.1826066173    2.0573107811   -0.4358191607
C        1.3975174313    0.9659845406   -1.3326389413
H        1.6803982983    1.4770629373   -2.2421208902
$end

$rem
method                b3lyp
basis                 6-31g(d)
unrestricted          true
symmetry              off
sym_ignore            true
incdft                false
incfock               0
scf_convergence       6
thresh                14
jobtype               sp
scf_guess             read
scf_algorithm         diis
max_scf_cycles        100
stability_analysis    true
max_cis_cycles        100
cis_n_roots           4
$end

--------------------------------------------------------------
 ----------------------------------------------------------------
             Standard Nuclear Orientation (Angstroms)
    I     Atom           X                Y                Z
 ----------------------------------------------------------------
    1      C       1.6784805107     0.2140532648    -0.3008949031
    2      C       0.1878420000    -1.6661265785     0.8108548320
    3      C      -1.0540769106    -1.2170487720     0.7434216533
    4      C      -1.4723255795     0.1088044655     0.2875384414
    5      C      -0.6951710806     1.1405477703    -0.1017315933
    6      N       0.7158140241     1.3471005425    -0.0612779140
    7      H       2.4857990085    -0.2431099919     0.2392216547
    8      H       0.6637848717    -2.5844163971     1.1403042137
    9      H      -1.8650231318    -1.9004598004     1.0186716501
   10      H      -2.5470783538     0.2789986927     0.2677175729
   11      H      -1.1826066173     2.0573107811    -0.4358191607
   12      C       1.3975174313     0.9659845406    -1.3326389413
   13      H       1.6803982983     1.4770629373    -2.2421208902
 ----------------------------------------------------------------
 Nuclear Repulsion Energy =   253.0599047889 hartrees
 There are       25 alpha and       24 beta electrons
 Requested basis set is 6-31G(d)
 There are 40 shells and 117 basis functions

 Total QAlloc Memory Limit   8000 MB
 Mega-Array Size      1956 MB
 MEM_STATIC part      2000 MB

                       Distance Matrix (Angstroms)
             C (  1)   C (  2)   C (  3)   C (  4)   C (  5)   N (  6)
   C (  2)  2.644441
   C (  3)  3.256612  1.322339
   C (  4)  3.207010  2.486040  1.463095
   C (  5)  2.555833  3.080576  2.530091  1.349072
   N (  6)  1.505968  3.181023  3.217906  2.538307  1.426597
   H (  7)  1.073540  2.762670  3.705873  3.974032  3.485589  2.398315
   H (  8)  3.307279  1.085502  2.231201  3.541697  4.155090  4.111366
   H (  9)  4.332302  2.076621  1.095649  2.173916  3.445517  4.286451
   H ( 10)  4.264140  3.399750  2.166450  1.088326  2.075649  3.448992
   H ( 11)  3.406115  4.158883  3.482608  2.098538  1.090716  2.061233
   C ( 12)  1.307225  3.603594  3.884067  3.405251  2.434122  1.492088
   H ( 13)  2.315935  4.629042  4.863030  4.267432  3.215251  2.388177
             H (  7)   H (  8)   H (  9)   H ( 10)   H ( 11)   C ( 12)
   H (  8)  3.100548
   H (  9)  4.720594  2.622491
   H ( 10)  5.059967  4.389783  2.403991
   H ( 11)  4.382330  5.238221  4.271438  2.349285
   C ( 12)  2.262081  4.388526  4.938556  4.311952  2.941482
   H ( 13)  3.124856  5.382371  5.883064  5.060257  3.434561  1.080916

 
 A cutoff of  1.0D-14 yielded    789 shell pairs
 There are      7051 function pairs
 Smallest overlap matrix eigenvalue = 1.55E-03

 Scale SEOQF with 1.000000e-01/1.000000e-01/1.000000e-01

 Standard Electronic Orientation quadrupole field applied
 Nucleus-field energy     =     0.0000000048 hartrees
 Guess MOs from SCF MO coefficient file
 Reading MOs from coefficient file
 Reading MOs from coefficient file
 An unrestricted hybrid HF-DFT SCF calculation will be
 performed using Pulay DIIS extrapolation
 Exchange:     0.2000 Hartree-Fock + 0.0800 Slater + 0.7200 B88
 Correlation:  0.1900 VWN1RPA + 0.8100 LYP
 Using SG-1 standard quadrature grid
 SCF converges when DIIS error is below 1.0E-06
Using Q-Chem read-in guess as SCF_GUESS READ specified.

 -------------------------------------------------------
 OpenMP BLAS3 based DFT computing Module                
 -------------------------------------------------------
 ---------------------------------------
  Cycle       Energy         DIIS Error
 ---------------------------------------
    1    -286.7152765550      2.98E-09
    2    -286.7152765550      3.05E-09 Convergence criterion met
 ---------------------------------------
 <S^2> = 0.8031
 SCF time:  CPU 3.15 s  wall 4.37 s
 SCF   energy in the final basis set = -286.71527655
 Total energy in the final basis set = -286.71527655
 
 Direct TDDFT/TDA calculation will be performed
 Exchange:     0.2000 Hartree-Fock + 0.0800 Slater + 0.7200 B88
 Correlation:  0.1900 VWN1RPA + 0.8100 LYP
 Using SG-1 standard quadrature grid
 CIS energy converged when residual is below 10e- 6
 ---------------------------------------------------
 Iter    Rts Conv    Rts Left    Ttl Dev     Max Dev
 ---------------------------------------------------
   1         0           4      0.005009    0.002219
   2         0           4      0.002320    0.000757
   3         0           4      0.001326    0.000656
   4         0           4      0.000544    0.000326
   5         0           4      0.000168    0.000096
   6         0           4      0.000040    0.000022
   7         1           3      0.000010    0.000006
   8         3           1      0.000003    0.000001
   9         4           0      0.000002    0.000001    Roots Converged
 ---------------------------------------------------
 
 ---------------------------------------------------
         TDDFT/TDA Excitation Energies              
 ---------------------------------------------------

 Excited state   1: excitation energy (eV) =    1.7398
 Total energy for state  1:                  -286.65133828 au
    <S**2>     :  0.9314
    Trans. Mom.: -0.1062 X  -0.1859 Y   0.2136 Z
    Strength   :     0.0038989807
    D( 24) --> S(  1) amplitude =  0.9623 beta

 Excited state   2: excitation energy (eV) =    2.4782
 Total energy for state  2:                  -286.62420410 au
    <S**2>     :  1.4096
    Trans. Mom.:  0.0015 X  -0.1407 Y   0.0184 Z
    Strength   :     0.0012233526
    S(  1) --> V(  2) amplitude =  0.4120 alpha
    D( 23) --> S(  1) amplitude =  0.8254 beta
    D( 24) --> V(  2) amplitude = -0.2562 beta

 Excited state   3: excitation energy (eV) =    2.9183
 Total energy for state  3:                  -286.60802939 au
    <S**2>     :  2.7590
    Trans. Mom.: -0.0040 X  -0.0131 Y  -0.0018 Z
    Strength   :     0.0000135473
    D( 23) --> V(  1) amplitude =  0.1806 alpha
    D( 24) --> V(  1) amplitude =  0.3506 alpha
    S(  1) --> V(  1) amplitude =  0.5354 alpha
    D( 23) --> V(  1) amplitude =  0.2643 beta
    D( 24) --> V(  1) amplitude = -0.6420 beta

 Excited state   4: excitation energy (eV) =    3.3470
 Total energy for state  4:                  -286.59227761 au
    <S**2>     :  1.6451
    Trans. Mom.:  0.1711 X   0.2100 Y  -0.2982 Z
    Strength   :     0.0133075395
    D( 23) --> V(  2) amplitude = -0.1914 alpha
    S(  1) --> V(  1) amplitude =  0.4193 alpha
    S(  1) --> V(  2) amplitude =  0.5351 alpha
    D( 23) --> S(  1) amplitude = -0.4604 beta
    D( 23) --> V(  2) amplitude = -0.2481 beta
    D( 24) --> S(  1) amplitude = -0.1922 beta
    D( 24) --> V(  1) amplitude =  0.1624 beta
    D( 24) --> V(  2) amplitude = -0.3320 beta
 
 ---------------------------------------------------

 Stability analysis will be performed
 ---------------------------------------------------
 Iter    Rts Conv    Rts Left    Ttl Dev     Max Dev
 ---------------------------------------------------
   1         0           8      0.005402    0.000789
   2         0           8      0.002451    0.000552
   3         0           8      0.000940    0.000249
   4         0           8      0.000371    0.000113
   5         2           6      0.000121    0.000041
   6         3           5      0.000049    0.000024
   7         4           4      0.000024    0.000015
   8         7           1      0.000009    0.000005
   9         7           1      0.000005    0.000002
  10         8           0      0.000003    0.000001    Roots Converged
 UKS-> UKS   stable,    smallest eigenvalue:      0.0471505
 UKS->CUKS   stable,    smallest eigenvalue:      0.0663649
 ---------------------------------------------------
  SETman timing summary (seconds)
  CPU time                74.95s
  System time              0.00s
  Wall time               79.20s
 
 --------------------------------------------------------------
 
                    Orbital Energies (a.u.)
 --------------------------------------------------------------
 
 Alpha MOs
 -- Occupied --
-14.351 -10.238 -10.236 -10.207 -10.201 -10.193 -10.181  -0.970
 -0.799  -0.745  -0.670  -0.592  -0.588  -0.529  -0.489  -0.482
 -0.435  -0.412  -0.377  -0.365  -0.329  -0.304  -0.237  -0.214
 -0.195
 -- Virtual --
 -0.021  -0.016   0.098   0.101   0.107   0.127   0.141   0.162
  0.171   0.181   0.197   0.267   0.338   0.360   0.395   0.443
  0.487   0.494   0.505   0.541   0.546   0.555   0.580   0.592
  0.623   0.629   0.651   0.666   0.686   0.732   0.761   0.782
  0.797   0.829   0.862   0.868   0.894   0.898   0.932   0.949
  0.990   1.005   1.012   1.073   1.109   1.172   1.227   1.233
  1.296   1.388   1.458   1.510   1.515   1.547   1.639   1.691
  1.709   1.721   1.736   1.803   1.848   1.887   1.894   1.981
  1.985   2.026   2.062   2.163   2.185   2.241   2.272   2.313
  2.336   2.346   2.450   2.498   2.575   2.587   2.687   2.730
  2.775   2.809   2.908   2.940   3.196   3.952   4.074   4.148
  4.233   4.268   4.340   4.575
 
 Beta MOs
 -- Occupied --
-14.351 -10.239 -10.234 -10.208 -10.195 -10.187 -10.180  -0.969
 -0.795  -0.738  -0.662  -0.588  -0.578  -0.524  -0.483  -0.475
 -0.430  -0.403  -0.373  -0.363  -0.325  -0.299  -0.226  -0.191
 -- Virtual --
 -0.078  -0.011   0.000   0.101   0.104   0.109   0.131   0.147
  0.165   0.172   0.185   0.198   0.268   0.345   0.363   0.406
  0.449   0.491   0.497   0.510   0.545   0.558   0.562   0.585
  0.596   0.628   0.639   0.661   0.671   0.686   0.734   0.762
  0.786   0.802   0.831   0.868   0.870   0.899   0.912   0.933
  0.953   0.993   1.013   1.017   1.077   1.113   1.176   1.231
  1.237   1.299   1.396   1.460   1.514   1.520   1.557   1.642
  1.703   1.716   1.733   1.770   1.802   1.865   1.896   1.913
  1.988   2.000   2.034   2.069   2.168   2.189   2.244   2.276
  2.319   2.339   2.349   2.458   2.504   2.578   2.591   2.692
  2.734   2.783   2.815   2.911   2.943   3.201   3.952   4.082
  4.166   4.241   4.272   4.338   4.577
 --------------------------------------------------------------
 
          Ground-State Mulliken Net Atomic Charges

     Atom                 Charge (a.u.)    Spin (a.u.)
  --------------------------------------------------------
      1 C                    -0.050649      -0.215694
      2 C                    -0.212641       0.961149
      3 C                    -0.122251      -0.159737
      4 C                    -0.111389       0.061410
      5 C                     0.004407      -0.051892
      6 N                    -0.391034       0.010791
      7 H                     0.183210       0.011598
      8 H                     0.153813       0.005961
      9 H                     0.141050       0.075521
     10 H                     0.123774       0.000652
     11 H                     0.136010       0.004506
     12 C                    -0.028762       0.307486
     13 H                     0.174462      -0.011751
  --------------------------------------------------------
  Sum of atomic charges =    -0.000000
  Sum of spin   charges =     1.000000

 -----------------------------------------------------------------
                    Cartesian Multipole Moments
 -----------------------------------------------------------------
    Charge (ESU x 10^10)
                 0.0000
    Dipole Moment (Debye)
         X       0.5126      Y      -0.8443      Z      -1.0571
       Tot       1.4468
    Quadrupole Moments (Debye-Ang)
        XX     -34.9011     XY      -1.2350     YY     -39.8658
        XZ      -1.7777     YZ      -5.1599     ZZ     -39.8205
    Octopole Moments (Debye-Ang^2)
       XXX      -6.8498    XXY      -6.5528    XYY      -6.0383
       YYY     -21.2272    XXZ      -0.1623    XYZ      -3.6453
       YYZ      -1.6339    XZZ       3.1065    YZZ       0.5368
       ZZZ     -10.7582
    Hexadecapole Moments (Debye-Ang^3)
      XXXX    -371.1805   XXXY     -43.8776   XXYY    -124.1937
      XYYY     -54.3541   YYYY    -363.1502   XXXZ      58.9098
      XXYZ      14.6082   XYYZ      15.5742   YYYZ      54.9527
      XXZZ     -89.6746   XYZZ      -4.9113   YYZZ     -80.3718
      XZZZ      50.0122   YZZZ      65.7155   ZZZZ    -160.6609
 -----------------------------------------------------------------
Archival summary:
1\1\c8-68\SP\ProcedureUnspecified\6-31G*\166(2)\hpark21\WedMar220:31:552022WedMar220:31:552022\0\\#,ProcedureUnspecified,6-31G*,\\0,2\N\C,1,1.4266\H,2,1.09072,1,109.208\C,2,1.34907,1,132.246,3,-173.773,0\H,4,1.08833,2,116.361,1,171.538,0\C,4,1.4631,2,128.19,1,-8.08847,0\H,6,1.09565,4,115.59,2,179.556,0\C,6,1.32234,4,126.308,2,-2.66301,0\H,8,1.0855,6,135.607,4,177.993,0\C,1,1.49209,2,113,3,-91.9333,0\H,10,1.08092,1,135.703,2,92.1199,0\C,10,1.30722,1,64.6983,2,-112.515,0\H,12,1.07354,10,143.483,1,-133.034,0\\\@

 Total job time:  84.69s(wall), 78.29s(cpu) 
 Wed Mar  2 20:31:55 2022

        *************************************************************
        *                                                           *
        *  Thank you very much for using Q-Chem.  Have a nice day.  *
        *                                                           *
        *************************************************************


