
Running Job 1 of 1 qcts2.in
qchem qcts2.in_65416.0 ./qcts2.d/ 1
/home/leeping/opt/qchem/5.0.2-openmp/exe/qcprog.exe_s qcts2.in_65416.0 ./qcts2.d/
Check license passed

                  Welcome to Q-Chem
     A Quantum Leap Into The Future Of Chemistry


 Q-Chem 5.0, Q-Chem, Inc., Pleasanton, CA (2017)

 Yihan Shao,  Zhengting Gan,  E. Epifanovsky,  A. T. B. Gilbert,  M. Wormit,  
 J. Kussmann,  A. W. Lange,  A. Behn,  Jia Deng,  Xintian Feng,  D. Ghosh,  
 M. Goldey,  P. R. Horn,  L. D. Jacobson,  I. Kaliman,  T. Kus,  A. Landau,  
 Jie Liu,  E. I. Proynov,  R. M. Richard,  R. P. Steele,  E. J. Sundstrom,  
 H. L. Woodcock III,  P. M. Zimmerman,  D. Zuev,  B. Albrecht,  E. Alguire,  
 S. A. Baeppler,  D. Barton,  Z. Benda,  Y. A. Bernard,  E. J. Berquist,  
 K. B. Bravaya,  H. Burton,  D. Casanova,  Chun-Min Chang,  Yunqing Chen,  
 A. Chien,  K. D. Closser,  M. P. Coons,  S. Dasgupta,  A. L. Dempwolff,  
 M. Diedenhofen,  Hainam Do,  R. G. Edgar,  Po-Tung Fang,  S. Fatehi,  
 Qingguo Feng,  J. Fosso-Tande,  Qinghui Ge,  A. Ghysels,  G. Gidofalvi,  
 J. Gomes,  J. Gonthier,  A. Gunina,  M. W. D. Hanson-Heine,  
 P. H. P. Harbach,  A. W. Hauser,  J. E. Herr,  E. G. Hohenstein,  
 Z. C. Holden,  Kerwin Hui,  T.-C. Jagau,  Hyunjun Ji,  B. Kaduk,  
 K. Khistyaev,  Jaehoon Kim,  P. Klunzinger,  K. Koh,  D. Kosenkov,  
 L. Koulias,  T. Kowalczyk,  C. M. Krauter,  A. Kunitsa,  Ka Un Lao,  
 A. Laurent,  K. V. Lawler,  Joonho Lee,  D. Lefrancois,  S. Lehtola,  
 D. S. Levine,  Yi-Pei Li,  You-Sheng Lin,  Fenglai Liu,  E. Livshits,  
 A. Luenser,  P. Manohar,  E. Mansoor,  S. F. Manzer,  Shan-Ping Mao,  
 Yuezhi Mao,  N. Mardirossian,  A. V. Marenich,  T. Markovich,  
 L. A. Martinez-Martinez,  S. A. Maurer,  N. J. Mayhall,  S. C. McKenzie,  
 J.-M. Mewes,  A. F. Morrison,  J. W. Mullinax,  K. Nanda,  
 T. S. Nguyen-Beck,  R. Olivares-Amaya,  J. A. Parkhill,  T. M. Perrine,  
 F. Plasser,  S. Prager,  A. Prociuk,  E. Ramos,  D. R. Rehn,  F. Rob,  
 M. Schneider,  N. Sergueev,  S. M. Sharada,  S. Sharma,  D. W. Small,  
 T. Stauch,  T. Stein,  Yu-Chuan Su,  A. J. W. Thom,  A. Tkatchenko,  
 T. Tsuchimochi,  L. Vogt,  O. Vydrov,  M. A. Watson,  J. Wenzel,  
 M. de Wergifosse,  T. A. Wesolowski,  A. White,  J. Witte,  A. Yamada,  
 Jun Yang,  K. Yao,  S. Yeganeh,  S. R. Yost,  Zhi-Qiang You,  A. Zech,  
 Igor Ying Zhang,  Xing Zhang,  Yan Zhao,  Ying Zhu,  B. R. Brooks,  
 G. K. L. Chan,  C. J. Cramer,  M. S. Gordon,  W. J. Hehre,  A. Klamt,  
 M. W. Schmidt,  C. D. Sherrill,  D. G. Truhlar,  A. Aspuru-Guzik,  R. Baer,  
 A. T. Bell,  N. A. Besley,  Jeng-Da Chai,  R. A. DiStasio Jr.,  A. Dreuw,  
 B. D. Dunietz,  T. R. Furlani,  Chao-Ping Hsu,  Yousung Jung,  Jing Kong,  
 D. S. Lambrecht,  WanZhen Liang,  C. Ochsenfeld,  V. A. Rassolov,  
 L. V. Slipchenko,  J. E. Subotnik,  T. Van Voorhis,  J. M. Herbert,  
 A. I. Krylov,  P. M. W. Gill,  M. Head-Gordon

 Contributors to earlier versions of Q-Chem not listed above: 
 R. D. Adamson,  B. Austin,  J. Baker,  G. J. O. Beran,  K. Brandhorst,  
 S. T. Brown,  E. F. C. Byrd,  A. K. Chakraborty,  C.-L. Cheng,  
 Siu Hung Chien,  D. M. Chipman,  D. L. Crittenden,  H. Dachsel,  
 R. J. Doerksen,  A. D. Dutoi,  L. Fusti-Molnar,  W. A. Goddard III,  
 A. Golubeva-Zadorozhnaya,  S. R. Gwaltney,  G. Hawkins,  A. Heyden,  
 S. Hirata,  G. Kedziora,  F. J. Keil,  C. Kelley,  Jihan Kim,  R. A. King,  
 R. Z. Khaliullin,  P. P. Korambath,  W. Kurlancheek,  A. M. Lee,  M. S. Lee,  
 S. V. Levchenko,  Ching Yeh Lin,  D. Liotard,  R. C. Lochan,  I. Lotan,  
 P. E. Maslen,  N. Nair,  D. P. O'Neill,  D. Neuhauser,  E. Neuscamman,  
 C. M. Oana,  R. Olson,  B. Peters,  R. Peverati,  P. A. Pieniazek,  
 Y. M. Rhee,  J. Ritchie,  M. A. Rohrdanz,  E. Rosta,  N. J. Russ,  
 H. F. Schaefer III,  N. E. Schultz,  N. Shenvi,  A. C. Simmonett,  A. Sodt,  
 D. Stuck,  K. S. Thanthiriwatte,  V. Vanovschi,  Tao Wang,  A. Warshel,  
 C. F. Williams,  Q. Wu,  X. Xu,  W. Zhang

 Please cite Q-Chem as follows:
 Y. Shao et al., Mol. Phys. 113, 184-215 (2015)
 DOI: 10.1080/00268976.2014.952696

 Q-Chem 5.0.2 for Intel X86 EM64T Linux

 Parts of Q-Chem use Armadillo 5.200.1 (Boston Tea Smuggler).
 http://arma.sourceforge.net/

 Q-Chem begins on Wed Mar  2 20:47:26 2022  

Host: 
0

     Scratch files written to ./qcts2.d//
 Dec517 15110_ 26548  26544 5633   
Processing $rem in /home/leeping/opt/qchem/5.0.2-openmp/config/preferences.
 MEM_STATIC 2000
 MEM_TOTAL  8000
 SYMMETRY   OFF
 SYM_IGNORE TRUE 

Checking the input file for inconsistencies... 	...done.

--------------------------------------------------------------
User input:
--------------------------------------------------------------
$molecule
0 2
C        1.6832658595    0.3176809945   -0.2489805359
C        0.2092045660   -1.7563746958    0.7023794991
C       -0.9904235340   -1.2067822155    0.7570690417
C       -1.4241075891    0.1123851253    0.2841811106
C       -0.7043447129    1.1738923450   -0.1303636648
N        0.6891936116    1.4490744089   -0.1097457494
H        2.2777721939   -0.2950180758    0.4015778029
H        0.6362327980   -2.7083892239    0.9935748133
H       -1.7984369780   -1.8125438279    1.1907189923
H       -2.5034812265    0.2487689697    0.2663900350
H       -1.2535686847    2.0559533563   -0.4596677189
C        1.4921169034    1.0196452689   -1.3082449186
H        1.6799312641    1.3804090251   -2.3056420918
$end

$rem
method                b3lyp
basis                 6-31+g(d,p)
unrestricted          true
symmetry              off
sym_ignore            true
incdft                false
incfock               0
scf_convergence       8
thresh                14
jobtype               freq
scf_guess             read
scf_algorithm         diis
max_scf_cycles        100
$end

--------------------------------------------------------------
 ----------------------------------------------------------------
             Standard Nuclear Orientation (Angstroms)
    I     Atom           X                Y                Z
 ----------------------------------------------------------------
    1      C       1.6832658595     0.3176809945    -0.2489805359
    2      C       0.2092045660    -1.7563746958     0.7023794991
    3      C      -0.9904235340    -1.2067822155     0.7570690417
    4      C      -1.4241075891     0.1123851253     0.2841811106
    5      C      -0.7043447129     1.1738923450    -0.1303636648
    6      N       0.6891936116     1.4490744089    -0.1097457494
    7      H       2.2777721939    -0.2950180758     0.4015778029
    8      H       0.6362327980    -2.7083892239     0.9935748133
    9      H      -1.7984369780    -1.8125438279     1.1907189923
   10      H      -2.5034812265     0.2487689697     0.2663900350
   11      H      -1.2535686847     2.0559533563    -0.4596677189
   12      C       1.4921169034     1.0196452689    -1.3082449186
   13      H       1.6799312641     1.3804090251    -2.3056420918
 ----------------------------------------------------------------
 Nuclear Repulsion Energy =   252.1190564307 hartrees
 There are       25 alpha and       24 beta electrons
 Requested basis set is 6-31+G(d,p)
 There are 53 shells and 163 basis functions

 Total QAlloc Memory Limit   8000 MB
 Mega-Array Size      1956 MB
 MEM_STATIC part      2000 MB

                       Distance Matrix (Angstroms)
             C (  1)   C (  2)   C (  3)   C (  4)   C (  5)   N (  6)
   C (  2)  2.716551
   C (  3)  3.238015  1.320663
   C (  4)  3.159458  2.516915  1.466938
   C (  5)  2.539262  3.180330  2.556754  1.347851
   N (  6)  1.512487  3.341383  3.259763  2.531395  1.420598
   H (  7)  1.073342  2.550493  3.411567  3.726080  3.366553  2.413896
   H (  8)  3.434723  1.083273  2.226380  3.564409  4.258227  4.301700
   H (  9)  4.328146  2.066943  1.099038  2.160390  3.443995  4.303216
   H ( 10)  4.218911  3.401375  2.156093  1.088101  2.061591  3.431528
   H ( 11)  3.419207  4.245457  3.492154  2.088026  1.090009  2.065205
   C ( 12)  1.285042  3.659885  3.922437  3.444315  2.497126  1.505156
   H ( 13)  2.315007  4.588098  4.817110  4.236759  3.234078  2.410028
             H (  7)   H (  8)   H (  9)   H ( 10)   H ( 11)   C ( 12)
   H (  8)  2.978166
   H (  9)  4.420533  2.601734
   H ( 10)  4.813976  4.373944  2.366534
   H ( 11)  4.328877  5.327497  4.240982  2.314164
   C ( 12)  2.295449  4.464208  5.009377  4.363316  3.054964
   H ( 13)  3.239369  5.356530  5.875248  5.039534  3.531204  1.077138

 
 A cutoff of  1.0D-14 yielded   1353 shell pairs
 There are     13307 function pairs
 Smallest overlap matrix eigenvalue = 2.09E-05
 Guess MOs from SCF MO coefficient file
 Reading MOs from coefficient file
 Reading MOs from coefficient file
 An unrestricted hybrid HF-DFT SCF calculation will be
 performed using Pulay DIIS extrapolation
 Exchange:     0.2000 Hartree-Fock + 0.0800 Slater + 0.7200 B88
 Correlation:  0.1900 VWN1RPA + 0.8100 LYP
 Using SG-1 standard quadrature grid
 SCF converges when DIIS error is below 1.0E-08
Using Q-Chem read-in guess as SCF_GUESS READ specified.

 -------------------------------------------------------
 OpenMP BLAS3 based DFT computing Module                
 -------------------------------------------------------
 ---------------------------------------
  Cycle       Energy         DIIS Error
 ---------------------------------------
    1    -286.7447874125      2.12E-09
    2    -286.7447874125      3.01E-09 Convergence criterion met
 ---------------------------------------
 <S^2> = 0.7744
 SCF time:  CPU 6.44 s  wall 10.03 s
 SCF   energy in the final basis set = -286.74478741
 Total energy in the final basis set = -286.74478741
 
 --------------------------------------------------------------
 
                    Orbital Energies (a.u.)
 --------------------------------------------------------------
 
 Alpha MOs
 -- Occupied --
-14.365 -10.250 -10.246 -10.219 -10.214 -10.208 -10.194  -0.981
 -0.812  -0.762  -0.685  -0.604  -0.600  -0.543  -0.498  -0.494
 -0.446  -0.425  -0.389  -0.380  -0.335  -0.318  -0.252  -0.230
 -0.207
 -- Virtual --
 -0.043  -0.021   0.010   0.014   0.019   0.035   0.043   0.049
  0.065   0.072   0.074   0.080   0.081   0.094   0.104   0.117
  0.128   0.136   0.140   0.142   0.149   0.155   0.161   0.176
  0.188   0.194   0.199   0.201   0.210   0.214   0.233   0.240
  0.244   0.258   0.268   0.286   0.305   0.310   0.323   0.336
  0.374   0.444   0.479   0.513   0.576   0.632   0.651   0.664
  0.682   0.693   0.700   0.728   0.741   0.748   0.769   0.798
  0.802   0.853   0.869   0.902   0.942   0.951   0.960   0.973
  0.990   1.025   1.032   1.049   1.080   1.120   1.151   1.169
  1.177   1.228   1.264   1.290   1.304   1.361   1.395   1.403
  1.469   1.474   1.546   1.631   1.639   1.665   1.689   1.748
  1.802   1.833   1.865   1.933   1.935   1.954   1.987   2.029
  2.041   2.078   2.111   2.174   2.217   2.246   2.307   2.344
  2.376   2.383   2.414   2.433   2.450   2.484   2.497   2.519
  2.551   2.591   2.610   2.665   2.684   2.691   2.774   2.795
  2.855   2.939   3.059   3.105   3.230   3.286   3.343   3.361
  3.489   3.707   3.781   4.170   4.266   4.382   4.467   4.582
  4.687   4.955
 
 Beta MOs
 -- Occupied --
-14.365 -10.248 -10.247 -10.219 -10.209 -10.199 -10.193  -0.980
 -0.807  -0.753  -0.677  -0.601  -0.590  -0.538  -0.492  -0.486
 -0.442  -0.415  -0.386  -0.379  -0.332  -0.314  -0.240  -0.205
 -- Virtual --
 -0.091  -0.036  -0.013   0.012   0.015   0.021   0.036   0.044
  0.050   0.065   0.073   0.075   0.083   0.085   0.096   0.104
  0.118   0.129   0.139   0.141   0.144   0.150   0.155   0.163
  0.177   0.189   0.196   0.201   0.203   0.210   0.217   0.234
  0.242   0.246   0.260   0.269   0.289   0.305   0.312   0.323
  0.339   0.382   0.452   0.481   0.521   0.577   0.640   0.655
  0.673   0.695   0.698   0.706   0.732   0.749   0.749   0.773
  0.798   0.806   0.855   0.877   0.906   0.945   0.953   0.964
  0.980   0.991   1.029   1.039   1.056   1.082   1.122   1.158
  1.172   1.178   1.233   1.267   1.292   1.310   1.363   1.401
  1.406   1.476   1.480   1.550   1.649   1.657   1.690   1.698
  1.752   1.806   1.849   1.878   1.939   1.943   1.962   1.992
  2.032   2.045   2.087   2.117   2.177   2.218   2.250   2.313
  2.350   2.379   2.388   2.420   2.435   2.452   2.487   2.502
  2.522   2.552   2.594   2.612   2.667   2.699   2.704   2.779
  2.803   2.857   2.943   3.063   3.106   3.234   3.291   3.348
  3.362   3.499   3.716   3.783   4.170   4.271   4.398   4.477
  4.583   4.690   4.956
 --------------------------------------------------------------
 
          Ground-State Mulliken Net Atomic Charges

     Atom                 Charge (a.u.)    Spin (a.u.)
  --------------------------------------------------------
      1 C                    -0.205468      -0.142338
      2 C                    -0.236833       1.061503
      3 C                    -0.161585      -0.220482
      4 C                     0.022929       0.073543
      5 C                    -0.182594      -0.051825
      6 N                    -0.147161       0.006826
      7 H                     0.174525       0.004588
      8 H                     0.147228       0.009994
      9 H                     0.138070       0.078860
     10 H                     0.118996      -0.000696
     11 H                     0.125264       0.003592
     12 C                     0.045472       0.183582
     13 H                     0.161158      -0.007147
  --------------------------------------------------------
  Sum of atomic charges =     0.000000
  Sum of spin   charges =     1.000000

 -----------------------------------------------------------------
                    Cartesian Multipole Moments
 -----------------------------------------------------------------
    Charge (ESU x 10^10)
                 0.0000
    Dipole Moment (Debye)
         X       0.3954      Y      -1.0809      Z      -1.0249
       Tot       1.5411
    Quadrupole Moments (Debye-Ang)
        XX     -37.0237     XY      -1.8669     YY     -42.4503
        XZ      -1.9974     YZ      -5.7359     ZZ     -40.6641
    Octopole Moments (Debye-Ang^2)
       XXX     -13.4343    XXY      -8.0134    XYY      -7.6179
       YYY     -27.3757    XXZ       1.0069    XYZ      -3.1479
       YYZ      -1.3259    XZZ       3.0698    YZZ       0.5769
       ZZZ     -12.0137
    Hexadecapole Moments (Debye-Ang^3)
      XXXX    -399.8107   XXXY     -50.9695   XXYY    -136.7037
      XYYY     -64.7105   YYYY    -418.5406   XXXZ      61.2331
      XXYZ      14.2995   XYYZ      16.1006   YYYZ      54.9256
      XXZZ     -91.5721   XYZZ      -3.6752   YYZZ     -90.9490
      XZZZ      47.0755   YZZZ      66.4235   ZZZZ    -165.6113
 -----------------------------------------------------------------
 Calculating MO derivatives via CPSCF
   1         3          39      0.318927    0.068309
   2         3          39      0.038121    0.007284
   3         3          39      0.005249    0.000825
   4         3          39      0.000778    0.000113
   5        22          20      0.000069    0.000012
   6        41           1      0.000001    0.000001
   7        42           0      0.000000    0.000000    Roots Converged
 Time for AOints: 18.7 s (CPU) 19.4 s (wall)
 ------------------------------------------------------------------------------
                     AOints        : Timing summary (seconds)
 ------------------------------------------------------------------------------
     job step          cpu (% of tot)      sys (% of tot)     wall (% of tot)
 ------------------------------------------------------------------------------
  cpscf_lag         0.1089E+03 (27.6)   0.3600E-04 (33.0)   0.1115E+03 (27.6)
  iterzp            0.2667E+03 (67.6)   0.6900E-04 (63.3)   0.2735E+03 (67.6)
  make_fx           0.0000E+00 ( 0.0)   0.0000E+00 ( 0.0)   0.0000E+00 ( 0.0)
  AOints            0.1873E+02 ( 4.7)   0.3000E-05 ( 2.8)   0.1939E+02 ( 4.8)
 ------------------------------------------------------------------------------
   Grand Totals     0.3946E+03          0.1090E-03          0.4047E+03
 ------------------------------------------------------------------------------
 Calculating analytic Hessian of the SCF energy
 Polarizability Matrix (a.u.)
            1           2           3
    1 -85.8563921  -1.8732626  10.5147072
    2  -1.8732626 -91.2004501  19.1837804
    3  10.5147072  19.1837804 -65.8137530
 
 Direct stationary perturbation theory relativistic correction:
 
 rels  =       0.069354171983
 relv  =      -0.332299482249
 rel2e =       0.149940604922
 E_rel =      -0.113004705344
 
 Hessian of the SCF Energy
            1           2           3           4           5           6
    1   0.2682250  -0.2392434   0.2130996  -0.0025164   0.0033124  -0.0036494
    2  -0.2392434   0.4170753  -0.4144451   0.0057184   0.0155416  -0.0105247
    3   0.2130996  -0.4144451   0.6926713  -0.0076129  -0.0156236   0.0078453
    4  -0.0025164   0.0057184  -0.0076129   0.5969873  -0.3322370   0.0056392
    5   0.0033124   0.0155416  -0.0156236  -0.3322370   0.4417084  -0.0879317
    6  -0.0036494  -0.0105247   0.0078453   0.0056392  -0.0879317   0.0675170
    7  -0.0014240  -0.0025976   0.0016744  -0.4668744   0.2084055   0.0177634
    8  -0.0046932  -0.0041756   0.0060437   0.1682509  -0.1473937   0.0056655
    9   0.0028618   0.0023729  -0.0039611   0.0335255  -0.0024515  -0.0398764
   10   0.0053911   0.0029170  -0.0035473  -0.0130069   0.0261212  -0.0081752
   11   0.0006705   0.0018617  -0.0022632   0.0343613  -0.0238374   0.0041069
   12  -0.0007921  -0.0024623   0.0012705  -0.0113398   0.0037849  -0.0014604
   13  -0.0203956  -0.0041637   0.0097491  -0.0026725   0.0102449  -0.0054892
   14   0.0351729   0.0041848  -0.0023794  -0.0111698   0.0058629  -0.0013289
   15  -0.0029099  -0.0045899  -0.0091490   0.0046728  -0.0022879   0.0016744
   16  -0.0875920   0.0977449   0.0045150  -0.0003766  -0.0106054   0.0055226
   17   0.0405796  -0.1108852  -0.0012850   0.0029352  -0.0010888   0.0008425
   18   0.0456299  -0.0477281  -0.0202769   0.0026656   0.0043273  -0.0034455
   19  -0.1306998   0.1251508  -0.1238053  -0.0027512  -0.0049223   0.0030161
   20   0.1159875  -0.1267616   0.1126661  -0.0046426  -0.0055147   0.0028531
   21  -0.1155000   0.1267340  -0.1778563   0.0010282   0.0009198   0.0003853
   22   0.0003533  -0.0002191   0.0008007  -0.0812214   0.1022443  -0.0265577
   23   0.0006734   0.0000293   0.0002112   0.1323221  -0.2831429   0.0782430
   24   0.0005411  -0.0011526   0.0016198  -0.0387533   0.0861420  -0.0435279
   25  -0.0006991  -0.0003653   0.0005423  -0.0309902  -0.0099983   0.0149256
   26   0.0000660   0.0013663  -0.0008057   0.0087362   0.0091846   0.0005498
   27  -0.0005720   0.0014281  -0.0008192   0.0077257   0.0033156   0.0128968
   28   0.0008708   0.0005678  -0.0004830   0.0003439   0.0012112  -0.0009677
   29   0.0001755   0.0005088  -0.0001040  -0.0001255  -0.0035784   0.0024862
   30  -0.0010574  -0.0006295   0.0007970  -0.0006881   0.0031422   0.0002673
   31  -0.0037150  -0.0017915  -0.0030660  -0.0007062  -0.0003169   0.0003160
   32  -0.0024614   0.0024461   0.0008462  -0.0003666   0.0002953   0.0000091
   33   0.0011628   0.0004525   0.0026325  -0.0001355  -0.0002420   0.0003023
   34  -0.0341718   0.0147139  -0.0884403   0.0035919   0.0063341  -0.0024104
   35   0.0480732  -0.2025591   0.3125269  -0.0037037  -0.0082667   0.0051921
   36  -0.1486232   0.3568841  -0.4939279   0.0031416   0.0068066  -0.0025472
   37   0.0063737   0.0015677  -0.0034262   0.0001927   0.0002064   0.0000667
   38   0.0016870   0.0013676   0.0046119  -0.0000788   0.0002299  -0.0001628
   39   0.0098089  -0.0063394  -0.0008460   0.0001309   0.0000982  -0.0000308
            7           8           9          10          11          12
    1  -0.0014240  -0.0046932   0.0028618   0.0053911   0.0006705  -0.0007921
    2  -0.0025976  -0.0041756   0.0023729   0.0029170   0.0018617  -0.0024623
    3   0.0016744   0.0060437  -0.0039611  -0.0035473  -0.0022632   0.0012705
    4  -0.4668744   0.1682509   0.0335255  -0.0130069   0.0343613  -0.0113398
    5   0.2084055  -0.1473937  -0.0024515   0.0261212  -0.0238374   0.0037849
    6   0.0177634   0.0056655  -0.0398764  -0.0081752   0.0041069  -0.0014604
    7   0.7419605  -0.1392858  -0.0818229  -0.1023633   0.0107541  -0.0012641
    8  -0.1392858   0.5062709  -0.1300788   0.0582628  -0.1934402   0.0498612
    9  -0.0818229  -0.1300788   0.1883254  -0.0207360   0.0545874  -0.0750646
   10  -0.1023633   0.0582628  -0.0207360   0.6717133   0.0849917  -0.0498715
   11   0.0107541  -0.1934402   0.0545874   0.0849917   0.6369438  -0.2006103
   12  -0.0012641   0.0498612  -0.0750646  -0.0498715  -0.2006103   0.1851731
   13   0.0173344  -0.0119828   0.0028254  -0.2107647  -0.1370500   0.0559258
   14   0.0006211  -0.0381781   0.0152940  -0.1664961  -0.3371163   0.1138850
   15  -0.0005602   0.0175905  -0.0003012   0.0655548   0.1139553  -0.0954351
   16  -0.0010628   0.0158567  -0.0068540  -0.0371299  -0.0262263   0.0085811
   17  -0.0007149   0.0016041  -0.0028354  -0.0309645   0.0022129   0.0023457
   18  -0.0015308  -0.0071918  -0.0028279   0.0133588  -0.0001677   0.0070302
   19   0.0003937   0.0009155  -0.0008375  -0.0012050  -0.0003808   0.0004508
   20   0.0003038   0.0002877  -0.0002435  -0.0006252  -0.0000224   0.0003577
   21   0.0000455   0.0008077  -0.0002142  -0.0001180  -0.0007280  -0.0001528
   22  -0.0016245   0.0257376  -0.0103171  -0.0019728  -0.0006156   0.0025653
   23  -0.0094182  -0.0006641   0.0024264   0.0028644   0.0027394   0.0017277
   24   0.0034120  -0.0069942   0.0021352   0.0021682   0.0033007   0.0064701
   25  -0.1791071  -0.1065002   0.0755717   0.0062750   0.0074063  -0.0028324
   26  -0.0954588  -0.1216880   0.0570111  -0.0219462  -0.0171390   0.0148004
   27   0.0702619   0.0607066  -0.0785996   0.0090235   0.0078479   0.0038407
   28  -0.0068152  -0.0005182   0.0009752  -0.3285785   0.0349277  -0.0043265
   29   0.0296670  -0.0063176   0.0017349   0.0360731  -0.0534000   0.0077635
   30  -0.0099010   0.0002300   0.0018323  -0.0027463   0.0103912  -0.0361394
   31  -0.0004982  -0.0019533   0.0009106   0.0083045  -0.0155200   0.0057719
   32  -0.0028904   0.0005276   0.0037866   0.0131256  -0.0183135   0.0085543
   33   0.0017612   0.0036635   0.0085073  -0.0049076   0.0106485   0.0033335
   34   0.0002632  -0.0044487   0.0040029   0.0048356   0.0071705  -0.0026828
   35   0.0005887   0.0037069  -0.0018472  -0.0051300  -0.0007990  -0.0002131
   36   0.0002639   0.0001983  -0.0002072  -0.0003549  -0.0012541   0.0012192
   37  -0.0001823   0.0003588  -0.0001056  -0.0014984  -0.0004893  -0.0001857
   38   0.0000255  -0.0005399   0.0002430   0.0008062   0.0003100   0.0002052
   39  -0.0001032  -0.0005022   0.0002520   0.0003515   0.0001854  -0.0000850
           13          14          15          16          17          18
    1  -0.0203956   0.0351729  -0.0029099  -0.0875920   0.0405796   0.0456299
    2  -0.0041637   0.0041848  -0.0045899   0.0977449  -0.1108852  -0.0477281
    3   0.0097491  -0.0023794  -0.0091490   0.0045150  -0.0012850  -0.0202769
    4  -0.0026725  -0.0111698   0.0046728  -0.0003766   0.0029352   0.0026656
    5   0.0102449   0.0058629  -0.0022879  -0.0106054  -0.0010888   0.0043273
    6  -0.0054892  -0.0013289   0.0016744   0.0055226   0.0008425  -0.0034455
    7   0.0173344   0.0006211  -0.0005602  -0.0010628  -0.0007149  -0.0015308
    8  -0.0119828  -0.0381781   0.0175905   0.0158567   0.0016041  -0.0071918
    9   0.0028254   0.0152940  -0.0003012  -0.0068540  -0.0028354  -0.0028279
   10  -0.2107647  -0.1664961   0.0655548  -0.0371299  -0.0309645   0.0133588
   11  -0.1370500  -0.3371163   0.1139553  -0.0262263   0.0022129  -0.0001677
   12   0.0559258   0.1138850  -0.0954351   0.0085811   0.0023457   0.0070302
   13   0.5966682   0.0662423  -0.0365168  -0.2186539  -0.0157402  -0.0042074
   14   0.0662423   0.7024187  -0.2128538  -0.0396438  -0.0905490   0.0174398
   15  -0.0365168  -0.2128538   0.2322821  -0.0164189   0.0060668  -0.0687357
   16  -0.2186539  -0.0396438  -0.0164189   0.4354678  -0.0644423  -0.0824827
   17  -0.0157402  -0.0905490   0.0060668  -0.0644423   0.2114151   0.0480206
   18  -0.0042074   0.0174398  -0.0687357  -0.0824827   0.0480206   0.1712631
   19   0.0016234   0.0028275  -0.0038320  -0.0039795   0.0036920  -0.0023708
   20   0.0007844   0.0006067  -0.0011949  -0.0007830  -0.0021222   0.0155435
   21   0.0007017  -0.0013669   0.0014891   0.0019525  -0.0012891   0.0085783
   22  -0.0018711   0.0001229  -0.0001340   0.0013983  -0.0006363  -0.0009857
   23  -0.0009270   0.0002335  -0.0000379   0.0001980  -0.0004484  -0.0007522
   24   0.0001458   0.0003188  -0.0003885  -0.0000624  -0.0014106  -0.0007975
   25  -0.0000807   0.0014955  -0.0002823   0.0007364   0.0000773  -0.0001590
   26   0.0046906  -0.0024006   0.0017968  -0.0005037   0.0003153   0.0013665
   27  -0.0009456   0.0017564  -0.0001142   0.0002252   0.0009789   0.0026116
   28  -0.0182590   0.0030830  -0.0012553   0.0017092  -0.0019484   0.0021853
   29  -0.0279508   0.0012771  -0.0008756  -0.0002752  -0.0009343   0.0056903
   30   0.0118027  -0.0035822   0.0003685   0.0023600   0.0069610   0.0094043
   31  -0.1153070   0.1097464  -0.0428126  -0.0272692   0.0261592  -0.0086875
   32   0.1109898  -0.2354190   0.0741899  -0.0030216   0.0046947  -0.0014178
   33  -0.0379503   0.0730206  -0.0650733  -0.0029657  -0.0028436   0.0039499
   34  -0.0300424   0.0008515   0.0326457  -0.0631638   0.0398587   0.0298004
   35   0.0075367  -0.0111352   0.0087479   0.0307272  -0.0239686  -0.0279013
   36   0.0048426   0.0000564   0.0030403   0.0864632  -0.0624022  -0.0996713
   37   0.0024210  -0.0028533   0.0018487  -0.0000839   0.0011447   0.0067839
   38  -0.0026742   0.0002146  -0.0005072   0.0009746   0.0097545  -0.0072291
   39  -0.0008839  -0.0002598   0.0003427  -0.0008359   0.0068503  -0.0070826
           19          20          21          22          23          24
    1  -0.1306998   0.1159875  -0.1155000   0.0003533   0.0006734   0.0005411
    2   0.1251508  -0.1267616   0.1267340  -0.0002191   0.0000293  -0.0011526
    3  -0.1238053   0.1126661  -0.1778563   0.0008007   0.0002112   0.0016198
    4  -0.0027512  -0.0046426   0.0010282  -0.0812214   0.1323221  -0.0387533
    5  -0.0049223  -0.0055147   0.0009198   0.1022443  -0.2831429   0.0861420
    6   0.0030161   0.0028531   0.0003853  -0.0265577   0.0782430  -0.0435279
    7   0.0003937   0.0003038   0.0000455  -0.0016245  -0.0094182   0.0034120
    8   0.0009155   0.0002877   0.0008077   0.0257376  -0.0006641  -0.0069942
    9  -0.0008375  -0.0002435  -0.0002142  -0.0103171   0.0024264   0.0021352
   10  -0.0012050  -0.0006252  -0.0001180  -0.0019728   0.0028644   0.0021682
   11  -0.0003808  -0.0000224  -0.0007280  -0.0006156   0.0027394   0.0033007
   12   0.0004508   0.0003577  -0.0001528   0.0025653   0.0017277   0.0064701
   13   0.0016234   0.0007844   0.0007017  -0.0018711  -0.0009270   0.0001458
   14   0.0028275   0.0006067  -0.0013669   0.0001229   0.0002335   0.0003188
   15  -0.0038320  -0.0011949   0.0014891  -0.0001340  -0.0000379  -0.0003885
   16  -0.0039795  -0.0007830   0.0019525   0.0013983   0.0001980  -0.0000624
   17   0.0036920  -0.0021222  -0.0012891  -0.0006363  -0.0004484  -0.0014106
   18  -0.0023708   0.0155435   0.0085783  -0.0009857  -0.0007522  -0.0007975
   19   0.1301286  -0.1211509   0.1174707  -0.0000600  -0.0004045  -0.0001855
   20  -0.1211509   0.1392064  -0.1300929  -0.0004197  -0.0004651   0.0008018
   21   0.1174707  -0.1300929   0.1662123   0.0002017   0.0001476  -0.0000082
   22  -0.0000600  -0.0004197   0.0002017   0.0828629  -0.1265683   0.0352835
   23  -0.0004045  -0.0004651   0.0001476  -0.1265683   0.2823662  -0.0810563
   24  -0.0001855   0.0008018  -0.0000082   0.0352835  -0.0810563   0.0377104
   25   0.0002160  -0.0001232   0.0000679   0.0030126   0.0015602  -0.0021174
   26  -0.0001857  -0.0001930   0.0000510  -0.0011300  -0.0002372  -0.0007993
   27  -0.0001296  -0.0006478   0.0001030  -0.0007581  -0.0013697  -0.0022234
   28   0.0000308  -0.0000035   0.0000272  -0.0000854   0.0002230   0.0000186
   29  -0.0000438   0.0000009   0.0000152   0.0010918  -0.0005317  -0.0004067
   30   0.0003911   0.0003123  -0.0000628  -0.0004074   0.0001691   0.0004059
   31  -0.0008595   0.0002113   0.0009338   0.0002284  -0.0000231  -0.0000503
   32  -0.0001644   0.0002383   0.0002728   0.0000408  -0.0001658  -0.0002241
   33   0.0002872  -0.0001020  -0.0000044  -0.0001878  -0.0002043  -0.0006599
   34   0.0069857   0.0116873  -0.0053572  -0.0011097  -0.0005671  -0.0003263
   35  -0.0034742  -0.0058772   0.0028666   0.0003720   0.0002434   0.0014978
   36   0.0102982  -0.0006241   0.0009272   0.0006442   0.0005431  -0.0007551
   37   0.0001771  -0.0012262  -0.0014541   0.0000894   0.0000672  -0.0000738
   38  -0.0018592   0.0006162   0.0016624  -0.0000204   0.0000433  -0.0000172
   39  -0.0007533   0.0003706   0.0006037  -0.0001475  -0.0000475   0.0000191
           25          26          27          28          29          30
    1  -0.0006991   0.0000660  -0.0005720   0.0008708   0.0001755  -0.0010574
    2  -0.0003653   0.0013663   0.0014281   0.0005678   0.0005088  -0.0006295
    3   0.0005423  -0.0008057  -0.0008192  -0.0004830  -0.0001040   0.0007970
    4  -0.0309902   0.0087362   0.0077257   0.0003439  -0.0001255  -0.0006881
    5  -0.0099983   0.0091846   0.0033156   0.0012112  -0.0035784   0.0031422
    6   0.0149256   0.0005498   0.0128968  -0.0009677   0.0024862   0.0002673
    7  -0.1791071  -0.0954588   0.0702619  -0.0068152   0.0296670  -0.0099010
    8  -0.1065002  -0.1216880   0.0607066  -0.0005182  -0.0063176   0.0002300
    9   0.0755717   0.0570111  -0.0785996   0.0009752   0.0017349   0.0018323
   10   0.0062750  -0.0219462   0.0090235  -0.3285785   0.0360731  -0.0027463
   11   0.0074063  -0.0171390   0.0078479   0.0349277  -0.0534000   0.0103912
   12  -0.0028324   0.0148004   0.0038407  -0.0043265   0.0077635  -0.0361394
   13  -0.0000807   0.0046906  -0.0009456  -0.0182590  -0.0279508   0.0118027
   14   0.0014955  -0.0024006   0.0017564   0.0030830   0.0012771  -0.0035822
   15  -0.0002823   0.0017968  -0.0001142  -0.0012553  -0.0008756   0.0003685
   16   0.0007364  -0.0005037   0.0002252   0.0017092  -0.0002752   0.0023600
   17   0.0000773   0.0003153   0.0009789  -0.0019484  -0.0009343   0.0069610
   18  -0.0001590   0.0013665   0.0026116   0.0021853   0.0056903   0.0094043
   19   0.0002160  -0.0001857  -0.0001296   0.0000308  -0.0000438   0.0003911
   20  -0.0001232  -0.0001930  -0.0006478  -0.0000035   0.0000009   0.0003123
   21   0.0000679   0.0000510   0.0001030   0.0000272   0.0000152  -0.0000628
   22   0.0030126  -0.0011300  -0.0007581  -0.0000854   0.0010918  -0.0004074
   23   0.0015602  -0.0002372  -0.0013697   0.0002230  -0.0005317   0.0001691
   24  -0.0021174  -0.0007993  -0.0022234   0.0000186  -0.0004067   0.0004059
   25   0.1999918   0.1059997  -0.0852029   0.0011134   0.0001009  -0.0004537
   26   0.1059997   0.1321155  -0.0725064   0.0000567   0.0006533  -0.0006883
   27  -0.0852029  -0.0725064   0.0641601   0.0001468  -0.0006110  -0.0001425
   28   0.0011134   0.0000567   0.0001468   0.3487750  -0.0363287   0.0037438
   29   0.0001009   0.0006533  -0.0006110  -0.0363287   0.0638250  -0.0134867
   30  -0.0004537  -0.0006883  -0.0001425   0.0037438  -0.0134867   0.0285510
   31   0.0000504  -0.0006596   0.0002479   0.0010666  -0.0010622   0.0002413
   32   0.0001770  -0.0013017   0.0002234  -0.0004986  -0.0005825  -0.0021845
   33  -0.0000878  -0.0002171  -0.0007558  -0.0002992  -0.0024342  -0.0057151
   34  -0.0005467   0.0003762  -0.0000456   0.0000597  -0.0010601  -0.0032706
   35   0.0001882  -0.0006646  -0.0010898  -0.0008240  -0.0010840  -0.0008118
   36   0.0001105  -0.0006100  -0.0009597   0.0002305   0.0001459   0.0003721
   37   0.0000283  -0.0000413   0.0000229  -0.0002312  -0.0002620  -0.0000143
   38  -0.0000181  -0.0000109  -0.0000319   0.0000522   0.0001633   0.0001772
   39  -0.0000824   0.0000513   0.0000022   0.0000042   0.0000823   0.0000613
           31          32          33          34          35          36
    1  -0.0037150  -0.0024614   0.0011628  -0.0341718   0.0480732  -0.1486232
    2  -0.0017915   0.0024461   0.0004525   0.0147139  -0.2025591   0.3568841
    3  -0.0030660   0.0008462   0.0026325  -0.0884403   0.3125269  -0.4939279
    4  -0.0007062  -0.0003666  -0.0001355   0.0035919  -0.0037037   0.0031416
    5  -0.0003169   0.0002953  -0.0002420   0.0063341  -0.0082667   0.0068066
    6   0.0003160   0.0000091   0.0003023  -0.0024104   0.0051921  -0.0025472
    7  -0.0004982  -0.0028904   0.0017612   0.0002632   0.0005887   0.0002639
    8  -0.0019533   0.0005276   0.0036635  -0.0044487   0.0037069   0.0001983
    9   0.0009106   0.0037866   0.0085073   0.0040029  -0.0018472  -0.0002072
   10   0.0083045   0.0131256  -0.0049076   0.0048356  -0.0051300  -0.0003549
   11  -0.0155200  -0.0183135   0.0106485   0.0071705  -0.0007990  -0.0012541
   12   0.0057719   0.0085543   0.0033335  -0.0026828  -0.0002131   0.0012192
   13  -0.1153070   0.1109898  -0.0379503  -0.0300424   0.0075367   0.0048426
   14   0.1097464  -0.2354190   0.0730206   0.0008515  -0.0111352   0.0000564
   15  -0.0428126   0.0741899  -0.0650733   0.0326457   0.0087479   0.0030403
   16  -0.0272692  -0.0030216  -0.0029657  -0.0631638   0.0307272   0.0864632
   17   0.0261592   0.0046947  -0.0028436   0.0398587  -0.0239686  -0.0624022
   18  -0.0086875  -0.0014178   0.0039499   0.0298004  -0.0279013  -0.0996713
   19  -0.0008595  -0.0001644   0.0002872   0.0069857  -0.0034742   0.0102982
   20   0.0002113   0.0002383  -0.0001020   0.0116873  -0.0058772  -0.0006241
   21   0.0009338   0.0002728  -0.0000044  -0.0053572   0.0028666   0.0009272
   22   0.0002284   0.0000408  -0.0001878  -0.0011097   0.0003720   0.0006442
   23  -0.0000231  -0.0001658  -0.0002043  -0.0005671   0.0002434   0.0005431
   24  -0.0000503  -0.0002241  -0.0006599  -0.0003263   0.0014978  -0.0007551
   25   0.0000504   0.0001770  -0.0000878  -0.0005467   0.0001882   0.0001105
   26  -0.0006596  -0.0013017  -0.0002171   0.0003762  -0.0006646  -0.0006100
   27   0.0002479   0.0002234  -0.0007558  -0.0000456  -0.0010898  -0.0009597
   28   0.0010666  -0.0004986  -0.0002992   0.0000597  -0.0008240   0.0002305
   29  -0.0010622  -0.0005825  -0.0024342  -0.0010601  -0.0010840   0.0001459
   30   0.0002413  -0.0021845  -0.0057151  -0.0032706  -0.0008118   0.0003721
   31   0.1384573  -0.1152784   0.0448954   0.0001874   0.0003897   0.0009454
   32  -0.1152784   0.2472082  -0.0829419   0.0000869   0.0006834  -0.0011523
   33   0.0448954  -0.0829419   0.0542435  -0.0017117   0.0013722  -0.0006135
   34   0.0001874   0.0000869  -0.0017117   0.1502930  -0.0647284  -0.0140377
   35   0.0003897   0.0006834   0.0013722  -0.0647284   0.3266280  -0.4138729
   36   0.0009454  -0.0011523  -0.0006135  -0.0140377  -0.4138729   0.9161502
   37   0.0000605   0.0002614   0.0001390  -0.0371822  -0.0100155   0.0560756
   38   0.0000986  -0.0003111  -0.0001722  -0.0102747  -0.0769074   0.1152812
   39   0.0003541   0.0000385  -0.0001469   0.0518337   0.1135327  -0.3230270
           37          38          39
    1   0.0063737   0.0016870   0.0098089
    2   0.0015677   0.0013676  -0.0063394
    3  -0.0034262   0.0046119  -0.0008460
    4   0.0001927  -0.0000788   0.0001309
    5   0.0002064   0.0002299   0.0000982
    6   0.0000667  -0.0001628  -0.0000308
    7  -0.0001823   0.0000255  -0.0001032
    8   0.0003588  -0.0005399  -0.0005022
    9  -0.0001056   0.0002430   0.0002520
   10  -0.0014984   0.0008062   0.0003515
   11  -0.0004893   0.0003100   0.0001854
   12  -0.0001857   0.0002052  -0.0000850
   13   0.0024210  -0.0026742  -0.0008839
   14  -0.0028533   0.0002146  -0.0002598
   15   0.0018487  -0.0005072   0.0003427
   16  -0.0000839   0.0009746  -0.0008359
   17   0.0011447   0.0097545   0.0068503
   18   0.0067839  -0.0072291  -0.0070826
   19   0.0001771  -0.0018592  -0.0007533
   20  -0.0012262   0.0006162   0.0003706
   21  -0.0014541   0.0016624   0.0006037
   22   0.0000894  -0.0000204  -0.0001475
   23   0.0000672   0.0000433  -0.0000475
   24  -0.0000738  -0.0000172   0.0000191
   25   0.0000283  -0.0000181  -0.0000824
   26  -0.0000413  -0.0000109   0.0000513
   27   0.0000229  -0.0000319   0.0000022
   28  -0.0002312   0.0000522   0.0000042
   29  -0.0002620   0.0001633   0.0000823
   30  -0.0000143   0.0001772   0.0000613
   31   0.0000605   0.0000986   0.0003541
   32   0.0002614  -0.0003111   0.0000385
   33   0.0001390  -0.0001722  -0.0001469
   34  -0.0371822  -0.0102747   0.0518337
   35  -0.0100155  -0.0769074   0.1135327
   36   0.0560756   0.1152812  -0.3230270
   37   0.0298354   0.0112814  -0.0596771
   38   0.0112814   0.0650700  -0.1140605
   39  -0.0596771  -0.1140605   0.3299372
 Gradient time:  CPU 514.09 s  wall 528.13 s
 **********************************************************************
 **                                                                  **
 **                       VIBRATIONAL ANALYSIS                       **
 **                       --------------------                       **
 **                                                                  **
 **        VIBRATIONAL FREQUENCIES (CM**-1) AND NORMAL MODES         **
 **     FORCE CONSTANTS (mDYN/ANGSTROM) AND REDUCED MASSES (AMU)     **
 **                  INFRARED INTENSITIES (KM/MOL)                   **
 **                                                                  **
 **********************************************************************
 

 Mode:                 1                      2                      3
 Frequency:      -161.23                  44.93                 136.05
 Force Cnst:      0.0543                 0.0034                 0.0450
 Red. Mass:       3.5478                 2.8750                 4.1239
 IR Active:          YES                    YES                    YES
 IR Intens:        3.508                  6.318                  5.740
 Raman Active:       YES                    YES                    YES
               X      Y      Z        X      Y      Z        X      Y      Z
 C          0.057  0.091 -0.185    0.041  0.038 -0.000   -0.038 -0.237 -0.153
 C         -0.105 -0.166  0.272   -0.092 -0.121 -0.179    0.092  0.277  0.020
 C         -0.067 -0.052 -0.008    0.010  0.060  0.223   -0.002  0.067  0.035
 C          0.028 -0.033 -0.032   -0.017 -0.012  0.034   -0.093 -0.009 -0.075
 C          0.047 -0.030 -0.010   -0.026 -0.068 -0.122   -0.013 -0.058 -0.041
 N          0.028  0.001  0.058   -0.043 -0.033 -0.031    0.010 -0.195  0.137
 H         -0.203 -0.358 -0.370   -0.024 -0.008  0.015    0.149 -0.210 -0.301
 H         -0.250 -0.202  0.362   -0.089 -0.105 -0.128    0.291  0.383  0.076
 H         -0.186 -0.046 -0.215    0.113  0.274  0.716    0.088  0.008  0.113
 H          0.032 -0.011 -0.079   -0.020 -0.029  0.029   -0.094 -0.036 -0.173
 H          0.037 -0.039 -0.021   -0.028 -0.125 -0.274    0.098 -0.026 -0.141
 C          0.055  0.214 -0.074    0.120  0.124  0.043   -0.007  0.139  0.073
 H          0.006  0.367 -0.026    0.219  0.209  0.091    0.068  0.446  0.196
 TransDip  -0.034 -0.026 -0.042    0.047  0.052  0.039    0.027  0.067 -0.026

 Mode:                 4                      5                      6
 Frequency:       260.82                 309.74                 450.59
 Force Cnst:      0.1313                 0.1688                 0.2656
 Red. Mass:       3.2754                 2.9864                 2.2201
 IR Active:          YES                    YES                    YES
 IR Intens:        6.018                  2.140                 32.525
 Raman Active:       YES                    YES                    YES
               X      Y      Z        X      Y      Z        X      Y      Z
 C          0.132  0.075  0.003    0.263  0.121 -0.004   -0.109  0.070 -0.005
 C         -0.019  0.132  0.020   -0.093  0.078 -0.050   -0.026  0.054 -0.042
 C         -0.118 -0.072 -0.060   -0.132 -0.028  0.055   -0.070 -0.063  0.035
 C         -0.101  0.025  0.230   -0.058 -0.064 -0.085   -0.018 -0.092 -0.099
 C         -0.045 -0.089 -0.000    0.062 -0.093  0.059    0.017  0.006  0.157
 N         -0.044 -0.103 -0.127    0.070 -0.001  0.067    0.030  0.021 -0.013
 H          0.142  0.155  0.074    0.446  0.245 -0.051   -0.189 -0.012 -0.004
 H          0.075  0.074 -0.316    0.093  0.181  0.008    0.292  0.309  0.314
 H         -0.137 -0.296 -0.416   -0.083  0.030  0.220    0.011  0.065  0.360
 H         -0.088  0.151  0.451   -0.049 -0.012 -0.268   -0.009 -0.003 -0.033
 H         -0.028 -0.053  0.068    0.104 -0.094 -0.019   -0.027  0.087  0.452
 C          0.179  0.038 -0.035   -0.121 -0.024 -0.029    0.126 -0.047 -0.121
 H          0.324  0.105  0.017   -0.540 -0.212 -0.177    0.461  0.120  0.006
 TransDip   0.068  0.018 -0.034   -0.014 -0.045  0.002    0.068 -0.012  0.169

 Mode:                 7                      8                      9
 Frequency:       484.36                 511.29                 555.38
 Force Cnst:      0.2859                 0.4638                 0.2806
 Red. Mass:       2.0687                 3.0111                 1.5443
 IR Active:          YES                    YES                    YES
 IR Intens:       53.056                 13.625                 29.911
 Raman Active:       YES                    YES                    YES
               X      Y      Z        X      Y      Z        X      Y      Z
 C          0.130 -0.067 -0.019    0.066  0.171  0.040   -0.047  0.078  0.014
 C          0.009 -0.084  0.026    0.063 -0.011 -0.040   -0.003 -0.029  0.024
 C          0.060  0.053 -0.078    0.120  0.132 -0.064    0.026  0.043  0.006
 C         -0.062  0.009 -0.073   -0.140  0.050 -0.003    0.006  0.024 -0.006
 C         -0.081  0.072  0.078   -0.069 -0.007  0.009    0.026 -0.003  0.011
 N         -0.057 -0.068 -0.106   -0.045 -0.148  0.144    0.010 -0.089  0.067
 H          0.394  0.275  0.065   -0.460 -0.551 -0.160    0.330  0.481  0.064
 H         -0.189 -0.039  0.482   -0.176 -0.048  0.203   -0.186 -0.169 -0.161
 H          0.121  0.173  0.213    0.208  0.055  0.006   -0.007  0.007 -0.103
 H         -0.062  0.038  0.220   -0.150 -0.034  0.090    0.002 -0.036 -0.161
 H         -0.046  0.224  0.426    0.070  0.061 -0.036    0.090 -0.036 -0.175
 C         -0.015  0.031  0.063    0.071 -0.100 -0.103   -0.080 -0.067 -0.097
 H          0.066  0.105  0.098   -0.180 -0.235 -0.189    0.475  0.426  0.187
 TransDip   0.056  0.190  0.124   -0.089 -0.078 -0.002    0.116  0.131 -0.009

 Mode:                10                     11                     12
 Frequency:       640.63                 706.54                 751.36
 Force Cnst:      0.3575                 0.5048                 0.6589
 Red. Mass:       1.4787                 1.7162                 1.9809
 IR Active:          YES                    YES                    YES
 IR Intens:       43.417                 11.691                 25.789
 Raman Active:       YES                    YES                    YES
               X      Y      Z        X      Y      Z        X      Y      Z
 C         -0.031  0.015  0.013   -0.152  0.009 -0.005   -0.004 -0.080 -0.066
 C         -0.021 -0.038 -0.078   -0.005 -0.011  0.019    0.019 -0.022 -0.038
 C         -0.017 -0.028 -0.072    0.003  0.012 -0.018    0.034  0.023  0.029
 C          0.026  0.046  0.107    0.016  0.002 -0.014   -0.138 -0.005  0.065
 C          0.041 -0.039 -0.077    0.039 -0.018  0.003   -0.073 -0.001  0.087
 N          0.016  0.003  0.035    0.006 -0.098  0.034    0.047  0.134  0.024
 H          0.058  0.100  0.017    0.181  0.555  0.213    0.279  0.167 -0.082
 H          0.205  0.341  0.829   -0.096 -0.058  0.001   -0.258 -0.067  0.257
 H         -0.006 -0.006 -0.020    0.006  0.052  0.045    0.083 -0.221 -0.216
 H          0.033  0.102  0.140    0.024  0.065  0.082   -0.165 -0.273 -0.487
 H          0.049 -0.086 -0.217    0.076  0.022  0.060   -0.081 -0.158 -0.325
 C         -0.046 -0.005 -0.001    0.121  0.097 -0.032    0.107 -0.005 -0.024
 H          0.009  0.084  0.043   -0.540 -0.350 -0.314    0.140 -0.236 -0.105
 TransDip   0.073  0.102  0.170   -0.041  0.088 -0.050   -0.050 -0.096 -0.122

 Mode:                13                     14                     15
 Frequency:       786.66                 815.73                 853.20
 Force Cnst:      0.6943                 0.8953                 0.7034
 Red. Mass:       1.9044                 2.2837                 1.6399
 IR Active:          YES                    YES                    YES
 IR Intens:       13.341                  8.272                  5.002
 Raman Active:       YES                    YES                    YES
               X      Y      Z        X      Y      Z        X      Y      Z
 C          0.043  0.004 -0.013   -0.002 -0.025 -0.037    0.001  0.006  0.007
 C         -0.018 -0.102  0.009    0.030 -0.039  0.074    0.028  0.006  0.064
 C         -0.005 -0.061  0.074   -0.013 -0.083 -0.064   -0.030 -0.084 -0.155
 C          0.029  0.072 -0.014   -0.102  0.023 -0.010   -0.017  0.056  0.079
 C         -0.093  0.177  0.003   -0.079  0.006 -0.155    0.021  0.034  0.072
 N         -0.046 -0.081  0.028    0.076  0.118  0.149   -0.003 -0.029 -0.048
 H          0.130  0.046 -0.047    0.309  0.133 -0.162   -0.133 -0.048  0.072
 H          0.767  0.234 -0.108    0.197 -0.069 -0.285    0.042 -0.054 -0.154
 H         -0.202 -0.016 -0.219    0.098  0.123  0.440    0.161  0.251  0.676
 H          0.003 -0.129 -0.233   -0.102  0.143  0.541   -0.028 -0.082 -0.405
 H         -0.011  0.153 -0.203   -0.037  0.151  0.154    0.066 -0.111 -0.392
 C          0.041 -0.009 -0.018    0.024 -0.051 -0.037   -0.007  0.017  0.006
 H         -0.026 -0.120 -0.070    0.159 -0.107 -0.032   -0.032  0.029  0.005
 TransDip   0.081 -0.061 -0.058   -0.003 -0.057  0.072    0.033  0.023 -0.059

 Mode:                16                     17                     18
 Frequency:       904.91                 962.67                 969.89
 Force Cnst:      1.1371                 1.0389                 0.7718
 Red. Mass:       2.3569                 1.9027                 1.3925
 IR Active:          YES                    YES                    YES
 IR Intens:        4.668                 14.916                  3.222
 Raman Active:       YES                    YES                    YES
               X      Y      Z        X      Y      Z        X      Y      Z
 C          0.027  0.004 -0.020   -0.010 -0.015 -0.026   -0.042  0.006  0.054
 C         -0.036  0.107 -0.022   -0.066 -0.051  0.040   -0.029 -0.028  0.019
 C         -0.049 -0.007 -0.051    0.049  0.154 -0.078    0.023  0.064 -0.037
 C          0.234 -0.067  0.050   -0.004 -0.036 -0.030   -0.004  0.019  0.066
 C         -0.086  0.055 -0.021    0.063 -0.110  0.109    0.016 -0.074 -0.043
 N         -0.124 -0.015  0.087   -0.075  0.041  0.001   -0.027  0.033 -0.026
 H          0.366 -0.092 -0.406    0.116 -0.006 -0.134    0.307 -0.108 -0.358
 H         -0.426 -0.036  0.107    0.471  0.141 -0.210    0.206  0.054 -0.094
 H         -0.058  0.170  0.154   -0.097  0.325 -0.093   -0.036  0.151 -0.014
 H          0.226 -0.170 -0.043    0.015  0.094  0.287   -0.015 -0.154 -0.391
 H         -0.248 -0.040  0.008   -0.023 -0.312 -0.279   -0.050  0.064  0.434
 C          0.047 -0.030 -0.013   -0.011  0.019  0.024    0.063 -0.057 -0.001
 H          0.229 -0.342 -0.093    0.301 -0.343 -0.051   -0.362  0.377  0.085
 TransDip   0.006 -0.050 -0.047    0.117 -0.034 -0.022    0.002  0.003 -0.057

 Mode:                19                     20                     21
 Frequency:       973.86                1022.00                1139.45
 Force Cnst:      0.7348                 0.9494                 2.3800
 Red. Mass:       1.3151                 1.5427                 3.1112
 IR Active:          YES                    YES                    YES
 IR Intens:        8.513                  4.243                 20.504
 Raman Active:       YES                    YES                    YES
               X      Y      Z        X      Y      Z        X      Y      Z
 C          0.042 -0.015 -0.065    0.060 -0.055 -0.045   -0.075  0.073  0.091
 C         -0.018 -0.007  0.007   -0.050  0.019  0.006   -0.061  0.017  0.006
 C          0.012  0.036 -0.021    0.008  0.062 -0.043    0.020  0.055 -0.038
 C          0.010  0.020  0.068    0.058 -0.072  0.015    0.002 -0.105  0.045
 C          0.000 -0.056 -0.069   -0.091  0.014  0.020   -0.139  0.025 -0.018
 N         -0.000 -0.010  0.042    0.027  0.036  0.046    0.283 -0.085 -0.092
 H         -0.300  0.156  0.393   -0.294  0.180  0.497    0.092 -0.145 -0.267
 H          0.105  0.041 -0.035    0.057  0.065 -0.035    0.040  0.068 -0.018
 H         -0.020  0.089 -0.001   -0.075  0.189 -0.022   -0.148  0.257 -0.070
 H         -0.004 -0.165 -0.404    0.035 -0.233  0.200   -0.081 -0.710  0.197
 H         -0.047  0.128  0.505   -0.223 -0.138 -0.161    0.004  0.089 -0.055
 C         -0.052  0.040 -0.001    0.054 -0.056 -0.053   -0.082  0.089  0.040
 H          0.325 -0.326 -0.070   -0.340  0.475  0.065    0.134 -0.217 -0.028
 TransDip  -0.011 -0.063  0.068   -0.055 -0.024  0.028   -0.141 -0.005  0.035

 Mode:                22                     23                     24
 Frequency:      1279.26                1319.77                1437.47
 Force Cnst:      1.2073                 1.2485                 1.6930
 Red. Mass:       1.2522                 1.2166                 1.3906
 IR Active:          YES                    YES                    YES
 IR Intens:       14.277                 14.543                  8.106
 Raman Active:       YES                    YES                    YES
               X      Y      Z        X      Y      Z        X      Y      Z
 C          0.002 -0.002 -0.001    0.006 -0.012 -0.019   -0.001 -0.005  0.002
 C          0.120  0.002 -0.029   -0.016  0.019 -0.004   -0.015 -0.005  0.006
 C         -0.012 -0.056  0.030   -0.000 -0.016  0.002    0.015  0.037 -0.015
 C         -0.032  0.018  0.000   -0.019 -0.023  0.011    0.035 -0.111  0.041
 C         -0.014 -0.031  0.012    0.078  0.016 -0.010   -0.125 -0.029  0.009
 N         -0.001  0.009  0.001   -0.083  0.038  0.005    0.017  0.021 -0.005
 H         -0.020 -0.010  0.012   -0.012  0.026  0.031   -0.015 -0.001  0.019
 H         -0.130 -0.101  0.078   -0.048  0.011  0.008    0.040  0.020 -0.023
 H         -0.660  0.686 -0.148   -0.055  0.052 -0.005    0.045  0.007 -0.013
 H         -0.023  0.113 -0.038   -0.096 -0.608  0.215    0.132  0.597 -0.233
 H          0.031 -0.009 -0.005    0.647  0.350 -0.080    0.612  0.375 -0.128
 C          0.004 -0.000 -0.005    0.011 -0.015 -0.000    0.003  0.002 -0.005
 H         -0.001  0.011 -0.004   -0.001  0.015  0.008   -0.006  0.018 -0.004
 TransDip  -0.039  0.103 -0.049    0.116  0.034 -0.015   -0.083 -0.027  0.025

 Mode:                25                     26                     27
 Frequency:      1642.79                1681.49                1743.39
 Force Cnst:     13.9650                 8.8467                 8.9484
 Red. Mass:       8.7827                 5.3106                 4.9970
 IR Active:          YES                    YES                    YES
 IR Intens:       38.931                 26.671                  6.891
 Raman Active:       YES                    YES                    YES
               X      Y      Z        X      Y      Z        X      Y      Z
 C          0.001 -0.017  0.020    0.001  0.017 -0.022   -0.075  0.228 -0.344
 C         -0.334  0.150  0.019   -0.229  0.101  0.011    0.007  0.008 -0.005
 C          0.399 -0.316  0.038    0.300 -0.137 -0.006   -0.005 -0.006  0.004
 C          0.104  0.382 -0.145   -0.175 -0.258  0.107    0.017  0.025 -0.011
 C         -0.211 -0.275  0.108    0.205  0.239 -0.094   -0.035 -0.020  0.013
 N          0.020  0.028 -0.007   -0.028 -0.026  0.009    0.048 -0.031 -0.028
 H         -0.000 -0.034  0.027    0.007  0.037 -0.023   -0.259  0.422 -0.258
 H         -0.260  0.283 -0.044   -0.163  0.211 -0.060   -0.011 -0.002 -0.007
 H         -0.003  0.147 -0.084   -0.149  0.370 -0.127   -0.004 -0.005  0.005
 H          0.067 -0.078  0.078   -0.110  0.437 -0.172    0.014 -0.004  0.001
 H          0.304 -0.038  0.007   -0.349 -0.014 -0.002    0.030  0.001 -0.024
 C          0.008  0.017 -0.027   -0.004 -0.018  0.025    0.067 -0.224  0.353
 H          0.005  0.030 -0.036   -0.010 -0.021  0.036   -0.152 -0.126  0.534
 TransDip  -0.108 -0.154  0.069    0.148  0.064 -0.036    0.034 -0.066 -0.039

 Mode:                28                     29                     30
 Frequency:      3026.25                3144.35                3170.54
 Force Cnst:      5.8332                 6.3191                 6.4706
 Red. Mass:       1.0810                 1.0848                 1.0925
 IR Active:          YES                    YES                    YES
 IR Intens:       21.562                  4.872                 28.704
 Raman Active:       YES                    YES                    YES
               X      Y      Z        X      Y      Z        X      Y      Z
 C          0.000  0.000 -0.000   -0.001  0.000  0.000    0.001 -0.000 -0.000
 C         -0.002  0.002 -0.000    0.000  0.000 -0.000   -0.001  0.001 -0.000
 C         -0.060 -0.045  0.032   -0.002 -0.001  0.001   -0.003 -0.004  0.002
 C          0.003  0.000  0.000   -0.036  0.007 -0.002   -0.077  0.006  0.000
 C          0.001  0.000  0.000    0.035 -0.062  0.023   -0.017  0.035 -0.013
 N         -0.000 -0.000 -0.000    0.002 -0.000 -0.000    0.000  0.000  0.000
 H          0.000  0.000 -0.000   -0.001  0.002 -0.002    0.000  0.000 -0.000
 H          0.026 -0.044  0.012    0.003 -0.006  0.002    0.008 -0.016  0.005
 H          0.732  0.547 -0.391    0.017  0.013 -0.009    0.035  0.031 -0.020
 H         -0.059  0.005 -0.001    0.451 -0.059  0.009    0.879 -0.110  0.013
 H         -0.002  0.001 -0.000   -0.446  0.717 -0.268    0.226 -0.368  0.137
 C          0.000 -0.000  0.000   -0.000  0.000 -0.000   -0.000 -0.000 -0.000
 H         -0.000 -0.000  0.000    0.001 -0.001 -0.001   -0.001 -0.000  0.002
 TransDip  -0.093 -0.097  0.063    0.023 -0.064  0.020   -0.152  0.078 -0.014

 Mode:                31                     32                     33
 Frequency:      3241.07                3304.35                3370.80
 Force Cnst:      6.8161                 7.0069                 7.6585
 Red. Mass:       1.1013                 1.0892                 1.1440
 IR Active:          YES                    YES                    YES
 IR Intens:        0.534                 20.970                  9.155
 Raman Active:       YES                    YES                    YES
               X      Y      Z        X      Y      Z        X      Y      Z
 C          0.000 -0.000  0.000   -0.018  0.017 -0.019   -0.046  0.054 -0.062
 C          0.045 -0.076  0.021    0.000 -0.000  0.000    0.001  0.000 -0.000
 C         -0.014  0.001  0.003   -0.000  0.000 -0.000   -0.000  0.000 -0.000
 C         -0.001  0.001 -0.001    0.000  0.000 -0.000   -0.000 -0.000 -0.000
 C         -0.000 -0.000  0.000    0.000 -0.000  0.000    0.000 -0.000 -0.000
 N          0.000  0.000 -0.000   -0.001  0.001 -0.000    0.002 -0.002 -0.002
 H         -0.001  0.001 -0.002    0.250 -0.265  0.286    0.484 -0.507  0.547
 H         -0.412  0.867 -0.259   -0.001  0.002 -0.001    0.000  0.002 -0.002
 H          0.035  0.024 -0.017    0.000  0.000  0.001    0.001  0.000  0.001
 H          0.016 -0.005  0.001   -0.000  0.000 -0.000    0.002 -0.000  0.000
 H          0.001 -0.002  0.001    0.000  0.002 -0.001   -0.000  0.001 -0.000
 C         -0.000  0.000  0.000    0.010  0.030 -0.074   -0.005 -0.023  0.053
 H          0.000  0.001 -0.002   -0.147 -0.301  0.816    0.073  0.150 -0.411
 TransDip   0.017  0.014 -0.009    0.010 -0.080  0.123    0.082 -0.044  0.028

 STANDARD THERMODYNAMIC QUANTITIES AT   298.15 K  AND     1.00 ATM

   This Molecule has  1 Imaginary Frequencies
   Zero point vibrational energy:       59.530 kcal/mol

   Atom    1 Element C  Has Mass   12.00000
   Atom    2 Element C  Has Mass   12.00000
   Atom    3 Element C  Has Mass   12.00000
   Atom    4 Element C  Has Mass   12.00000
   Atom    5 Element C  Has Mass   12.00000
   Atom    6 Element N  Has Mass   14.00307
   Atom    7 Element H  Has Mass    1.00783
   Atom    8 Element H  Has Mass    1.00783
   Atom    9 Element H  Has Mass    1.00783
   Atom   10 Element H  Has Mass    1.00783
   Atom   11 Element H  Has Mass    1.00783
   Atom   12 Element C  Has Mass   12.00000
   Atom   13 Element H  Has Mass    1.00783
   Molecular Mass:    92.050050 amu
   Principal axes and moments of inertia in amu*Bohr^2:
                             1           2           3
    Eigenvalues --      372.04014   737.40694  1037.09949
          X               0.61668     0.74924     0.24154
          Y               0.66420    -0.65991     0.35121
          Z              -0.42253     0.05615     0.90461
   Rotational Symmetry Number is   1
   The Molecule is an Asymmetric Top
   Translational Enthalpy:        0.889 kcal/mol
   Rotational Enthalpy:           0.889 kcal/mol
   Vibrational Enthalpy:         62.119 kcal/mol
   gas constant (RT):             0.592 kcal/mol
   Translational Entropy:        39.471  cal/mol.K
   Rotational Entropy:           27.144  cal/mol.K
   Vibrational Entropy:          15.759  cal/mol.K

   Total Enthalpy:               64.489 kcal/mol
   Total Entropy:                82.374  cal/mol.K
Archival summary:
1\1\c8-68\FREQ\ProcedureUnspecified\6-31+G**\166(2)\hpark21\WedMar220:56:272022WedMar220:56:272022\0\\#,FREQ,ProcedureUnspecified,6-31+G**,\\0,2\N\C,1,1.4206\H,2,1.09001,1,109.993\C,2,1.34785,1,132.216,3,-173.064,0\H,4,1.0881,2,115.213,1,171.565,0\C,4,1.46694,2,130.503,1,-8.53465,0\H,6,1.09904,4,113.922,2,170.086,0\C,6,1.32066,4,129.008,2,-11.5583,0\H,8,1.08327,6,135.452,4,-178.525,0\C,1,1.50516,2,117.159,3,-97.0787,0\H,10,1.07714,1,137.288,2,79.2168,0\C,10,1.28504,1,65.0921,2,-107.623,0\H,12,1.07334,10,153.358,1,-149.983,0\\\@

 Total job time:  541.24s(wall), 520.78s(cpu) 
 Wed Mar  2 20:56:27 2022

        *************************************************************
        *                                                           *
        *  Thank you very much for using Q-Chem.  Have a nice day.  *
        *                                                           *
        *************************************************************


