
Running Job 1 of 1 qcts2.in
qchem qcts2.in_65091.0 ./qcts2.d/ 1
/home/leeping/opt/qchem/5.0.2-openmp/exe/qcprog.exe_s qcts2.in_65091.0 ./qcts2.d/
Check license passed

                  Welcome to Q-Chem
     A Quantum Leap Into The Future Of Chemistry


 Q-Chem 5.0, Q-Chem, Inc., Pleasanton, CA (2017)

 Yihan Shao,  Zhengting Gan,  E. Epifanovsky,  A. T. B. Gilbert,  M. Wormit,  
 J. Kussmann,  A. W. Lange,  A. Behn,  Jia Deng,  Xintian Feng,  D. Ghosh,  
 M. Goldey,  P. R. Horn,  L. D. Jacobson,  I. Kaliman,  T. Kus,  A. Landau,  
 Jie Liu,  E. I. Proynov,  R. M. Richard,  R. P. Steele,  E. J. Sundstrom,  
 H. L. Woodcock III,  P. M. Zimmerman,  D. Zuev,  B. Albrecht,  E. Alguire,  
 S. A. Baeppler,  D. Barton,  Z. Benda,  Y. A. Bernard,  E. J. Berquist,  
 K. B. Bravaya,  H. Burton,  D. Casanova,  Chun-Min Chang,  Yunqing Chen,  
 A. Chien,  K. D. Closser,  M. P. Coons,  S. Dasgupta,  A. L. Dempwolff,  
 M. Diedenhofen,  Hainam Do,  R. G. Edgar,  Po-Tung Fang,  S. Fatehi,  
 Qingguo Feng,  J. Fosso-Tande,  Qinghui Ge,  A. Ghysels,  G. Gidofalvi,  
 J. Gomes,  J. Gonthier,  A. Gunina,  M. W. D. Hanson-Heine,  
 P. H. P. Harbach,  A. W. Hauser,  J. E. Herr,  E. G. Hohenstein,  
 Z. C. Holden,  Kerwin Hui,  T.-C. Jagau,  Hyunjun Ji,  B. Kaduk,  
 K. Khistyaev,  Jaehoon Kim,  P. Klunzinger,  K. Koh,  D. Kosenkov,  
 L. Koulias,  T. Kowalczyk,  C. M. Krauter,  A. Kunitsa,  Ka Un Lao,  
 A. Laurent,  K. V. Lawler,  Joonho Lee,  D. Lefrancois,  S. Lehtola,  
 D. S. Levine,  Yi-Pei Li,  You-Sheng Lin,  Fenglai Liu,  E. Livshits,  
 A. Luenser,  P. Manohar,  E. Mansoor,  S. F. Manzer,  Shan-Ping Mao,  
 Yuezhi Mao,  N. Mardirossian,  A. V. Marenich,  T. Markovich,  
 L. A. Martinez-Martinez,  S. A. Maurer,  N. J. Mayhall,  S. C. McKenzie,  
 J.-M. Mewes,  A. F. Morrison,  J. W. Mullinax,  K. Nanda,  
 T. S. Nguyen-Beck,  R. Olivares-Amaya,  J. A. Parkhill,  T. M. Perrine,  
 F. Plasser,  S. Prager,  A. Prociuk,  E. Ramos,  D. R. Rehn,  F. Rob,  
 M. Schneider,  N. Sergueev,  S. M. Sharada,  S. Sharma,  D. W. Small,  
 T. Stauch,  T. Stein,  Yu-Chuan Su,  A. J. W. Thom,  A. Tkatchenko,  
 T. Tsuchimochi,  L. Vogt,  O. Vydrov,  M. A. Watson,  J. Wenzel,  
 M. de Wergifosse,  T. A. Wesolowski,  A. White,  J. Witte,  A. Yamada,  
 Jun Yang,  K. Yao,  S. Yeganeh,  S. R. Yost,  Zhi-Qiang You,  A. Zech,  
 Igor Ying Zhang,  Xing Zhang,  Yan Zhao,  Ying Zhu,  B. R. Brooks,  
 G. K. L. Chan,  C. J. Cramer,  M. S. Gordon,  W. J. Hehre,  A. Klamt,  
 M. W. Schmidt,  C. D. Sherrill,  D. G. Truhlar,  A. Aspuru-Guzik,  R. Baer,  
 A. T. Bell,  N. A. Besley,  Jeng-Da Chai,  R. A. DiStasio Jr.,  A. Dreuw,  
 B. D. Dunietz,  T. R. Furlani,  Chao-Ping Hsu,  Yousung Jung,  Jing Kong,  
 D. S. Lambrecht,  WanZhen Liang,  C. Ochsenfeld,  V. A. Rassolov,  
 L. V. Slipchenko,  J. E. Subotnik,  T. Van Voorhis,  J. M. Herbert,  
 A. I. Krylov,  P. M. W. Gill,  M. Head-Gordon

 Contributors to earlier versions of Q-Chem not listed above: 
 R. D. Adamson,  B. Austin,  J. Baker,  G. J. O. Beran,  K. Brandhorst,  
 S. T. Brown,  E. F. C. Byrd,  A. K. Chakraborty,  C.-L. Cheng,  
 Siu Hung Chien,  D. M. Chipman,  D. L. Crittenden,  H. Dachsel,  
 R. J. Doerksen,  A. D. Dutoi,  L. Fusti-Molnar,  W. A. Goddard III,  
 A. Golubeva-Zadorozhnaya,  S. R. Gwaltney,  G. Hawkins,  A. Heyden,  
 S. Hirata,  G. Kedziora,  F. J. Keil,  C. Kelley,  Jihan Kim,  R. A. King,  
 R. Z. Khaliullin,  P. P. Korambath,  W. Kurlancheek,  A. M. Lee,  M. S. Lee,  
 S. V. Levchenko,  Ching Yeh Lin,  D. Liotard,  R. C. Lochan,  I. Lotan,  
 P. E. Maslen,  N. Nair,  D. P. O'Neill,  D. Neuhauser,  E. Neuscamman,  
 C. M. Oana,  R. Olson,  B. Peters,  R. Peverati,  P. A. Pieniazek,  
 Y. M. Rhee,  J. Ritchie,  M. A. Rohrdanz,  E. Rosta,  N. J. Russ,  
 H. F. Schaefer III,  N. E. Schultz,  N. Shenvi,  A. C. Simmonett,  A. Sodt,  
 D. Stuck,  K. S. Thanthiriwatte,  V. Vanovschi,  Tao Wang,  A. Warshel,  
 C. F. Williams,  Q. Wu,  X. Xu,  W. Zhang

 Please cite Q-Chem as follows:
 Y. Shao et al., Mol. Phys. 113, 184-215 (2015)
 DOI: 10.1080/00268976.2014.952696

 Q-Chem 5.0.2 for Intel X86 EM64T Linux

 Parts of Q-Chem use Armadillo 5.200.1 (Boston Tea Smuggler).
 http://arma.sourceforge.net/

 Q-Chem begins on Wed Mar  2 20:43:41 2022  

Host: 
0

     Scratch files written to ./qcts2.d//
 Dec517 15110_ 26548  26544 5633   
Processing $rem in /home/leeping/opt/qchem/5.0.2-openmp/config/preferences.
 MEM_STATIC 2000
 MEM_TOTAL  8000
 SYMMETRY   OFF
 SYM_IGNORE TRUE 

Checking the input file for inconsistencies... 	...done.

--------------------------------------------------------------
User input:
--------------------------------------------------------------
$molecule
0 2
C        1.6832658595    0.3176809945   -0.2489805359
C        0.2092045660   -1.7563746958    0.7023794991
C       -0.9904235340   -1.2067822155    0.7570690417
C       -1.4241075891    0.1123851253    0.2841811106
C       -0.7043447129    1.1738923450   -0.1303636648
N        0.6891936116    1.4490744089   -0.1097457494
H        2.2777721939   -0.2950180758    0.4015778029
H        0.6362327980   -2.7083892239    0.9935748133
H       -1.7984369780   -1.8125438279    1.1907189923
H       -2.5034812265    0.2487689697    0.2663900350
H       -1.2535686847    2.0559533563   -0.4596677189
C        1.4921169034    1.0196452689   -1.3082449186
H        1.6799312641    1.3804090251   -2.3056420918
$end

$rem
method                b3lyp
basis                 6-31+g(d,p)
unrestricted          true
symmetry              off
sym_ignore            true
incdft                false
incfock               0
scf_convergence       6
thresh                14
jobtype               sp
scf_guess             read
scf_algorithm         diis
max_scf_cycles        100
stability_analysis    true
max_cis_cycles        100
cis_n_roots           4
$end

--------------------------------------------------------------
 ----------------------------------------------------------------
             Standard Nuclear Orientation (Angstroms)
    I     Atom           X                Y                Z
 ----------------------------------------------------------------
    1      C       1.6832658595     0.3176809945    -0.2489805359
    2      C       0.2092045660    -1.7563746958     0.7023794991
    3      C      -0.9904235340    -1.2067822155     0.7570690417
    4      C      -1.4241075891     0.1123851253     0.2841811106
    5      C      -0.7043447129     1.1738923450    -0.1303636648
    6      N       0.6891936116     1.4490744089    -0.1097457494
    7      H       2.2777721939    -0.2950180758     0.4015778029
    8      H       0.6362327980    -2.7083892239     0.9935748133
    9      H      -1.7984369780    -1.8125438279     1.1907189923
   10      H      -2.5034812265     0.2487689697     0.2663900350
   11      H      -1.2535686847     2.0559533563    -0.4596677189
   12      C       1.4921169034     1.0196452689    -1.3082449186
   13      H       1.6799312641     1.3804090251    -2.3056420918
 ----------------------------------------------------------------
 Nuclear Repulsion Energy =   252.1190564307 hartrees
 There are       25 alpha and       24 beta electrons
 Requested basis set is 6-31+G(d,p)
 There are 53 shells and 163 basis functions

 Total QAlloc Memory Limit   8000 MB
 Mega-Array Size      1956 MB
 MEM_STATIC part      2000 MB

                       Distance Matrix (Angstroms)
             C (  1)   C (  2)   C (  3)   C (  4)   C (  5)   N (  6)
   C (  2)  2.716551
   C (  3)  3.238015  1.320663
   C (  4)  3.159458  2.516915  1.466938
   C (  5)  2.539262  3.180330  2.556754  1.347851
   N (  6)  1.512487  3.341383  3.259763  2.531395  1.420598
   H (  7)  1.073342  2.550493  3.411567  3.726080  3.366553  2.413896
   H (  8)  3.434723  1.083273  2.226380  3.564409  4.258227  4.301700
   H (  9)  4.328146  2.066943  1.099038  2.160390  3.443995  4.303216
   H ( 10)  4.218911  3.401375  2.156093  1.088101  2.061591  3.431528
   H ( 11)  3.419207  4.245457  3.492154  2.088026  1.090009  2.065205
   C ( 12)  1.285042  3.659885  3.922437  3.444315  2.497126  1.505156
   H ( 13)  2.315007  4.588098  4.817110  4.236759  3.234078  2.410028
             H (  7)   H (  8)   H (  9)   H ( 10)   H ( 11)   C ( 12)
   H (  8)  2.978166
   H (  9)  4.420533  2.601734
   H ( 10)  4.813976  4.373944  2.366534
   H ( 11)  4.328877  5.327497  4.240982  2.314164
   C ( 12)  2.295449  4.464208  5.009377  4.363316  3.054964
   H ( 13)  3.239369  5.356530  5.875248  5.039534  3.531204  1.077138

 
 A cutoff of  1.0D-14 yielded   1353 shell pairs
 There are     13307 function pairs
 Smallest overlap matrix eigenvalue = 2.09E-05

 Scale SEOQF with 1.000000e-01/1.000000e-01/1.000000e-01

 Standard Electronic Orientation quadrupole field applied
 Nucleus-field energy     =     0.0000000052 hartrees
 Guess MOs from SCF MO coefficient file
 Reading MOs from coefficient file
 Reading MOs from coefficient file
 An unrestricted hybrid HF-DFT SCF calculation will be
 performed using Pulay DIIS extrapolation
 Exchange:     0.2000 Hartree-Fock + 0.0800 Slater + 0.7200 B88
 Correlation:  0.1900 VWN1RPA + 0.8100 LYP
 Using SG-1 standard quadrature grid
 SCF converges when DIIS error is below 1.0E-06
Using Q-Chem read-in guess as SCF_GUESS READ specified.

 -------------------------------------------------------
 OpenMP BLAS3 based DFT computing Module                
 -------------------------------------------------------
 ---------------------------------------
  Cycle       Energy         DIIS Error
 ---------------------------------------
    1    -286.7447874125      2.58E-09
    2    -286.7447874125      2.12E-09 Convergence criterion met
 ---------------------------------------
 <S^2> = 0.7744
 SCF time:  CPU 6.36 s  wall 7.36 s
 SCF   energy in the final basis set = -286.74478741
 Total energy in the final basis set = -286.74478741
 
 Direct TDDFT/TDA calculation will be performed
 Exchange:     0.2000 Hartree-Fock + 0.0800 Slater + 0.7200 B88
 Correlation:  0.1900 VWN1RPA + 0.8100 LYP
 Using SG-1 standard quadrature grid
 CIS energy converged when residual is below 10e- 6
 ---------------------------------------------------
 Iter    Rts Conv    Rts Left    Ttl Dev     Max Dev
 ---------------------------------------------------
   1         0           4      0.003539    0.001761
   2         0           4      0.001532    0.000521
   3         0           4      0.000977    0.000329
   4         0           4      0.000553    0.000263
   5         0           4      0.000285    0.000215
   6         0           4      0.000104    0.000088
   7         1           3      0.000037    0.000033
   8         3           1      0.000010    0.000009
   9         3           1      0.000003    0.000002
  10         4           0      0.000002    0.000001    Roots Converged
 ---------------------------------------------------
 
 ---------------------------------------------------
         TDDFT/TDA Excitation Energies              
 ---------------------------------------------------

 Excited state   1: excitation energy (eV) =    1.8313
 Total energy for state  1:                  -286.67748986 au
    <S**2>     :  0.8681
    Trans. Mom.: -0.0720 X  -0.1966 Y   0.2011 Z
    Strength   :     0.0037794141
    D( 23) --> S(  1) amplitude = -0.2092 beta
    D( 24) --> S(  1) amplitude =  0.9542 beta

 Excited state   2: excitation energy (eV) =    2.6340
 Total energy for state  2:                  -286.64798790 au
    <S**2>     :  1.3731
    Trans. Mom.: -0.0661 X  -0.1894 Y   0.0506 Z
    Strength   :     0.0027624996
    S(  1) --> V(  1) amplitude = -0.3195 alpha
    S(  1) --> V(  2) amplitude =  0.2765 alpha
    D( 23) --> S(  1) amplitude =  0.8191 beta
    D( 24) --> V(  2) amplitude = -0.2046 beta

 Excited state   3: excitation energy (eV) =    2.8502
 Total energy for state  3:                  -286.64004394 au
    <S**2>     :  2.6069
    Trans. Mom.:  0.0489 X   0.0931 Y  -0.0378 Z
    Strength   :     0.0008724079
    D( 23) --> V(  1) amplitude = -0.1694 alpha
    D( 24) --> V(  1) amplitude = -0.3163 alpha
    S(  1) --> V(  1) amplitude = -0.5291 alpha
    D( 23) --> S(  1) amplitude = -0.2547 beta
    D( 23) --> V(  1) amplitude = -0.2534 beta
    D( 24) --> V(  1) amplitude =  0.6343 beta

 Excited state   4: excitation energy (eV) =    3.4720
 Total energy for state  4:                  -286.61719343 au
    <S**2>     :  1.8366
    Trans. Mom.:  0.0746 X   0.0753 Y  -0.1253 Z
    Strength   :     0.0022904103
    D( 23) --> V(  2) amplitude = -0.1545 alpha
    S(  1) --> V(  1) amplitude =  0.2729 alpha
    S(  1) --> V(  2) amplitude =  0.6628 alpha
    D( 23) --> S(  1) amplitude = -0.2836 beta
    D( 23) --> V(  2) amplitude = -0.2545 beta
    D( 24) --> S(  1) amplitude = -0.1620 beta
    D( 24) --> V(  1) amplitude =  0.2371 beta
    D( 24) --> V(  2) amplitude = -0.3700 beta
 
 ---------------------------------------------------

 Stability analysis will be performed
 ---------------------------------------------------
 Iter    Rts Conv    Rts Left    Ttl Dev     Max Dev
 ---------------------------------------------------
   1         0           8      0.004114    0.000616
   2         0           8      0.002184    0.000437
   3         0           8      0.000864    0.000245
   4         0           8      0.000339    0.000090
   5         2           6      0.000123    0.000035
   6         3           5      0.000048    0.000017
   7         4           4      0.000021    0.000010
   8         6           2      0.000008    0.000004
   9         7           1      0.000003    0.000001
  10         8           0      0.000002    0.000001    Roots Converged
 UKS-> UKS   stable,    smallest eigenvalue:      0.0556235
 UKS->CUKS   stable,    smallest eigenvalue:      0.0695119
 ---------------------------------------------------
  SETman timing summary (seconds)
  CPU time               178.27s
  System time              0.00s
  Wall time              200.24s
 
 --------------------------------------------------------------
 
                    Orbital Energies (a.u.)
 --------------------------------------------------------------
 
 Alpha MOs
 -- Occupied --
-14.365 -10.250 -10.246 -10.219 -10.214 -10.208 -10.194  -0.981
 -0.812  -0.762  -0.685  -0.604  -0.600  -0.543  -0.498  -0.494
 -0.446  -0.425  -0.389  -0.380  -0.335  -0.318  -0.252  -0.230
 -0.207
 -- Virtual --
 -0.043  -0.021   0.010   0.014   0.019   0.035   0.043   0.049
  0.065   0.072   0.074   0.080   0.081   0.094   0.104   0.117
  0.128   0.136   0.140   0.142   0.149   0.155   0.161   0.176
  0.188   0.194   0.199   0.201   0.210   0.214   0.233   0.240
  0.244   0.258   0.268   0.286   0.305   0.310   0.323   0.336
  0.374   0.444   0.479   0.513   0.576   0.632   0.651   0.664
  0.682   0.693   0.700   0.728   0.741   0.748   0.769   0.798
  0.802   0.853   0.869   0.902   0.942   0.951   0.960   0.973
  0.990   1.025   1.032   1.049   1.080   1.120   1.151   1.169
  1.177   1.228   1.264   1.290   1.304   1.361   1.395   1.403
  1.469   1.474   1.546   1.631   1.639   1.665   1.689   1.748
  1.802   1.833   1.865   1.933   1.935   1.954   1.987   2.029
  2.041   2.078   2.111   2.174   2.217   2.246   2.307   2.344
  2.376   2.383   2.414   2.433   2.450   2.484   2.497   2.519
  2.551   2.591   2.610   2.665   2.684   2.691   2.774   2.795
  2.855   2.939   3.059   3.105   3.230   3.286   3.343   3.361
  3.489   3.707   3.781   4.170   4.266   4.382   4.467   4.582
  4.687   4.955
 
 Beta MOs
 -- Occupied --
-14.365 -10.248 -10.247 -10.219 -10.209 -10.199 -10.193  -0.980
 -0.807  -0.753  -0.677  -0.601  -0.590  -0.538  -0.492  -0.486
 -0.442  -0.415  -0.386  -0.379  -0.332  -0.314  -0.240  -0.205
 -- Virtual --
 -0.091  -0.036  -0.013   0.012   0.015   0.021   0.036   0.044
  0.050   0.065   0.073   0.075   0.083   0.085   0.096   0.104
  0.118   0.129   0.139   0.141   0.144   0.150   0.155   0.163
  0.177   0.189   0.196   0.201   0.203   0.210   0.217   0.234
  0.242   0.246   0.260   0.269   0.289   0.305   0.312   0.323
  0.339   0.382   0.452   0.481   0.521   0.577   0.640   0.655
  0.673   0.695   0.698   0.706   0.732   0.749   0.749   0.773
  0.798   0.806   0.855   0.877   0.906   0.945   0.953   0.964
  0.980   0.991   1.029   1.039   1.056   1.082   1.122   1.158
  1.172   1.178   1.233   1.267   1.292   1.310   1.363   1.401
  1.406   1.476   1.480   1.550   1.649   1.657   1.690   1.698
  1.752   1.806   1.849   1.878   1.939   1.943   1.962   1.992
  2.032   2.045   2.087   2.117   2.177   2.218   2.250   2.313
  2.350   2.379   2.388   2.420   2.435   2.452   2.487   2.502
  2.522   2.552   2.594   2.612   2.667   2.699   2.704   2.779
  2.803   2.857   2.943   3.063   3.106   3.234   3.291   3.348
  3.362   3.499   3.716   3.783   4.170   4.271   4.398   4.477
  4.583   4.690   4.956
 --------------------------------------------------------------
 
          Ground-State Mulliken Net Atomic Charges

     Atom                 Charge (a.u.)    Spin (a.u.)
  --------------------------------------------------------
      1 C                    -0.205468      -0.142344
      2 C                    -0.236833       1.061507
      3 C                    -0.161585      -0.220486
      4 C                     0.022929       0.073547
      5 C                    -0.182594      -0.051829
      6 N                    -0.147161       0.006827
      7 H                     0.174525       0.004588
      8 H                     0.147228       0.009994
      9 H                     0.138070       0.078860
     10 H                     0.118996      -0.000697
     11 H                     0.125264       0.003592
     12 C                     0.045472       0.183589
     13 H                     0.161158      -0.007147
  --------------------------------------------------------
  Sum of atomic charges =     0.000000
  Sum of spin   charges =     1.000000

 -----------------------------------------------------------------
                    Cartesian Multipole Moments
 -----------------------------------------------------------------
    Charge (ESU x 10^10)
                 0.0000
    Dipole Moment (Debye)
         X       0.3954      Y      -1.0809      Z      -1.0249
       Tot       1.5411
    Quadrupole Moments (Debye-Ang)
        XX     -37.0237     XY      -1.8669     YY     -42.4503
        XZ      -1.9974     YZ      -5.7359     ZZ     -40.6641
    Octopole Moments (Debye-Ang^2)
       XXX     -13.4343    XXY      -8.0133    XYY      -7.6179
       YYY     -27.3757    XXZ       1.0069    XYZ      -3.1479
       YYZ      -1.3259    XZZ       3.0698    YZZ       0.5769
       ZZZ     -12.0137
    Hexadecapole Moments (Debye-Ang^3)
      XXXX    -399.8107   XXXY     -50.9695   XXYY    -136.7037
      XYYY     -64.7105   YYYY    -418.5405   XXXZ      61.2331
      XXYZ      14.2995   XYYZ      16.1006   YYYZ      54.9256
      XXZZ     -91.5721   XYZZ      -3.6752   YYZZ     -90.9490
      XZZZ      47.0755   YZZZ      66.4235   ZZZZ    -165.6113
 -----------------------------------------------------------------
Archival summary:
1\1\c8-68\SP\ProcedureUnspecified\6-31+G**\166(2)\hpark21\WedMar220:47:112022WedMar220:47:112022\0\\#,ProcedureUnspecified,6-31+G**,\\0,2\N\C,1,1.4206\H,2,1.09001,1,109.993\C,2,1.34785,1,132.216,3,-173.064,0\H,4,1.0881,2,115.213,1,171.565,0\C,4,1.46694,2,130.503,1,-8.53465,0\H,6,1.09904,4,113.922,2,170.086,0\C,6,1.32066,4,129.008,2,-11.5583,0\H,8,1.08327,6,135.452,4,-178.525,0\C,1,1.50516,2,117.159,3,-97.0787,0\H,10,1.07714,1,137.288,2,79.2168,0\C,10,1.28504,1,65.0921,2,-107.623,0\H,12,1.07334,10,153.358,1,-149.983,0\\\@

 Total job time:  209.90s(wall), 184.86s(cpu) 
 Wed Mar  2 20:47:11 2022

        *************************************************************
        *                                                           *
        *  Thank you very much for using Q-Chem.  Have a nice day.  *
        *                                                           *
        *************************************************************


