
Running Job 1 of 1 qcts2.in
qchem qcts2.in_1080.0 ./qcts2.d/ 1
/home/leeping/opt/qchem/5.0.2-openmp/exe/qcprog.exe_s qcts2.in_1080.0 ./qcts2.d/
Check license passed

                  Welcome to Q-Chem
     A Quantum Leap Into The Future Of Chemistry


 Q-Chem 5.0, Q-Chem, Inc., Pleasanton, CA (2017)

 Yihan Shao,  Zhengting Gan,  E. Epifanovsky,  A. T. B. Gilbert,  M. Wormit,  
 J. Kussmann,  A. W. Lange,  A. Behn,  Jia Deng,  Xintian Feng,  D. Ghosh,  
 M. Goldey,  P. R. Horn,  L. D. Jacobson,  I. Kaliman,  T. Kus,  A. Landau,  
 Jie Liu,  E. I. Proynov,  R. M. Richard,  R. P. Steele,  E. J. Sundstrom,  
 H. L. Woodcock III,  P. M. Zimmerman,  D. Zuev,  B. Albrecht,  E. Alguire,  
 S. A. Baeppler,  D. Barton,  Z. Benda,  Y. A. Bernard,  E. J. Berquist,  
 K. B. Bravaya,  H. Burton,  D. Casanova,  Chun-Min Chang,  Yunqing Chen,  
 A. Chien,  K. D. Closser,  M. P. Coons,  S. Dasgupta,  A. L. Dempwolff,  
 M. Diedenhofen,  Hainam Do,  R. G. Edgar,  Po-Tung Fang,  S. Fatehi,  
 Qingguo Feng,  J. Fosso-Tande,  Qinghui Ge,  A. Ghysels,  G. Gidofalvi,  
 J. Gomes,  J. Gonthier,  A. Gunina,  M. W. D. Hanson-Heine,  
 P. H. P. Harbach,  A. W. Hauser,  J. E. Herr,  E. G. Hohenstein,  
 Z. C. Holden,  Kerwin Hui,  T.-C. Jagau,  Hyunjun Ji,  B. Kaduk,  
 K. Khistyaev,  Jaehoon Kim,  P. Klunzinger,  K. Koh,  D. Kosenkov,  
 L. Koulias,  T. Kowalczyk,  C. M. Krauter,  A. Kunitsa,  Ka Un Lao,  
 A. Laurent,  K. V. Lawler,  Joonho Lee,  D. Lefrancois,  S. Lehtola,  
 D. S. Levine,  Yi-Pei Li,  You-Sheng Lin,  Fenglai Liu,  E. Livshits,  
 A. Luenser,  P. Manohar,  E. Mansoor,  S. F. Manzer,  Shan-Ping Mao,  
 Yuezhi Mao,  N. Mardirossian,  A. V. Marenich,  T. Markovich,  
 L. A. Martinez-Martinez,  S. A. Maurer,  N. J. Mayhall,  S. C. McKenzie,  
 J.-M. Mewes,  A. F. Morrison,  J. W. Mullinax,  K. Nanda,  
 T. S. Nguyen-Beck,  R. Olivares-Amaya,  J. A. Parkhill,  T. M. Perrine,  
 F. Plasser,  S. Prager,  A. Prociuk,  E. Ramos,  D. R. Rehn,  F. Rob,  
 M. Schneider,  N. Sergueev,  S. M. Sharada,  S. Sharma,  D. W. Small,  
 T. Stauch,  T. Stein,  Yu-Chuan Su,  A. J. W. Thom,  A. Tkatchenko,  
 T. Tsuchimochi,  L. Vogt,  O. Vydrov,  M. A. Watson,  J. Wenzel,  
 M. de Wergifosse,  T. A. Wesolowski,  A. White,  J. Witte,  A. Yamada,  
 Jun Yang,  K. Yao,  S. Yeganeh,  S. R. Yost,  Zhi-Qiang You,  A. Zech,  
 Igor Ying Zhang,  Xing Zhang,  Yan Zhao,  Ying Zhu,  B. R. Brooks,  
 G. K. L. Chan,  C. J. Cramer,  M. S. Gordon,  W. J. Hehre,  A. Klamt,  
 M. W. Schmidt,  C. D. Sherrill,  D. G. Truhlar,  A. Aspuru-Guzik,  R. Baer,  
 A. T. Bell,  N. A. Besley,  Jeng-Da Chai,  R. A. DiStasio Jr.,  A. Dreuw,  
 B. D. Dunietz,  T. R. Furlani,  Chao-Ping Hsu,  Yousung Jung,  Jing Kong,  
 D. S. Lambrecht,  WanZhen Liang,  C. Ochsenfeld,  V. A. Rassolov,  
 L. V. Slipchenko,  J. E. Subotnik,  T. Van Voorhis,  J. M. Herbert,  
 A. I. Krylov,  P. M. W. Gill,  M. Head-Gordon

 Contributors to earlier versions of Q-Chem not listed above: 
 R. D. Adamson,  B. Austin,  J. Baker,  G. J. O. Beran,  K. Brandhorst,  
 S. T. Brown,  E. F. C. Byrd,  A. K. Chakraborty,  C.-L. Cheng,  
 Siu Hung Chien,  D. M. Chipman,  D. L. Crittenden,  H. Dachsel,  
 R. J. Doerksen,  A. D. Dutoi,  L. Fusti-Molnar,  W. A. Goddard III,  
 A. Golubeva-Zadorozhnaya,  S. R. Gwaltney,  G. Hawkins,  A. Heyden,  
 S. Hirata,  G. Kedziora,  F. J. Keil,  C. Kelley,  Jihan Kim,  R. A. King,  
 R. Z. Khaliullin,  P. P. Korambath,  W. Kurlancheek,  A. M. Lee,  M. S. Lee,  
 S. V. Levchenko,  Ching Yeh Lin,  D. Liotard,  R. C. Lochan,  I. Lotan,  
 P. E. Maslen,  N. Nair,  D. P. O'Neill,  D. Neuhauser,  E. Neuscamman,  
 C. M. Oana,  R. Olson,  B. Peters,  R. Peverati,  P. A. Pieniazek,  
 Y. M. Rhee,  J. Ritchie,  M. A. Rohrdanz,  E. Rosta,  N. J. Russ,  
 H. F. Schaefer III,  N. E. Schultz,  N. Shenvi,  A. C. Simmonett,  A. Sodt,  
 D. Stuck,  K. S. Thanthiriwatte,  V. Vanovschi,  Tao Wang,  A. Warshel,  
 C. F. Williams,  Q. Wu,  X. Xu,  W. Zhang

 Please cite Q-Chem as follows:
 Y. Shao et al., Mol. Phys. 113, 184-215 (2015)
 DOI: 10.1080/00268976.2014.952696

 Q-Chem 5.0.2 for Intel X86 EM64T Linux

 Parts of Q-Chem use Armadillo 5.200.1 (Boston Tea Smuggler).
 http://arma.sourceforge.net/

 Q-Chem begins on Wed Mar  2 20:59:47 2022  

Host: 
0

     Scratch files written to ./qcts2.d//
 Dec517 15110_ 26548  26544 5633   
Processing $rem in /home/leeping/opt/qchem/5.0.2-openmp/config/preferences.
 MEM_STATIC 2000
 MEM_TOTAL  8000
 SYMMETRY   OFF
 SYM_IGNORE TRUE 

Checking the input file for inconsistencies... 	...done.

--------------------------------------------------------------
User input:
--------------------------------------------------------------
$molecule
0 2
C        1.6820569399    0.3169688837   -0.2373610110
C        0.1907787383   -1.7788354125    0.6453504685
C       -0.9909686898   -1.2008274153    0.7779623119
C       -1.4329890698    0.1086167491    0.2818620048
C       -0.7151988343    1.1667062145   -0.1501464294
N        0.6784239362    1.4387843657   -0.1198135413
H        2.2796806844   -0.2765765260    0.4267528756
H        0.6275758599   -2.7284552550    0.9273115106
H       -1.7711026419   -1.7739195653    1.2973987706
H       -2.5121911216    0.2424227112    0.2646041912
H       -1.2632668541    2.0426333613   -0.4944351930
C        1.5034656264    1.0245418155   -1.2994760523
H        1.7170898977    1.3966415278   -2.2867632908
$end

$rem
method                b3lyp
basis                 6-31+g(d,p)
unrestricted          true
symmetry              off
sym_ignore            true
incdft                false
incfock               0
scf_convergence       6
thresh                14
jobtype               sp
scf_guess             read
scf_algorithm         diis
max_scf_cycles        100
stability_analysis    true
max_cis_cycles        100
cis_n_roots           4
$end

--------------------------------------------------------------
 ----------------------------------------------------------------
             Standard Nuclear Orientation (Angstroms)
    I     Atom           X                Y                Z
 ----------------------------------------------------------------
    1      C       1.6820569399     0.3169688837    -0.2373610110
    2      C       0.1907787383    -1.7788354125     0.6453504685
    3      C      -0.9909686898    -1.2008274153     0.7779623119
    4      C      -1.4329890698     0.1086167491     0.2818620048
    5      C      -0.7151988343     1.1667062145    -0.1501464294
    6      N       0.6784239362     1.4387843657    -0.1198135413
    7      H       2.2796806844    -0.2765765260     0.4267528756
    8      H       0.6275758599    -2.7284552550     0.9273115106
    9      H      -1.7711026419    -1.7739195653     1.2973987706
   10      H      -2.5121911216     0.2424227112     0.2646041912
   11      H      -1.2632668541     2.0426333613    -0.4944351930
   12      C       1.5034656264     1.0245418155    -1.2994760523
   13      H       1.7170898977     1.3966415278    -2.2867632908
 ----------------------------------------------------------------
 Nuclear Repulsion Energy =   252.0415323916 hartrees
 There are       25 alpha and       24 beta electrons
 Requested basis set is 6-31+G(d,p)
 There are 53 shells and 163 basis functions

 Total QAlloc Memory Limit   8000 MB
 Mega-Array Size      1956 MB
 MEM_STATIC part      2000 MB

                       Distance Matrix (Angstroms)
             C (  1)   C (  2)   C (  3)   C (  4)   C (  5)   N (  6)
   C (  2)  2.719464
   C (  3)  3.237229  1.322197
   C (  4)  3.164888  2.516192  1.468381
   C (  5)  2.544896  3.182739  2.557860  1.349595
   N (  6)  1.509823  3.343105  3.249681  2.527598  1.420257
   H (  7)  1.072612  2.582262  3.416831  3.735409  3.374193  2.409403
   H (  8)  3.426806  1.082623  2.230614  3.565321  4.258667  4.297085
   H (  9)  4.318751  2.067407  1.098571  2.165544  3.443487  4.281371
   H ( 10)  4.224836  3.396542  2.158848  1.087602  2.062886  3.429152
   H ( 11)  3.423293  4.244642  3.494736  2.090900  1.089110  2.067641
   C ( 12)  1.288659  3.655738  3.935762  3.458658  2.502727  1.497963
   H ( 13)  2.316672  4.583729  4.844891  4.263783  3.245617  2.403388
             H (  7)   H (  8)   H (  9)   H ( 10)   H ( 11)   C ( 12)
   H (  8)  2.998619
   H (  9)  4.405554  2.608019
   H ( 10)  4.822623  4.373035  2.383592
   H ( 11)  4.333567  5.325405  4.246721  2.318774
   C ( 12)  2.296799  4.450927  5.029706  4.379904  3.056045
   H ( 13)  3.237180  5.341698  5.921669  5.072328  3.537269  1.076489

 
 A cutoff of  1.0D-14 yielded   1354 shell pairs
 There are     13325 function pairs
 Smallest overlap matrix eigenvalue = 2.37E-05

 Scale SEOQF with 1.000000e-01/1.000000e-01/1.000000e-01

 Standard Electronic Orientation quadrupole field applied
 Nucleus-field energy     =     0.0000000052 hartrees
 Guess MOs from SCF MO coefficient file
 Reading MOs from coefficient file
 Reading MOs from coefficient file
 An unrestricted hybrid HF-DFT SCF calculation will be
 performed using Pulay DIIS extrapolation
 Exchange:     0.2000 Hartree-Fock + 0.0800 Slater + 0.7200 B88
 Correlation:  0.1900 VWN1RPA + 0.8100 LYP
 Using SG-1 standard quadrature grid
 SCF converges when DIIS error is below 1.0E-06
Using Q-Chem read-in guess as SCF_GUESS READ specified.

 -------------------------------------------------------
 OpenMP BLAS3 based DFT computing Module                
 -------------------------------------------------------
 ---------------------------------------
  Cycle       Energy         DIIS Error
 ---------------------------------------
    1    -286.7448367099      1.16E-09
    2    -286.7448367099      9.87E-10 Convergence criterion met
 ---------------------------------------
 <S^2> = 0.7761
 SCF time:  CPU 6.37 s  wall 7.96 s
 SCF   energy in the final basis set = -286.74483671
 Total energy in the final basis set = -286.74483671
 
 Direct TDDFT/TDA calculation will be performed
 Exchange:     0.2000 Hartree-Fock + 0.0800 Slater + 0.7200 B88
 Correlation:  0.1900 VWN1RPA + 0.8100 LYP
 Using SG-1 standard quadrature grid
 CIS energy converged when residual is below 10e- 6
 ---------------------------------------------------
 Iter    Rts Conv    Rts Left    Ttl Dev     Max Dev
 ---------------------------------------------------
   1         0           4      0.003571    0.001797
   2         0           4      0.001551    0.000533
   3         0           4      0.001016    0.000347
   4         0           4      0.000529    0.000226
   5         0           4      0.000421    0.000344
   6         0           4      0.000120    0.000101
   7         1           3      0.000041    0.000037
   8         3           1      0.000011    0.000009
   9         3           1      0.000004    0.000002
  10         4           0      0.000002    0.000001    Roots Converged
 ---------------------------------------------------
 
 ---------------------------------------------------
         TDDFT/TDA Excitation Energies              
 ---------------------------------------------------

 Excited state   1: excitation energy (eV) =    1.8449
 Total energy for state  1:                  -286.67703700 au
    <S**2>     :  0.8810
    Trans. Mom.: -0.0545 X  -0.2187 Y   0.1847 Z
    Strength   :     0.0038394205
    D( 23) --> S(  1) amplitude = -0.2072 beta
    D( 24) --> S(  1) amplitude =  0.9533 beta

 Excited state   2: excitation energy (eV) =    2.5900
 Total energy for state  2:                  -286.64965599 au
    <S**2>     :  1.3992
    Trans. Mom.: -0.0667 X  -0.1901 Y   0.0398 Z
    Strength   :     0.0026762034
    S(  1) --> V(  1) amplitude = -0.3612 alpha
    S(  1) --> V(  2) amplitude =  0.2649 alpha
    D( 23) --> S(  1) amplitude =  0.8063 beta
    D( 24) --> V(  2) amplitude = -0.2020 beta

 Excited state   3: excitation energy (eV) =    2.8603
 Total energy for state  3:                  -286.63972279 au
    <S**2>     :  2.5857
    Trans. Mom.:  0.0575 X   0.1114 Y  -0.0446 Z
    Strength   :     0.0012407644
    D( 23) --> V(  1) amplitude = -0.1670 alpha
    D( 24) --> V(  1) amplitude = -0.3283 alpha
    S(  1) --> V(  1) amplitude = -0.5071 alpha
    D( 23) --> S(  1) amplitude = -0.2718 beta
    D( 23) --> V(  1) amplitude = -0.2597 beta
    D( 24) --> V(  1) amplitude =  0.6267 beta

 Excited state   4: excitation energy (eV) =    3.4435
 Total energy for state  4:                  -286.61829037 au
    <S**2>     :  1.9083
    Trans. Mom.:  0.1355 X   0.1798 Y  -0.1649 Z
    Strength   :     0.0065698907
    D( 23) --> V(  1) amplitude =  0.1518 alpha
    D( 23) --> V(  2) amplitude = -0.1577 alpha
    S(  1) --> V(  2) amplitude =  0.6777 alpha
    D( 23) --> S(  1) amplitude = -0.3544 beta
    D( 23) --> V(  2) amplitude = -0.2496 beta
    D( 24) --> S(  1) amplitude = -0.1766 beta
    D( 24) --> V(  1) amplitude =  0.2214 beta
    D( 24) --> V(  2) amplitude = -0.3744 beta
 
 ---------------------------------------------------

 Stability analysis will be performed
 ---------------------------------------------------
 Iter    Rts Conv    Rts Left    Ttl Dev     Max Dev
 ---------------------------------------------------
   1         0           8      0.004154    0.000622
   2         0           8      0.002268    0.000477
   3         0           8      0.000807    0.000191
   4         0           8      0.000319    0.000083
   5         2           6      0.000110    0.000031
   6         3           5      0.000039    0.000014
   7         4           4      0.000015    0.000006
   8         7           1      0.000004    0.000002
   9         8           0      0.000003    0.000001    Roots Converged
 UKS-> UKS   stable,    smallest eigenvalue:      0.0553156
 UKS->CUKS   stable,    smallest eigenvalue:      0.0699026
 ---------------------------------------------------
  SETman timing summary (seconds)
  CPU time               171.37s
  System time              0.00s
  Wall time              183.26s
 
 --------------------------------------------------------------
 
                    Orbital Energies (a.u.)
 --------------------------------------------------------------
 
 Alpha MOs
 -- Occupied --
-14.365 -10.251 -10.247 -10.219 -10.213 -10.208 -10.194  -0.982
 -0.811  -0.761  -0.684  -0.604  -0.600  -0.543  -0.497  -0.494
 -0.446  -0.426  -0.389  -0.380  -0.336  -0.317  -0.252  -0.229
 -0.206
 -- Virtual --
 -0.043  -0.022   0.011   0.014   0.020   0.035   0.044   0.047
  0.065   0.072   0.075   0.080   0.081   0.092   0.104   0.117
  0.128   0.135   0.140   0.142   0.149   0.155   0.160   0.173
  0.191   0.195   0.198   0.200   0.210   0.216   0.232   0.239
  0.245   0.258   0.268   0.282   0.306   0.311   0.322   0.337
  0.374   0.443   0.475   0.512   0.579   0.632   0.648   0.663
  0.684   0.690   0.701   0.729   0.743   0.749   0.767   0.798
  0.802   0.855   0.869   0.900   0.936   0.951   0.957   0.971
  0.990   1.023   1.031   1.047   1.075   1.120   1.150   1.167
  1.177   1.221   1.252   1.287   1.294   1.359   1.399   1.414
  1.472   1.478   1.539   1.634   1.640   1.670   1.691   1.742
  1.806   1.829   1.861   1.935   1.938   1.951   1.986   2.032
  2.040   2.075   2.111   2.172   2.217   2.248   2.305   2.345
  2.374   2.387   2.412   2.436   2.452   2.485   2.498   2.517
  2.549   2.595   2.610   2.666   2.684   2.688   2.779   2.792
  2.852   2.937   3.053   3.103   3.227   3.289   3.343   3.360
  3.492   3.704   3.777   4.169   4.269   4.385   4.469   4.580
  4.680   4.947
 
 Beta MOs
 -- Occupied --
-14.365 -10.249 -10.248 -10.219 -10.209 -10.199 -10.193  -0.981
 -0.807  -0.753  -0.676  -0.601  -0.590  -0.538  -0.491  -0.486
 -0.442  -0.416  -0.386  -0.378  -0.333  -0.314  -0.239  -0.205
 -- Virtual --
 -0.090  -0.036  -0.013   0.013   0.015   0.021   0.036   0.045
  0.048   0.065   0.073   0.075   0.083   0.084   0.095   0.104
  0.119   0.129   0.138   0.140   0.143   0.150   0.155   0.162
  0.174   0.192   0.195   0.200   0.204   0.211   0.219   0.233
  0.242   0.246   0.260   0.269   0.285   0.306   0.314   0.324
  0.338   0.382   0.452   0.478   0.519   0.580   0.640   0.653
  0.672   0.692   0.699   0.707   0.732   0.749   0.751   0.772
  0.798   0.806   0.857   0.876   0.905   0.939   0.952   0.963
  0.977   0.993   1.026   1.039   1.054   1.077   1.122   1.157
  1.170   1.179   1.225   1.255   1.289   1.300   1.362   1.401
  1.420   1.478   1.485   1.544   1.646   1.655   1.698   1.704
  1.747   1.811   1.846   1.874   1.940   1.944   1.959   1.991
  2.035   2.045   2.084   2.117   2.176   2.218   2.252   2.312
  2.351   2.377   2.393   2.418   2.438   2.454   2.488   2.503
  2.520   2.550   2.597   2.612   2.668   2.695   2.704   2.784
  2.800   2.855   2.941   3.057   3.104   3.230   3.294   3.349
  3.361   3.502   3.713   3.778   4.169   4.273   4.400   4.480
  4.581   4.683   4.948
 --------------------------------------------------------------
 
          Ground-State Mulliken Net Atomic Charges

     Atom                 Charge (a.u.)    Spin (a.u.)
  --------------------------------------------------------
      1 C                    -0.216137      -0.151473
      2 C                    -0.239011       1.050207
      3 C                    -0.160926      -0.209380
      4 C                     0.013405       0.063601
      5 C                    -0.168771      -0.047344
      6 N                    -0.144598       0.009261
      7 H                     0.173921       0.005268
      8 H                     0.146724       0.009388
      9 H                     0.138261       0.077190
     10 H                     0.119634      -0.000630
     11 H                     0.125108       0.003493
     12 C                     0.051456       0.198178
     13 H                     0.160935      -0.007759
  --------------------------------------------------------
  Sum of atomic charges =     0.000000
  Sum of spin   charges =     1.000000

 -----------------------------------------------------------------
                    Cartesian Multipole Moments
 -----------------------------------------------------------------
    Charge (ESU x 10^10)
                 0.0000
    Dipole Moment (Debye)
         X       0.4782      Y      -0.9851      Z      -0.9457
       Tot       1.4469
    Quadrupole Moments (Debye-Ang)
        XX     -36.9912     XY      -1.7984     YY     -42.4719
        XZ      -2.0775     YZ      -5.8524     ZZ     -40.5136
    Octopole Moments (Debye-Ang^2)
       XXX     -12.3860    XXY      -7.1464    XYY      -6.7206
       YYY     -26.3557    XXZ       1.2395    XYZ      -3.0049
       YYZ      -1.2470    XZZ       3.0576    YZZ       0.6378
       ZZZ     -10.5631
    Hexadecapole Moments (Debye-Ang^3)
      XXXX    -401.6836   XXXY     -51.0773   XXYY    -137.4338
      XYYY     -65.3604   YYYY    -419.1346   XXXZ      61.4188
      XXYZ      13.4379   XYYZ      15.8999   YYYZ      54.4416
      XXZZ     -90.5761   XYZZ      -2.8892   YYZZ     -90.5311
      XZZZ      47.1466   YZZZ      65.4634   ZZZZ    -163.7392
 -----------------------------------------------------------------
Archival summary:
1\1\c8-68\SP\ProcedureUnspecified\6-31+G**\166(2)\hpark21\WedMar221:03:002022WedMar221:03:002022\0\\#,ProcedureUnspecified,6-31+G**,\\0,2\N\C,1,1.42026\H,2,1.08911,1,110.271\C,2,1.3496,1,131.7,3,-172.613,0\H,4,1.0876,2,115.228,1,170.892,0\C,4,1.46838,2,130.33,1,-8.91867,0\H,6,1.09857,4,114.279,2,165.224,0\C,6,1.3222,4,128.682,2,-16.9538,0\H,8,1.08262,6,135.884,4,-177.641,0\C,1,1.49796,2,118.077,3,-96.0727,0\H,10,1.07649,1,137.389,2,79.8733,0\C,10,1.28866,1,65.1087,2,-107.938,0\H,12,1.07261,10,153.045,1,-147.681,0\\\@

 Total job time:  193.23s(wall), 177.96s(cpu) 
 Wed Mar  2 21:03:00 2022

        *************************************************************
        *                                                           *
        *  Thank you very much for using Q-Chem.  Have a nice day.  *
        *                                                           *
        *************************************************************


