
Running Job 1 of 1 qcts1.in
qchem qcts1.in_64294.0 ./qcts1.d/ 1
/home/leeping/opt/qchem/5.0.2-openmp/exe/qcprog.exe_s qcts1.in_64294.0 ./qcts1.d/
Check license passed

                  Welcome to Q-Chem
     A Quantum Leap Into The Future Of Chemistry


 Q-Chem 5.0, Q-Chem, Inc., Pleasanton, CA (2017)

 Yihan Shao,  Zhengting Gan,  E. Epifanovsky,  A. T. B. Gilbert,  M. Wormit,  
 J. Kussmann,  A. W. Lange,  A. Behn,  Jia Deng,  Xintian Feng,  D. Ghosh,  
 M. Goldey,  P. R. Horn,  L. D. Jacobson,  I. Kaliman,  T. Kus,  A. Landau,  
 Jie Liu,  E. I. Proynov,  R. M. Richard,  R. P. Steele,  E. J. Sundstrom,  
 H. L. Woodcock III,  P. M. Zimmerman,  D. Zuev,  B. Albrecht,  E. Alguire,  
 S. A. Baeppler,  D. Barton,  Z. Benda,  Y. A. Bernard,  E. J. Berquist,  
 K. B. Bravaya,  H. Burton,  D. Casanova,  Chun-Min Chang,  Yunqing Chen,  
 A. Chien,  K. D. Closser,  M. P. Coons,  S. Dasgupta,  A. L. Dempwolff,  
 M. Diedenhofen,  Hainam Do,  R. G. Edgar,  Po-Tung Fang,  S. Fatehi,  
 Qingguo Feng,  J. Fosso-Tande,  Qinghui Ge,  A. Ghysels,  G. Gidofalvi,  
 J. Gomes,  J. Gonthier,  A. Gunina,  M. W. D. Hanson-Heine,  
 P. H. P. Harbach,  A. W. Hauser,  J. E. Herr,  E. G. Hohenstein,  
 Z. C. Holden,  Kerwin Hui,  T.-C. Jagau,  Hyunjun Ji,  B. Kaduk,  
 K. Khistyaev,  Jaehoon Kim,  P. Klunzinger,  K. Koh,  D. Kosenkov,  
 L. Koulias,  T. Kowalczyk,  C. M. Krauter,  A. Kunitsa,  Ka Un Lao,  
 A. Laurent,  K. V. Lawler,  Joonho Lee,  D. Lefrancois,  S. Lehtola,  
 D. S. Levine,  Yi-Pei Li,  You-Sheng Lin,  Fenglai Liu,  E. Livshits,  
 A. Luenser,  P. Manohar,  E. Mansoor,  S. F. Manzer,  Shan-Ping Mao,  
 Yuezhi Mao,  N. Mardirossian,  A. V. Marenich,  T. Markovich,  
 L. A. Martinez-Martinez,  S. A. Maurer,  N. J. Mayhall,  S. C. McKenzie,  
 J.-M. Mewes,  A. F. Morrison,  J. W. Mullinax,  K. Nanda,  
 T. S. Nguyen-Beck,  R. Olivares-Amaya,  J. A. Parkhill,  T. M. Perrine,  
 F. Plasser,  S. Prager,  A. Prociuk,  E. Ramos,  D. R. Rehn,  F. Rob,  
 M. Schneider,  N. Sergueev,  S. M. Sharada,  S. Sharma,  D. W. Small,  
 T. Stauch,  T. Stein,  Yu-Chuan Su,  A. J. W. Thom,  A. Tkatchenko,  
 T. Tsuchimochi,  L. Vogt,  O. Vydrov,  M. A. Watson,  J. Wenzel,  
 M. de Wergifosse,  T. A. Wesolowski,  A. White,  J. Witte,  A. Yamada,  
 Jun Yang,  K. Yao,  S. Yeganeh,  S. R. Yost,  Zhi-Qiang You,  A. Zech,  
 Igor Ying Zhang,  Xing Zhang,  Yan Zhao,  Ying Zhu,  B. R. Brooks,  
 G. K. L. Chan,  C. J. Cramer,  M. S. Gordon,  W. J. Hehre,  A. Klamt,  
 M. W. Schmidt,  C. D. Sherrill,  D. G. Truhlar,  A. Aspuru-Guzik,  R. Baer,  
 A. T. Bell,  N. A. Besley,  Jeng-Da Chai,  R. A. DiStasio Jr.,  A. Dreuw,  
 B. D. Dunietz,  T. R. Furlani,  Chao-Ping Hsu,  Yousung Jung,  Jing Kong,  
 D. S. Lambrecht,  WanZhen Liang,  C. Ochsenfeld,  V. A. Rassolov,  
 L. V. Slipchenko,  J. E. Subotnik,  T. Van Voorhis,  J. M. Herbert,  
 A. I. Krylov,  P. M. W. Gill,  M. Head-Gordon

 Contributors to earlier versions of Q-Chem not listed above: 
 R. D. Adamson,  B. Austin,  J. Baker,  G. J. O. Beran,  K. Brandhorst,  
 S. T. Brown,  E. F. C. Byrd,  A. K. Chakraborty,  C.-L. Cheng,  
 Siu Hung Chien,  D. M. Chipman,  D. L. Crittenden,  H. Dachsel,  
 R. J. Doerksen,  A. D. Dutoi,  L. Fusti-Molnar,  W. A. Goddard III,  
 A. Golubeva-Zadorozhnaya,  S. R. Gwaltney,  G. Hawkins,  A. Heyden,  
 S. Hirata,  G. Kedziora,  F. J. Keil,  C. Kelley,  Jihan Kim,  R. A. King,  
 R. Z. Khaliullin,  P. P. Korambath,  W. Kurlancheek,  A. M. Lee,  M. S. Lee,  
 S. V. Levchenko,  Ching Yeh Lin,  D. Liotard,  R. C. Lochan,  I. Lotan,  
 P. E. Maslen,  N. Nair,  D. P. O'Neill,  D. Neuhauser,  E. Neuscamman,  
 C. M. Oana,  R. Olson,  B. Peters,  R. Peverati,  P. A. Pieniazek,  
 Y. M. Rhee,  J. Ritchie,  M. A. Rohrdanz,  E. Rosta,  N. J. Russ,  
 H. F. Schaefer III,  N. E. Schultz,  N. Shenvi,  A. C. Simmonett,  A. Sodt,  
 D. Stuck,  K. S. Thanthiriwatte,  V. Vanovschi,  Tao Wang,  A. Warshel,  
 C. F. Williams,  Q. Wu,  X. Xu,  W. Zhang

 Please cite Q-Chem as follows:
 Y. Shao et al., Mol. Phys. 113, 184-215 (2015)
 DOI: 10.1080/00268976.2014.952696

 Q-Chem 5.0.2 for Intel X86 EM64T Linux

 Parts of Q-Chem use Armadillo 5.200.1 (Boston Tea Smuggler).
 http://arma.sourceforge.net/

 Q-Chem begins on Wed Mar  2 20:32:15 2022  

Host: 
0

     Scratch files written to ./qcts1.d//
 Dec517 15110_ 26548  26544 5633   
Processing $rem in /home/leeping/opt/qchem/5.0.2-openmp/config/preferences.
 MEM_STATIC 2000
 MEM_TOTAL  8000
 SYMMETRY   OFF
 SYM_IGNORE TRUE 

Checking the input file for inconsistencies... 	...done.

--------------------------------------------------------------
User input:
--------------------------------------------------------------
$molecule
0 2
C        1.6784805107    0.2140532648   -0.3008949031
C        0.1878420000   -1.6661265785    0.8108548320
C       -1.0540769106   -1.2170487720    0.7434216533
C       -1.4723255795    0.1088044655    0.2875384414
C       -0.6951710806    1.1405477703   -0.1017315933
N        0.7158140241    1.3471005425   -0.0612779140
H        2.4857990085   -0.2431099919    0.2392216547
H        0.6637848717   -2.5844163971    1.1403042137
H       -1.8650231318   -1.9004598004    1.0186716501
H       -2.5470783538    0.2789986927    0.2677175729
H       -1.1826066173    2.0573107811   -0.4358191607
C        1.3975174313    0.9659845406   -1.3326389413
H        1.6803982983    1.4770629373   -2.2421208902
$end

$rem
method                b3lyp
basis                 6-31g(d)
unrestricted          true
symmetry              off
sym_ignore            true
incdft                false
incfock               0
scf_convergence       8
thresh                14
jobtype               freq
scf_guess             read
scf_algorithm         diis
max_scf_cycles        100
$end

--------------------------------------------------------------
 ----------------------------------------------------------------
             Standard Nuclear Orientation (Angstroms)
    I     Atom           X                Y                Z
 ----------------------------------------------------------------
    1      C       1.6784805107     0.2140532648    -0.3008949031
    2      C       0.1878420000    -1.6661265785     0.8108548320
    3      C      -1.0540769106    -1.2170487720     0.7434216533
    4      C      -1.4723255795     0.1088044655     0.2875384414
    5      C      -0.6951710806     1.1405477703    -0.1017315933
    6      N       0.7158140241     1.3471005425    -0.0612779140
    7      H       2.4857990085    -0.2431099919     0.2392216547
    8      H       0.6637848717    -2.5844163971     1.1403042137
    9      H      -1.8650231318    -1.9004598004     1.0186716501
   10      H      -2.5470783538     0.2789986927     0.2677175729
   11      H      -1.1826066173     2.0573107811    -0.4358191607
   12      C       1.3975174313     0.9659845406    -1.3326389413
   13      H       1.6803982983     1.4770629373    -2.2421208902
 ----------------------------------------------------------------
 Nuclear Repulsion Energy =   253.0599047889 hartrees
 There are       25 alpha and       24 beta electrons
 Requested basis set is 6-31G(d)
 There are 40 shells and 117 basis functions

 Total QAlloc Memory Limit   8000 MB
 Mega-Array Size      1956 MB
 MEM_STATIC part      2000 MB

                       Distance Matrix (Angstroms)
             C (  1)   C (  2)   C (  3)   C (  4)   C (  5)   N (  6)
   C (  2)  2.644441
   C (  3)  3.256612  1.322339
   C (  4)  3.207010  2.486040  1.463095
   C (  5)  2.555833  3.080576  2.530091  1.349072
   N (  6)  1.505968  3.181023  3.217906  2.538307  1.426597
   H (  7)  1.073540  2.762670  3.705873  3.974032  3.485589  2.398315
   H (  8)  3.307279  1.085502  2.231201  3.541697  4.155090  4.111366
   H (  9)  4.332302  2.076621  1.095649  2.173916  3.445517  4.286451
   H ( 10)  4.264140  3.399750  2.166450  1.088326  2.075649  3.448992
   H ( 11)  3.406115  4.158883  3.482608  2.098538  1.090716  2.061233
   C ( 12)  1.307225  3.603594  3.884067  3.405251  2.434122  1.492088
   H ( 13)  2.315935  4.629042  4.863030  4.267432  3.215251  2.388177
             H (  7)   H (  8)   H (  9)   H ( 10)   H ( 11)   C ( 12)
   H (  8)  3.100548
   H (  9)  4.720594  2.622491
   H ( 10)  5.059967  4.389783  2.403991
   H ( 11)  4.382330  5.238221  4.271438  2.349285
   C ( 12)  2.262081  4.388526  4.938556  4.311952  2.941482
   H ( 13)  3.124856  5.382371  5.883064  5.060257  3.434561  1.080916

 
 A cutoff of  1.0D-14 yielded    789 shell pairs
 There are      7051 function pairs
 Smallest overlap matrix eigenvalue = 1.55E-03
 Guess MOs from SCF MO coefficient file
 Reading MOs from coefficient file
 Reading MOs from coefficient file
 An unrestricted hybrid HF-DFT SCF calculation will be
 performed using Pulay DIIS extrapolation
 Exchange:     0.2000 Hartree-Fock + 0.0800 Slater + 0.7200 B88
 Correlation:  0.1900 VWN1RPA + 0.8100 LYP
 Using SG-1 standard quadrature grid
 SCF converges when DIIS error is below 1.0E-08
Using Q-Chem read-in guess as SCF_GUESS READ specified.

 -------------------------------------------------------
 OpenMP BLAS3 based DFT computing Module                
 -------------------------------------------------------
 ---------------------------------------
  Cycle       Energy         DIIS Error
 ---------------------------------------
    1    -286.7152765550      2.46E-09
    2    -286.7152765550      3.33E-09 Convergence criterion met
 ---------------------------------------
 <S^2> = 0.8031
 SCF time:  CPU 3.20 s  wall 4.52 s
 SCF   energy in the final basis set = -286.71527656
 Total energy in the final basis set = -286.71527656
 
 --------------------------------------------------------------
 
                    Orbital Energies (a.u.)
 --------------------------------------------------------------
 
 Alpha MOs
 -- Occupied --
-14.351 -10.238 -10.236 -10.207 -10.201 -10.193 -10.181  -0.970
 -0.799  -0.745  -0.670  -0.592  -0.588  -0.529  -0.489  -0.482
 -0.435  -0.412  -0.377  -0.365  -0.329  -0.304  -0.237  -0.214
 -0.195
 -- Virtual --
 -0.021  -0.016   0.098   0.101   0.107   0.127   0.141   0.162
  0.171   0.181   0.197   0.267   0.338   0.360   0.395   0.443
  0.487   0.494   0.505   0.541   0.546   0.555   0.580   0.592
  0.623   0.629   0.651   0.666   0.686   0.732   0.761   0.782
  0.797   0.829   0.862   0.868   0.894   0.898   0.932   0.949
  0.990   1.005   1.012   1.073   1.109   1.172   1.227   1.233
  1.296   1.388   1.458   1.510   1.515   1.547   1.639   1.691
  1.709   1.721   1.736   1.803   1.848   1.887   1.894   1.981
  1.985   2.026   2.062   2.163   2.185   2.241   2.272   2.313
  2.336   2.346   2.450   2.498   2.575   2.587   2.687   2.730
  2.775   2.809   2.908   2.940   3.196   3.952   4.074   4.148
  4.233   4.268   4.340   4.575
 
 Beta MOs
 -- Occupied --
-14.351 -10.239 -10.234 -10.208 -10.195 -10.187 -10.180  -0.969
 -0.795  -0.738  -0.662  -0.588  -0.578  -0.524  -0.483  -0.475
 -0.430  -0.403  -0.373  -0.363  -0.325  -0.299  -0.226  -0.191
 -- Virtual --
 -0.078  -0.011   0.000   0.101   0.104   0.109   0.131   0.147
  0.165   0.172   0.185   0.198   0.268   0.345   0.363   0.406
  0.449   0.491   0.497   0.510   0.545   0.558   0.562   0.585
  0.596   0.628   0.639   0.661   0.671   0.686   0.734   0.762
  0.786   0.802   0.831   0.868   0.870   0.899   0.912   0.933
  0.953   0.993   1.013   1.017   1.077   1.113   1.176   1.231
  1.237   1.299   1.396   1.460   1.514   1.520   1.557   1.642
  1.703   1.716   1.733   1.770   1.802   1.865   1.896   1.913
  1.988   2.000   2.034   2.069   2.168   2.189   2.244   2.276
  2.319   2.339   2.349   2.458   2.504   2.578   2.591   2.692
  2.734   2.783   2.815   2.911   2.943   3.201   3.952   4.082
  4.166   4.241   4.272   4.338   4.577
 --------------------------------------------------------------
 
          Ground-State Mulliken Net Atomic Charges

     Atom                 Charge (a.u.)    Spin (a.u.)
  --------------------------------------------------------
      1 C                    -0.050649      -0.215690
      2 C                    -0.212641       0.961151
      3 C                    -0.122251      -0.159738
      4 C                    -0.111390       0.061411
      5 C                     0.004407      -0.051893
      6 N                    -0.391034       0.010791
      7 H                     0.183210       0.011598
      8 H                     0.153813       0.005961
      9 H                     0.141050       0.075521
     10 H                     0.123774       0.000652
     11 H                     0.136010       0.004506
     12 C                    -0.028762       0.307481
     13 H                     0.174462      -0.011750
  --------------------------------------------------------
  Sum of atomic charges =    -0.000000
  Sum of spin   charges =     1.000000

 -----------------------------------------------------------------
                    Cartesian Multipole Moments
 -----------------------------------------------------------------
    Charge (ESU x 10^10)
                 0.0000
    Dipole Moment (Debye)
         X       0.5126      Y      -0.8443      Z      -1.0571
       Tot       1.4468
    Quadrupole Moments (Debye-Ang)
        XX     -34.9011     XY      -1.2350     YY     -39.8658
        XZ      -1.7777     YZ      -5.1599     ZZ     -39.8205
    Octopole Moments (Debye-Ang^2)
       XXX      -6.8498    XXY      -6.5528    XYY      -6.0383
       YYY     -21.2272    XXZ      -0.1623    XYZ      -3.6453
       YYZ      -1.6339    XZZ       3.1065    YZZ       0.5368
       ZZZ     -10.7582
    Hexadecapole Moments (Debye-Ang^3)
      XXXX    -371.1805   XXXY     -43.8776   XXYY    -124.1937
      XYYY     -54.3541   YYYY    -363.1502   XXXZ      58.9098
      XXYZ      14.6082   XYYZ      15.5742   YYYZ      54.9527
      XXZZ     -89.6746   XYZZ      -4.9113   YYZZ     -80.3718
      XZZZ      50.0122   YZZZ      65.7155   ZZZZ    -160.6609
 -----------------------------------------------------------------
 Calculating MO derivatives via CPSCF
   1         3          39      0.309871    0.067272
   2         3          39      0.034301    0.006093
   3         3          39      0.005579    0.000631
   4         3          39      0.000695    0.000073
   5        25          17      0.000053    0.000006
   6        42           0      0.000000    0.000000    Roots Converged
 Time for AOints: 5.7 s (CPU) 5.8 s (wall)
 ------------------------------------------------------------------------------
                     AOints        : Timing summary (seconds)
 ------------------------------------------------------------------------------
     job step          cpu (% of tot)      sys (% of tot)     wall (% of tot)
 ------------------------------------------------------------------------------
  cpscf_lag         0.5234E+02 (28.6)   0.3100E-04 (43.7)   0.5319E+02 (28.5)
  iterzp            0.1249E+03 (68.2)   0.3900E-04 (54.9)   0.1272E+03 (68.2)
  make_fx           0.0000E+00 ( 0.0)   0.0000E+00 ( 0.0)   0.0000E+00 ( 0.0)
  AOints            0.5669E+01 ( 3.1)   0.1000E-05 ( 1.4)   0.5817E+01 ( 3.1)
 ------------------------------------------------------------------------------
   Grand Totals     0.1831E+03          0.7100E-04          0.1864E+03
 ------------------------------------------------------------------------------
 Calculating analytic Hessian of the SCF energy
 Polarizability Matrix (a.u.)
            1           2           3
    1 -76.7110486  -1.9547890  10.5766172
    2  -1.9547890 -75.9813403  24.6236149
    3  10.5766172  24.6236149 -49.1207747
 
 Direct stationary perturbation theory relativistic correction:
 
 rels  =       0.069250653499
 relv  =      -0.332498460133
 rel2e =       0.150342679930
 E_rel =      -0.112905126703
 
 Hessian of the SCF Energy
            1           2           3           4           5           6
    1   0.3814317  -0.2784706   0.2607260   0.0006465   0.0083612  -0.0072425
    2  -0.2784706   0.3219839  -0.2692277   0.0167068   0.0237375  -0.0224680
    3   0.2607260  -0.2692277   0.5100636  -0.0185724  -0.0263825   0.0178364
    4   0.0006465   0.0167068  -0.0185724   0.6392174  -0.3081839   0.0744773
    5   0.0083612   0.0237375  -0.0263825  -0.3081839   0.3928011  -0.1098485
    6  -0.0072425  -0.0224680   0.0178364   0.0744773  -0.1098485   0.0700040
    7  -0.0031376  -0.0023014   0.0015410  -0.4961881   0.1750801  -0.0288482
    8  -0.0041570  -0.0056983   0.0081607   0.1331512  -0.1205808   0.0199729
    9   0.0023359   0.0022288  -0.0038379  -0.0145966   0.0188433  -0.0395417
   10   0.0054505   0.0046178  -0.0056038  -0.0134182   0.0256937  -0.0084457
   11  -0.0015878   0.0021000  -0.0022518   0.0388708  -0.0220773   0.0062755
   12  -0.0008636  -0.0038505   0.0026709  -0.0124016   0.0071610  -0.0031127
   13  -0.0150286  -0.0072860   0.0091220  -0.0031398   0.0122318  -0.0056158
   14   0.0366378   0.0029637  -0.0004261  -0.0119900   0.0045505  -0.0015161
   15  -0.0036877  -0.0062243  -0.0114477   0.0058204  -0.0010920   0.0012360
   16  -0.0811081   0.1151617  -0.0112761  -0.0053640  -0.0145951   0.0087126
   17   0.0454224  -0.1140079  -0.0193372   0.0022619  -0.0038246   0.0021469
   18   0.0410705  -0.0726972  -0.0135865   0.0024557   0.0081121  -0.0049000
   19  -0.2200219   0.1340133  -0.1489042  -0.0028919  -0.0035744   0.0028427
   20   0.1158955  -0.0648742   0.0515717  -0.0057870  -0.0050493   0.0044553
   21  -0.1356020   0.0777098  -0.1387555   0.0017254   0.0007181   0.0003668
   22   0.0005908  -0.0009688   0.0014282  -0.0944942   0.1079336  -0.0370465
   23   0.0009936   0.0000986   0.0003493   0.1375919  -0.2618147   0.0863992
   24  -0.0002738  -0.0021867   0.0026948  -0.0489488   0.0897621  -0.0491683
   25  -0.0006313  -0.0001351   0.0004560  -0.0320001  -0.0148070   0.0080292
   26   0.0003516   0.0020800  -0.0015480   0.0058864   0.0088092   0.0016957
   27   0.0000775   0.0038899  -0.0025930   0.0018348   0.0010000   0.0148031
   28   0.0008985   0.0007891  -0.0008670   0.0002855   0.0012054  -0.0004297
   29   0.0002026   0.0007677  -0.0002830  -0.0003600  -0.0042779   0.0022670
   30  -0.0011553  -0.0003058   0.0012859  -0.0000970   0.0026079   0.0004454
   31  -0.0041390  -0.0013361  -0.0043093  -0.0009134  -0.0005332   0.0002783
   32  -0.0020793   0.0020676   0.0010797  -0.0003746   0.0003739   0.0000170
   33   0.0020240  -0.0002665   0.0022012  -0.0001016  -0.0004253   0.0006408
   34  -0.0725120   0.0164824  -0.0733191   0.0082651   0.0112935  -0.0070992
   35   0.0796695  -0.1719660   0.2601913  -0.0073267  -0.0126409   0.0102894
   36  -0.1685760   0.2975058  -0.3594714   0.0085665   0.0096019  -0.0091362
   37   0.0075606   0.0027269  -0.0104215  -0.0000049  -0.0001057   0.0003874
   38  -0.0012393   0.0007474  -0.0018964  -0.0004469  -0.0000067   0.0003138
   39   0.0111669  -0.0041076  -0.0070608  -0.0001621  -0.0000581   0.0005265
            7           8           9          10          11          12
    1  -0.0031376  -0.0041570   0.0023359   0.0054505  -0.0015878  -0.0008636
    2  -0.0023014  -0.0056983   0.0022288   0.0046178   0.0021000  -0.0038505
    3   0.0015410   0.0081607  -0.0038379  -0.0056038  -0.0022518   0.0026709
    4  -0.4961881   0.1331512  -0.0145966  -0.0134182   0.0388708  -0.0124016
    5   0.1750801  -0.1205808   0.0188433   0.0256937  -0.0220773   0.0071610
    6  -0.0288482   0.0199729  -0.0395417  -0.0084457   0.0062755  -0.0031127
    7   0.7819379  -0.0863272  -0.0102743  -0.1058389   0.0087127  -0.0022648
    8  -0.0863272   0.5155897  -0.1352220   0.0614753  -0.2030604   0.0504844
    9  -0.0102743  -0.1352220   0.1637725  -0.0203274   0.0521964  -0.0727617
   10  -0.1058389   0.0614753  -0.0203274   0.6938490   0.0814423  -0.0450859
   11   0.0087127  -0.2030604   0.0521964   0.0814423   0.6362326  -0.1905553
   12  -0.0022648   0.0504844  -0.0727617  -0.0450859  -0.1905553   0.1770858
   13   0.0188721  -0.0167928   0.0042876  -0.2303667  -0.1434855   0.0557716
   14   0.0000619  -0.0404069   0.0168564  -0.1732442  -0.3247392   0.1052775
   15  -0.0009429   0.0181294  -0.0003067   0.0652525   0.1043253  -0.0893681
   16   0.0008975   0.0159798  -0.0065564  -0.0383085  -0.0212191   0.0077269
   17   0.0003491   0.0011257  -0.0030460  -0.0280282   0.0063087  -0.0002265
   18   0.0011397  -0.0112659  -0.0017933   0.0153367   0.0041120   0.0024052
   19   0.0002249   0.0006658  -0.0004806  -0.0011046  -0.0002068   0.0003875
   20  -0.0002499   0.0004836  -0.0002126  -0.0010281  -0.0004052   0.0006341
   21  -0.0001440   0.0004966  -0.0000074  -0.0001284  -0.0004855   0.0002139
   22  -0.0019783   0.0264160  -0.0096258  -0.0027044  -0.0014515   0.0011578
   23  -0.0089472   0.0004110   0.0003805   0.0025434   0.0025243   0.0018522
   24   0.0046721  -0.0034588   0.0001365   0.0006794   0.0030451   0.0069100
   25  -0.1868920  -0.1243964   0.0504565   0.0074201   0.0079076  -0.0027306
   26  -0.1135315  -0.1483467   0.0448226  -0.0236731  -0.0177545   0.0100591
   27   0.0449559   0.0461774  -0.0540825   0.0075297   0.0079610   0.0050399
   28  -0.0061670  -0.0006762   0.0005825  -0.3268346   0.0435531  -0.0053638
   29   0.0299987  -0.0053713   0.0012572   0.0441511  -0.0587961   0.0089314
   30  -0.0106002   0.0013858   0.0008357  -0.0036563   0.0098831  -0.0345951
   31  -0.0010971  -0.0017127   0.0007058   0.0091041  -0.0171271   0.0059927
   32  -0.0031706   0.0006226   0.0036698   0.0117325  -0.0186332   0.0084192
   33   0.0019882   0.0036864   0.0084972  -0.0051907   0.0093790   0.0032970
   34  -0.0003536  -0.0038563   0.0035164   0.0041560   0.0049921  -0.0018654
   35   0.0001950   0.0060075  -0.0020566  -0.0066040  -0.0018982   0.0017899
   36  -0.0010773   0.0023293  -0.0012417  -0.0011704  -0.0040335   0.0024329
   37  -0.0002800   0.0002305  -0.0000235  -0.0014037  -0.0004009  -0.0004608
   38   0.0001304  -0.0007756   0.0002820   0.0009215   0.0001984   0.0000235
   39  -0.0001451  -0.0008760   0.0003312   0.0008103   0.0001486  -0.0002180
           13          14          15          16          17          18
    1  -0.0150286   0.0366378  -0.0036877  -0.0811081   0.0454224   0.0410705
    2  -0.0072860   0.0029637  -0.0062243   0.1151617  -0.1140079  -0.0726972
    3   0.0091220  -0.0004261  -0.0114477  -0.0112761  -0.0193372  -0.0135865
    4  -0.0031398  -0.0119900   0.0058204  -0.0053640   0.0022619   0.0024557
    5   0.0122318   0.0045505  -0.0010920  -0.0145951  -0.0038246   0.0081121
    6  -0.0056158  -0.0015161   0.0012360   0.0087126   0.0021469  -0.0049000
    7   0.0188721   0.0000619  -0.0009429   0.0008975   0.0003491   0.0011397
    8  -0.0167928  -0.0404069   0.0181294   0.0159798   0.0011257  -0.0112659
    9   0.0042876   0.0168564  -0.0003067  -0.0065564  -0.0030460  -0.0017933
   10  -0.2303667  -0.1732442   0.0652525  -0.0383085  -0.0280282   0.0153367
   11  -0.1434855  -0.3247392   0.1043253  -0.0212191   0.0063087   0.0041120
   12   0.0557716   0.1052775  -0.0893681   0.0077269  -0.0002265   0.0024052
   13   0.5965678   0.0789540  -0.0395602  -0.2166353  -0.0097382  -0.0136201
   14   0.0789540   0.7078967  -0.2077295  -0.0340139  -0.0919808   0.0149599
   15  -0.0395602  -0.2077295   0.2274024  -0.0222794   0.0101577  -0.0581853
   16  -0.2166353  -0.0340139  -0.0222794   0.4170197  -0.0728535  -0.0800958
   17  -0.0097382  -0.0919808   0.0101577  -0.0728535   0.2178430   0.0599888
   18  -0.0136201   0.0149599  -0.0581853  -0.0800958   0.0599888   0.1832361
   19   0.0015544   0.0027688  -0.0035067  -0.0068892   0.0006608   0.0014883
   20   0.0012109  -0.0001996  -0.0001127  -0.0031597   0.0002261   0.0192633
   21   0.0011520  -0.0033746   0.0021819   0.0054626   0.0037500   0.0086693
   22  -0.0025594  -0.0000341  -0.0000183   0.0018309  -0.0009569  -0.0013141
   23  -0.0017400   0.0002893   0.0001144   0.0003878  -0.0009993  -0.0014198
   24  -0.0004700   0.0002022   0.0001671   0.0003610  -0.0015326  -0.0021804
   25  -0.0007537   0.0014482  -0.0004458   0.0007777  -0.0000478  -0.0008318
   26   0.0052501  -0.0029984   0.0013366  -0.0006652   0.0004988   0.0017485
   27  -0.0003033   0.0011032  -0.0003826   0.0003183   0.0011764   0.0040718
   28  -0.0191949   0.0039339  -0.0016317   0.0017711  -0.0020926   0.0020195
   29  -0.0277844   0.0031696  -0.0020823  -0.0000197  -0.0011450   0.0053753
   30   0.0105972  -0.0039236  -0.0006917   0.0033612   0.0063334   0.0094378
   31  -0.1010004   0.0994882  -0.0373319  -0.0277892   0.0283487  -0.0090936
   32   0.1011499  -0.2502235   0.0781412  -0.0013530   0.0041742  -0.0010601
   33  -0.0335437   0.0770840  -0.0657500  -0.0036283  -0.0012504   0.0028291
   34  -0.0298691  -0.0007276   0.0362525  -0.0437985   0.0339516   0.0382002
   35   0.0104086  -0.0090490   0.0061366   0.0148887  -0.0313974  -0.0210951
   36   0.0143135   0.0010603  -0.0047458   0.0979374  -0.0685942  -0.1211147
   37   0.0015535  -0.0032829   0.0020792  -0.0024039   0.0027227   0.0032449
   38  -0.0023785   0.0007276  -0.0011001   0.0014612   0.0131784  -0.0060217
   39  -0.0021309   0.0004263  -0.0001094  -0.0000440   0.0104337  -0.0088890
           19          20          21          22          23          24
    1  -0.2200219   0.1158955  -0.1356020   0.0005908   0.0009936  -0.0002738
    2   0.1340133  -0.0648742   0.0777098  -0.0009688   0.0000986  -0.0021867
    3  -0.1489042   0.0515717  -0.1387555   0.0014282   0.0003493   0.0026948
    4  -0.0028919  -0.0057870   0.0017254  -0.0944942   0.1375919  -0.0489488
    5  -0.0035744  -0.0050493   0.0007181   0.1079336  -0.2618147   0.0897621
    6   0.0028427   0.0044553   0.0003668  -0.0370465   0.0863992  -0.0491683
    7   0.0002249  -0.0002499  -0.0001440  -0.0019783  -0.0089472   0.0046721
    8   0.0006658   0.0004836   0.0004966   0.0264160   0.0004110  -0.0034588
    9  -0.0004806  -0.0002126  -0.0000074  -0.0096258   0.0003805   0.0001365
   10  -0.0011046  -0.0010281  -0.0001284  -0.0027044   0.0025434   0.0006794
   11  -0.0002068  -0.0004052  -0.0004855  -0.0014515   0.0025243   0.0030451
   12   0.0003875   0.0006341   0.0002139   0.0011578   0.0018522   0.0069100
   13   0.0015544   0.0012109   0.0011520  -0.0025594  -0.0017400  -0.0004700
   14   0.0027688  -0.0001996  -0.0033746  -0.0000341   0.0002893   0.0002022
   15  -0.0035067  -0.0001127   0.0021819  -0.0000183   0.0001144   0.0001671
   16  -0.0068892  -0.0031597   0.0054626   0.0018309   0.0003878   0.0003610
   17   0.0006608   0.0002261   0.0037500  -0.0009569  -0.0009993  -0.0015326
   18   0.0014883   0.0192633   0.0086693  -0.0013141  -0.0014198  -0.0021804
   19   0.2219705  -0.1249719   0.1376456  -0.0000666  -0.0004666   0.0001517
   20  -0.1249719   0.0854416  -0.0831638  -0.0001372  -0.0004597   0.0007144
   21   0.1376456  -0.0831638   0.1282542  -0.0000810   0.0000802   0.0001311
   22  -0.0000666  -0.0001372  -0.0000810   0.0971502  -0.1322846   0.0454911
   23  -0.0004666  -0.0004597   0.0000802  -0.1322846   0.2598506  -0.0877114
   24   0.0001517   0.0007144   0.0001311   0.0454911  -0.0877114   0.0444974
   25   0.0000668  -0.0002690  -0.0000355   0.0029615   0.0020752  -0.0009669
   26  -0.0001542  -0.0002076  -0.0000171  -0.0007275  -0.0000280  -0.0008560
   27  -0.0003089  -0.0008667  -0.0002247  -0.0000756  -0.0010335  -0.0022500
   28  -0.0000379  -0.0001108   0.0000072  -0.0000651   0.0002239   0.0000033
   29  -0.0001057  -0.0000934   0.0000482   0.0014097  -0.0002473   0.0000656
   30   0.0003085   0.0002510  -0.0000806  -0.0004942   0.0002169   0.0002953
   31  -0.0009208   0.0004191   0.0014765   0.0003281   0.0000422  -0.0000124
   32  -0.0001143   0.0003578   0.0001575   0.0001151  -0.0001348  -0.0002059
   33   0.0002929  -0.0001443  -0.0003245  -0.0000250  -0.0001142  -0.0005541
   34   0.0083863   0.0194756  -0.0102769  -0.0009716  -0.0003891  -0.0006336
   35  -0.0071879  -0.0160827   0.0021024   0.0007733   0.0005388   0.0021520
   36   0.0109715   0.0069158  -0.0015779   0.0008519   0.0010384  -0.0006814
   37  -0.0002702  -0.0012876  -0.0012015  -0.0000219  -0.0000306  -0.0000531
   38  -0.0013269   0.0008625   0.0019781  -0.0000872  -0.0000288   0.0000100
   39  -0.0008882   0.0006945   0.0011534  -0.0002485  -0.0001521   0.0000020
           25          26          27          28          29          30
    1  -0.0006313   0.0003516   0.0000775   0.0008985   0.0002026  -0.0011553
    2  -0.0001351   0.0020800   0.0038899   0.0007891   0.0007677  -0.0003058
    3   0.0004560  -0.0015480  -0.0025930  -0.0008670  -0.0002830   0.0012859
    4  -0.0320001   0.0058864   0.0018348   0.0002855  -0.0003600  -0.0000970
    5  -0.0148070   0.0088092   0.0010000   0.0012054  -0.0042779   0.0026079
    6   0.0080292   0.0016957   0.0148031  -0.0004297   0.0022670   0.0004454
    7  -0.1868920  -0.1135315   0.0449559  -0.0061670   0.0299987  -0.0106002
    8  -0.1243964  -0.1483467   0.0461774  -0.0006762  -0.0053713   0.0013858
    9   0.0504565   0.0448226  -0.0540825   0.0005825   0.0012572   0.0008357
   10   0.0074201  -0.0236731   0.0075297  -0.3268346   0.0441511  -0.0036563
   11   0.0079076  -0.0177545   0.0079610   0.0435531  -0.0587961   0.0098831
   12  -0.0027306   0.0100591   0.0050399  -0.0053638   0.0089314  -0.0345951
   13  -0.0007537   0.0052501  -0.0003033  -0.0191949  -0.0277844   0.0105972
   14   0.0014482  -0.0029984   0.0011032   0.0039339   0.0031696  -0.0039236
   15  -0.0004458   0.0013366  -0.0003826  -0.0016317  -0.0020823  -0.0006917
   16   0.0007777  -0.0006652   0.0003183   0.0017711  -0.0000197   0.0033612
   17  -0.0000478   0.0004988   0.0011764  -0.0020926  -0.0011450   0.0063334
   18  -0.0008318   0.0017485   0.0040718   0.0020195   0.0053753   0.0094378
   19   0.0000668  -0.0001542  -0.0003089  -0.0000379  -0.0001057   0.0003085
   20  -0.0002690  -0.0002076  -0.0008667  -0.0001108  -0.0000934   0.0002510
   21  -0.0000355  -0.0000171  -0.0002247   0.0000072   0.0000482  -0.0000806
   22   0.0029615  -0.0007275  -0.0000756  -0.0000651   0.0014097  -0.0004942
   23   0.0020752  -0.0000280  -0.0010335   0.0002239  -0.0002473   0.0002169
   24  -0.0009669  -0.0008560  -0.0022500   0.0000033   0.0000656   0.0002953
   25   0.2082202   0.1276215  -0.0543209   0.0010347  -0.0000629  -0.0000881
   26   0.1276215   0.1593965  -0.0565357   0.0000469   0.0009989  -0.0006350
   27  -0.0543209  -0.0565357   0.0369548  -0.0000592  -0.0006730  -0.0002435
   28   0.0010347   0.0000469  -0.0000592   0.3474740  -0.0454689   0.0052720
   29  -0.0000629   0.0009989  -0.0006730  -0.0454689   0.0662484  -0.0131359
   30  -0.0000881  -0.0006350  -0.0002435   0.0052720  -0.0131359   0.0281915
   31   0.0002150  -0.0008464   0.0002615   0.0009926  -0.0006818   0.0002257
   32   0.0002461  -0.0012370   0.0001201  -0.0005385  -0.0002504  -0.0022164
   33  -0.0001277   0.0001659  -0.0009766  -0.0002361  -0.0022512  -0.0054321
   34  -0.0003705   0.0004555   0.0000550   0.0001802  -0.0009928  -0.0036825
   35   0.0004874  -0.0012389  -0.0023319  -0.0009300  -0.0012216  -0.0006927
   36   0.0007628  -0.0003228  -0.0001408   0.0006815   0.0003282   0.0004965
   37  -0.0000483  -0.0000140   0.0000352  -0.0003370  -0.0002858   0.0000091
   38  -0.0000678   0.0000278   0.0000127   0.0000646   0.0002183   0.0002313
   39  -0.0001571   0.0000863   0.0000244   0.0000216   0.0001526   0.0000550
           31          32          33          34          35          36
    1  -0.0041390  -0.0020793   0.0020240  -0.0725120   0.0796695  -0.1685760
    2  -0.0013361   0.0020676  -0.0002665   0.0164824  -0.1719660   0.2975058
    3  -0.0043093   0.0010797   0.0022012  -0.0733191   0.2601913  -0.3594714
    4  -0.0009134  -0.0003746  -0.0001016   0.0082651  -0.0073267   0.0085665
    5  -0.0005332   0.0003739  -0.0004253   0.0112935  -0.0126409   0.0096019
    6   0.0002783   0.0000170   0.0006408  -0.0070992   0.0102894  -0.0091362
    7  -0.0010971  -0.0031706   0.0019882  -0.0003536   0.0001950  -0.0010773
    8  -0.0017127   0.0006226   0.0036864  -0.0038563   0.0060075   0.0023293
    9   0.0007058   0.0036698   0.0084972   0.0035164  -0.0020566  -0.0012417
   10   0.0091041   0.0117325  -0.0051907   0.0041560  -0.0066040  -0.0011704
   11  -0.0171271  -0.0186332   0.0093790   0.0049921  -0.0018982  -0.0040335
   12   0.0059927   0.0084192   0.0032970  -0.0018654   0.0017899   0.0024329
   13  -0.1010004   0.1011499  -0.0335437  -0.0298691   0.0104086   0.0143135
   14   0.0994882  -0.2502235   0.0770840  -0.0007276  -0.0090490   0.0010603
   15  -0.0373319   0.0781412  -0.0657500   0.0362525   0.0061366  -0.0047458
   16  -0.0277892  -0.0013530  -0.0036283  -0.0437985   0.0148887   0.0979374
   17   0.0283487   0.0041742  -0.0012504   0.0339516  -0.0313974  -0.0685942
   18  -0.0090936  -0.0010601   0.0028291   0.0382002  -0.0210951  -0.1211147
   19  -0.0009208  -0.0001143   0.0002929   0.0083863  -0.0071879   0.0109715
   20   0.0004191   0.0003578  -0.0001443   0.0194756  -0.0160827   0.0069158
   21   0.0014765   0.0001575  -0.0003245  -0.0102769   0.0021024  -0.0015779
   22   0.0003281   0.0001151  -0.0000250  -0.0009716   0.0007733   0.0008519
   23   0.0000422  -0.0001348  -0.0001142  -0.0003891   0.0005388   0.0010384
   24  -0.0000124  -0.0002059  -0.0005541  -0.0006336   0.0021520  -0.0006814
   25   0.0002150   0.0002461  -0.0001277  -0.0003705   0.0004874   0.0007628
   26  -0.0008464  -0.0012370   0.0001659   0.0004555  -0.0012389  -0.0003228
   27   0.0002615   0.0001201  -0.0009766   0.0000550  -0.0023319  -0.0001408
   28   0.0009926  -0.0005385  -0.0002361   0.0001802  -0.0009300   0.0006815
   29  -0.0006818  -0.0002504  -0.0022512  -0.0009928  -0.0012216   0.0003282
   30   0.0002257  -0.0022164  -0.0054321  -0.0036825  -0.0006927   0.0004965
   31   0.1237241  -0.1057824   0.0404939   0.0017596  -0.0002559   0.0009738
   32  -0.1057824   0.2625433  -0.0867774  -0.0002178   0.0005596  -0.0013131
   33   0.0404939  -0.0867774   0.0550777  -0.0022116   0.0008757   0.0004957
   34   0.0017596  -0.0002178  -0.0022116   0.1682589  -0.0501339  -0.0511258
   35  -0.0002559   0.0005596   0.0008757  -0.0501339   0.3583059  -0.3917680
   36   0.0009738  -0.0013131   0.0004957  -0.0511258  -0.3917680   0.7548208
   37  -0.0002636   0.0003868   0.0002657  -0.0431307  -0.0339841   0.0868908
   38  -0.0000225  -0.0002200   0.0000383  -0.0303333  -0.1199170   0.1472520
   39   0.0003389  -0.0000316  -0.0000013   0.0721901   0.1344069  -0.2601361
           37          38          39
    1   0.0075606  -0.0012393   0.0111669
    2   0.0027269   0.0007474  -0.0041076
    3  -0.0104215  -0.0018964  -0.0070608
    4  -0.0000049  -0.0004469  -0.0001621
    5  -0.0001057  -0.0000067  -0.0000581
    6   0.0003874   0.0003138   0.0005265
    7  -0.0002800   0.0001304  -0.0001451
    8   0.0002305  -0.0007756  -0.0008760
    9  -0.0000235   0.0002820   0.0003312
   10  -0.0014037   0.0009215   0.0008103
   11  -0.0004009   0.0001984   0.0001486
   12  -0.0004608   0.0000235  -0.0002180
   13   0.0015535  -0.0023785  -0.0021309
   14  -0.0032829   0.0007276   0.0004263
   15   0.0020792  -0.0011001  -0.0001094
   16  -0.0024039   0.0014612  -0.0000440
   17   0.0027227   0.0131784   0.0104337
   18   0.0032449  -0.0060217  -0.0088890
   19  -0.0002702  -0.0013269  -0.0008882
   20  -0.0012876   0.0008625   0.0006945
   21  -0.0012015   0.0019781   0.0011534
   22  -0.0000219  -0.0000872  -0.0002485
   23  -0.0000306  -0.0000288  -0.0001521
   24  -0.0000531   0.0000100   0.0000020
   25  -0.0000483  -0.0000678  -0.0001571
   26  -0.0000140   0.0000278   0.0000863
   27   0.0000352   0.0000127   0.0000244
   28  -0.0003370   0.0000646   0.0000216
   29  -0.0002858   0.0002183   0.0001526
   30   0.0000091   0.0002313   0.0000550
   31  -0.0002636  -0.0000225   0.0003389
   32   0.0003868  -0.0002200  -0.0000316
   33   0.0002657   0.0000383  -0.0000013
   34  -0.0431307  -0.0303333   0.0721901
   35  -0.0339841  -0.1199170   0.1344069
   36   0.0868908   0.1472520  -0.2601361
   37   0.0390500   0.0333247  -0.0807519
   38   0.0333247   0.1049878  -0.1411235
   39  -0.0807519  -0.1411235   0.2743223
 Gradient time:  CPU 242.43 s  wall 247.46 s
 **********************************************************************
 **                                                                  **
 **                       VIBRATIONAL ANALYSIS                       **
 **                       --------------------                       **
 **                                                                  **
 **        VIBRATIONAL FREQUENCIES (CM**-1) AND NORMAL MODES         **
 **     FORCE CONSTANTS (mDYN/ANGSTROM) AND REDUCED MASSES (AMU)     **
 **                  INFRARED INTENSITIES (KM/MOL)                   **
 **                                                                  **
 **********************************************************************
 

 Mode:                 1                      2                      3
 Frequency:      -343.79                 101.25                 165.90
 Force Cnst:      0.2547                 0.0186                 0.0577
 Red. Mass:       3.6583                 3.0790                 3.5565
 IR Active:          YES                    YES                    YES
 IR Intens:       10.181                  6.693                  2.260
 Raman Active:       YES                    YES                    YES
               X      Y      Z        X      Y      Z        X      Y      Z
 C          0.143  0.197 -0.179    0.071  0.044  0.016   -0.067 -0.182 -0.169
 C         -0.131 -0.170  0.235   -0.062 -0.116 -0.199    0.060  0.195  0.045
 C         -0.069 -0.042  0.001   -0.023  0.050  0.220    0.009  0.059  0.058
 C          0.001 -0.025  0.009   -0.034 -0.002  0.067   -0.059 -0.021 -0.093
 C          0.027 -0.044 -0.011   -0.042 -0.067 -0.119    0.006 -0.062 -0.058
 N         -0.003  0.002  0.050   -0.058 -0.035 -0.065    0.016 -0.169  0.150
 H         -0.267 -0.567 -0.237    0.028  0.078  0.107   -0.008 -0.299 -0.352
 H         -0.220 -0.195  0.286   -0.071 -0.117 -0.189    0.172  0.294  0.162
 H         -0.148 -0.054 -0.246   -0.002  0.225  0.715    0.075  0.029  0.172
 H          0.004 -0.004 -0.005   -0.034  0.005  0.104   -0.061 -0.056 -0.218
 H          0.017 -0.051 -0.023   -0.046 -0.115 -0.246    0.107 -0.055 -0.182
 C          0.092  0.139 -0.087    0.150  0.111  0.041    0.001  0.177  0.057
 H         -0.084  0.185 -0.107    0.231  0.167  0.096    0.098  0.463  0.245
 TransDip   0.007 -0.100 -0.022    0.045  0.060  0.034    0.002  0.046 -0.014

 Mode:                 4                      5                      6
 Frequency:       286.89                 333.44                 427.87
 Force Cnst:      0.1394                 0.1775                 0.2638
 Red. Mass:       2.8746                 2.7098                 2.4457
 IR Active:          YES                    YES                    YES
 IR Intens:        3.130                  2.137                 49.825
 Raman Active:       YES                    YES                    YES
               X      Y      Z        X      Y      Z        X      Y      Z
 C          0.070  0.016  0.005    0.261  0.069 -0.012   -0.082  0.161  0.035
 C          0.021  0.165  0.030   -0.064  0.137 -0.073   -0.029  0.057 -0.066
 C         -0.046 -0.039 -0.100   -0.125 -0.022  0.026   -0.067 -0.039  0.047
 C         -0.105  0.041  0.205   -0.084 -0.044 -0.038   -0.005 -0.067 -0.071
 C         -0.066 -0.053  0.011    0.034 -0.096  0.059    0.055 -0.027  0.118
 N         -0.060 -0.123 -0.100    0.055 -0.026  0.039    0.048 -0.021  0.056
 H          0.027  0.043  0.094    0.403  0.254 -0.063   -0.165 -0.022  0.010
 H          0.128  0.116 -0.267    0.119  0.248 -0.033    0.185  0.255  0.170
 H          0.005 -0.256 -0.489   -0.070 -0.036  0.142   -0.033  0.018  0.277
 H         -0.096  0.121  0.442   -0.071  0.029 -0.136    0.005 -0.009 -0.133
 H         -0.034 -0.002  0.106    0.082 -0.080  0.028    0.048  0.001  0.214
 C          0.159  0.001 -0.035   -0.073 -0.031  0.017    0.011 -0.099 -0.190
 H          0.400  0.123  0.106   -0.603 -0.219 -0.249    0.694  0.222  0.199
 TransDip   0.057  0.002  0.001   -0.017 -0.012 -0.042    0.077 -0.062  0.203

 Mode:                 7                      8                      9
 Frequency:       445.74                 486.89                 508.87
 Force Cnst:      0.2077                 0.2578                 0.4832
 Red. Mass:       1.7742                 1.8460                 3.1674
 IR Active:          YES                    YES                    YES
 IR Intens:       34.352                  5.313                 24.473
 Raman Active:       YES                    YES                    YES
               X      Y      Z        X      Y      Z        X      Y      Z
 C         -0.018 -0.079 -0.036    0.018 -0.070 -0.030   -0.135 -0.058 -0.004
 C         -0.065 -0.037  0.089    0.015  0.019 -0.017   -0.054  0.107 -0.028
 C         -0.073 -0.074  0.001    0.001 -0.027 -0.023   -0.144 -0.158  0.079
 C          0.052 -0.035 -0.026   -0.035 -0.053 -0.089    0.104 -0.062  0.093
 C          0.035  0.006  0.045   -0.065  0.059  0.112    0.085 -0.072 -0.065
 N          0.037  0.020 -0.112   -0.035  0.039 -0.095    0.076  0.205 -0.026
 H          0.447  0.711 -0.032   -0.182 -0.320  0.043   -0.298 -0.339 -0.014
 H         -0.048 -0.012  0.132    0.094  0.200  0.376    0.381  0.230 -0.335
 H         -0.119  0.004  0.048    0.040  0.080  0.353   -0.176 -0.203 -0.151
 H          0.063  0.047  0.016   -0.033  0.004  0.182    0.118  0.019 -0.083
 H         -0.012  0.026  0.170   -0.121  0.187  0.538   -0.074 -0.209 -0.211
 C         -0.023  0.110  0.016    0.137  0.029  0.047    0.074  0.061  0.038
 H          0.247  0.254  0.169   -0.170 -0.189 -0.165   -0.173 -0.175 -0.164
 TransDip   0.043  0.180  0.030   -0.032  0.003  0.066   -0.022 -0.131 -0.086

 Mode:                10                     11                     12
 Frequency:       645.05                 718.24                 765.91
 Force Cnst:      0.3417                 0.6270                 0.6751
 Red. Mass:       1.3937                 2.0629                 1.9533
 IR Active:          YES                    YES                    YES
 IR Intens:       32.060                 19.078                 29.575
 Raman Active:       YES                    YES                    YES
               X      Y      Z        X      Y      Z        X      Y      Z
 C         -0.008  0.004  0.010    0.154 -0.074 -0.044   -0.088 -0.031 -0.032
 C         -0.009 -0.040 -0.080    0.009 -0.013 -0.025    0.025 -0.013 -0.038
 C         -0.005 -0.024 -0.075    0.005 -0.009  0.030    0.035  0.055  0.030
 C          0.019  0.042  0.101   -0.063 -0.007  0.024   -0.138 -0.014  0.047
 C          0.021 -0.027 -0.073   -0.089  0.040  0.024   -0.026 -0.044  0.100
 N          0.003  0.005  0.024    0.012  0.161 -0.030    0.065  0.059  0.030
 H          0.028  0.043 -0.009    0.174 -0.374 -0.324    0.130  0.322 -0.041
 H          0.095  0.354  0.871    0.019  0.024  0.068   -0.380 -0.124  0.274
 H         -0.018  0.017 -0.008    0.027 -0.099 -0.123    0.140 -0.186 -0.248
 H          0.024  0.083  0.182   -0.085 -0.161 -0.213   -0.157 -0.198 -0.421
 H          0.026 -0.052 -0.150   -0.126 -0.045 -0.164   -0.011 -0.156 -0.221
 C         -0.031  0.001  0.013   -0.081 -0.079  0.059    0.141  0.028 -0.063
 H         -0.028  0.018  0.024    0.587  0.100  0.353   -0.039 -0.239 -0.266
 TransDip   0.013  0.064  0.169    0.025 -0.129  0.049   -0.088  0.013 -0.150

 Mode:                13                     14                     15
 Frequency:       796.34                 827.36                 846.29
 Force Cnst:      0.6569                 0.9022                 0.6758
 Red. Mass:       1.7583                 2.2370                 1.6015
 IR Active:          YES                    YES                    YES
 IR Intens:        6.890                  4.658                  4.384
 Raman Active:       YES                    YES                    YES
               X      Y      Z        X      Y      Z        X      Y      Z
 C          0.021 -0.003 -0.017   -0.021 -0.014 -0.042    0.006  0.003 -0.000
 C         -0.017 -0.075 -0.022    0.014 -0.065  0.068    0.006  0.017  0.059
 C         -0.012 -0.033  0.097   -0.004 -0.088 -0.041   -0.009 -0.066 -0.163
 C          0.050  0.051 -0.009   -0.097  0.040 -0.010    0.005  0.042  0.095
 C         -0.052  0.153  0.054   -0.100  0.064 -0.124    0.004  0.032  0.074
 N         -0.058 -0.095 -0.006    0.068  0.056  0.166   -0.013 -0.021 -0.032
 H          0.020  0.114  0.087    0.286  0.280 -0.227   -0.069 -0.060  0.053
 H          0.613  0.287  0.027    0.422  0.046 -0.243    0.028 -0.035 -0.120
 H         -0.163 -0.054 -0.385   -0.009  0.066  0.342    0.032  0.224  0.668
 H          0.021 -0.171 -0.414   -0.112  0.043  0.366   -0.013 -0.144 -0.459
 H          0.003  0.081 -0.228   -0.011  0.184  0.072    0.025 -0.134 -0.414
 C          0.042  0.002 -0.012    0.067 -0.030 -0.057    0.005  0.007 -0.003
 H         -0.077 -0.061 -0.083    0.139 -0.289 -0.178   -0.022  0.016 -0.007
 TransDip   0.056 -0.034 -0.053   -0.001 -0.069  0.004    0.023 -0.000 -0.063

 Mode:                16                     17                     18
 Frequency:       920.90                 961.66                 969.54
 Force Cnst:      1.1836                 0.7521                 0.9652
 Red. Mass:       2.3687                 1.3802                 1.7427
 IR Active:          YES                    YES                    YES
 IR Intens:        5.925                  8.016                  3.843
 Raman Active:       YES                    YES                    YES
               X      Y      Z        X      Y      Z        X      Y      Z
 C          0.021  0.000 -0.046    0.022 -0.005 -0.007    0.046 -0.006 -0.039
 C         -0.038  0.112 -0.038    0.020  0.013 -0.008    0.048  0.056 -0.025
 C         -0.037  0.011 -0.016   -0.014 -0.053  0.022   -0.042 -0.134  0.055
 C          0.228 -0.078  0.052   -0.010  0.039  0.082    0.001 -0.009 -0.048
 C         -0.074  0.048 -0.031   -0.032  0.009 -0.124   -0.052  0.132  0.007
 N         -0.123 -0.027  0.104    0.056 -0.010  0.007    0.073 -0.036  0.017
 H          0.254  0.085 -0.303   -0.145  0.029  0.260   -0.282  0.042  0.467
 H         -0.483 -0.088  0.073   -0.142 -0.058  0.052   -0.424 -0.157  0.131
 H         -0.089  0.106  0.019    0.045 -0.111  0.044    0.101 -0.294  0.058
 H          0.217 -0.196 -0.091   -0.037 -0.198 -0.540    0.003  0.095  0.317
 H         -0.243  0.009  0.123   -0.018  0.289  0.617    0.050  0.028 -0.429
 C          0.050 -0.019 -0.012   -0.021 -0.003 -0.014   -0.049  0.034 -0.012
 H          0.262 -0.429 -0.177   -0.087  0.166  0.058    0.096 -0.080 -0.038
 TransDip   0.012 -0.023 -0.074   -0.081 -0.011  0.039   -0.047  0.018  0.038

 Mode:                19                     20                     21
 Frequency:       975.46                1038.99                1135.24
 Force Cnst:      0.7954                 1.0579                 1.9936
 Red. Mass:       1.4187                 1.6633                 2.6255
 IR Active:          YES                    YES                    YES
 IR Intens:       14.952                  7.796                 15.058
 Raman Active:       YES                    YES                    YES
               X      Y      Z        X      Y      Z        X      Y      Z
 C          0.040 -0.028 -0.095    0.037 -0.057 -0.039   -0.047  0.079  0.104
 C         -0.023 -0.022  0.012   -0.061  0.010  0.005   -0.044  0.009 -0.001
 C          0.024  0.071 -0.027    0.016  0.092 -0.041    0.018  0.051 -0.020
 C         -0.011 -0.003  0.008    0.052 -0.089  0.019    0.003 -0.087  0.033
 C          0.035 -0.075  0.013   -0.094  0.001  0.013   -0.111  0.021 -0.018
 N         -0.015  0.013  0.026    0.058  0.050  0.049    0.221 -0.102 -0.096
 H         -0.299  0.148  0.526   -0.152  0.165  0.426    0.031 -0.242 -0.284
 H          0.211  0.086 -0.060    0.084  0.081 -0.049    0.036  0.061 -0.000
 H         -0.030  0.128 -0.034   -0.123  0.251 -0.060   -0.205  0.285 -0.104
 H         -0.006 -0.001 -0.052    0.012 -0.316  0.228   -0.088 -0.616  0.168
 H         -0.024 -0.070  0.116   -0.253 -0.132 -0.113    0.085  0.108 -0.032
 C         -0.073  0.061  0.030    0.043 -0.062 -0.063   -0.079  0.108  0.045
 H          0.450 -0.508 -0.136   -0.290  0.508  0.152    0.150 -0.333 -0.133
 TransDip   0.061 -0.069  0.083   -0.068 -0.035  0.046   -0.121  0.015  0.025

 Mode:                22                     23                     24
 Frequency:      1280.31                1317.46                1448.73
 Force Cnst:      1.2476                 1.2871                 1.7222
 Red. Mass:       1.2918                 1.2586                 1.3927
 IR Active:          YES                    YES                    YES
 IR Intens:       18.381                 13.485                  6.123
 Raman Active:       YES                    YES                    YES
               X      Y      Z        X      Y      Z        X      Y      Z
 C         -0.006  0.005  0.002    0.001 -0.012 -0.028    0.002 -0.010  0.004
 C         -0.130 -0.011  0.012   -0.007  0.020 -0.007   -0.021 -0.007  0.004
 C          0.016  0.066 -0.026   -0.001 -0.022  0.008    0.015  0.042 -0.015
 C          0.033 -0.021  0.006   -0.028 -0.016  0.007    0.033 -0.116  0.041
 C          0.019  0.032 -0.012    0.091  0.015 -0.007   -0.120 -0.023  0.007
 N          0.004 -0.011 -0.006   -0.084  0.043  0.005    0.009  0.024 -0.002
 H          0.016  0.010 -0.027   -0.010  0.055  0.042   -0.012 -0.005  0.035
 H          0.127  0.125 -0.057   -0.067 -0.007  0.001    0.046  0.031 -0.016
 H          0.676 -0.638  0.181   -0.090  0.073 -0.014    0.058  0.002 -0.008
 H          0.008 -0.192  0.062   -0.129 -0.619  0.207    0.150  0.559 -0.202
 H         -0.015  0.018 -0.003    0.648  0.299 -0.058    0.668  0.349 -0.112
 C         -0.005  0.001  0.012    0.013 -0.021  0.004    0.004  0.004 -0.013
 H         -0.001 -0.019  0.005   -0.003  0.027  0.027   -0.005  0.025 -0.010
 TransDip   0.014 -0.116  0.072    0.111  0.034 -0.020   -0.070 -0.015  0.033

 Mode:                25                     26                     27
 Frequency:      1609.08                1635.10                1688.39
 Force Cnst:      7.8755                13.3293                 8.7422
 Red. Mass:       5.1626                 8.4619                 5.2051
 IR Active:          YES                    YES                    YES
 IR Intens:        3.349                 21.170                 20.616
 Raman Active:       YES                    YES                    YES
               X      Y      Z        X      Y      Z        X      Y      Z
 C         -0.128  0.238 -0.308   -0.033  0.048 -0.070    0.018 -0.024  0.035
 C          0.033  0.008 -0.011   -0.340  0.127 -0.021   -0.228  0.077 -0.011
 C         -0.021  0.022 -0.007    0.411 -0.284  0.074    0.300 -0.111  0.020
 C         -0.031 -0.087  0.031    0.107  0.354 -0.130   -0.188 -0.252  0.096
 C          0.022  0.059 -0.019   -0.217 -0.252  0.096    0.218  0.228 -0.088
 N          0.078 -0.047 -0.049    0.040  0.019 -0.011   -0.035 -0.020  0.010
 H         -0.249  0.453 -0.175   -0.067  0.099 -0.020    0.055 -0.038 -0.001
 H         -0.002 -0.017 -0.015   -0.276  0.265 -0.067   -0.164  0.196 -0.065
 H         -0.041  0.051  0.011   -0.022  0.181 -0.083   -0.155  0.371 -0.127
 H         -0.002  0.132 -0.056    0.058 -0.066  0.045   -0.099  0.440 -0.166
 H         -0.063  0.019 -0.033    0.301 -0.051  0.008   -0.365  0.009  0.005
 C          0.076 -0.231  0.350    0.029 -0.051  0.064   -0.018  0.023 -0.031
 H         -0.137 -0.107  0.515   -0.030  0.006  0.109    0.011 -0.002 -0.051
 TransDip   0.034 -0.016 -0.045   -0.081 -0.118  0.034    0.116  0.084 -0.026

 Mode:                28                     29                     30
 Frequency:      3069.04                3147.12                3176.16
 Force Cnst:      6.0032                 6.3340                 6.4948
 Red. Mass:       1.0817                 1.0854                 1.0927
 IR Active:          YES                    YES                    YES
 IR Intens:       24.699                  8.697                 33.722
 Raman Active:       YES                    YES                    YES
               X      Y      Z        X      Y      Z        X      Y      Z
 C          0.000  0.000 -0.000   -0.001  0.000  0.001    0.001 -0.000 -0.000
 C         -0.003  0.003 -0.001    0.000  0.001 -0.000   -0.001  0.002 -0.001
 C         -0.060 -0.051  0.021   -0.002 -0.002  0.001   -0.004 -0.005  0.002
 C          0.005 -0.000 -0.000   -0.031  0.007 -0.002   -0.079  0.009 -0.001
 C          0.001 -0.000  0.000    0.031 -0.067  0.024   -0.012  0.033 -0.012
 N         -0.000 -0.000 -0.000    0.002 -0.000 -0.000    0.000  0.000  0.000
 H         -0.001  0.000 -0.001   -0.001  0.001 -0.001   -0.001  0.000 -0.000
 H          0.037 -0.059  0.021    0.003 -0.007  0.002    0.015 -0.027  0.010
 H          0.734  0.616 -0.251    0.021  0.018 -0.007    0.050  0.046 -0.018
 H         -0.079  0.011 -0.001    0.394 -0.065  0.010    0.899 -0.141  0.019
 H         -0.002  0.001 -0.000   -0.406  0.767 -0.281    0.174 -0.335  0.122
 C          0.000 -0.000  0.000   -0.000  0.000 -0.000    0.000 -0.000  0.000
 H         -0.000 -0.000  0.000    0.001 -0.003  0.002   -0.001 -0.000  0.001
 TransDip  -0.095 -0.116  0.054    0.023 -0.089  0.023   -0.166  0.083 -0.013

 Mode:                31                     32                     33
 Frequency:      3227.41                3280.90                3361.53
 Force Cnst:      6.7621                 6.9570                 7.4303
 Red. Mass:       1.1019                 1.0970                 1.1161
 IR Active:          YES                    YES                    YES
 IR Intens:        1.016                  5.278                  5.761
 Raman Active:       YES                    YES                    YES
               X      Y      Z        X      Y      Z        X      Y      Z
 C          0.000 -0.000  0.000   -0.012  0.003 -0.005   -0.065  0.043 -0.052
 C          0.049 -0.072  0.025   -0.000 -0.000  0.000    0.001  0.000 -0.000
 C         -0.015 -0.002  0.002    0.000 -0.000  0.000   -0.000 -0.000 -0.000
 C         -0.002  0.002 -0.001    0.000  0.000 -0.000   -0.000 -0.000  0.000
 C         -0.001  0.000 -0.000   -0.000  0.000  0.000    0.000 -0.000 -0.000
 N          0.000  0.000 -0.000   -0.001  0.001  0.000    0.002 -0.001 -0.002
 H         -0.001 -0.001 -0.000    0.189 -0.114  0.136    0.713 -0.416  0.502
 H         -0.456  0.832 -0.295   -0.000 -0.001  0.000   -0.001  0.000 -0.001
 H          0.051  0.041 -0.016   -0.000 -0.000  0.000    0.001  0.001  0.001
 H          0.026 -0.007  0.001   -0.001  0.000 -0.000    0.002 -0.000  0.000
 H          0.002 -0.006  0.002    0.002 -0.001  0.000   -0.000  0.001 -0.001
 C         -0.000  0.000 -0.000    0.018  0.044 -0.075   -0.004 -0.016  0.029
 H         -0.000 -0.000  0.000   -0.241 -0.456  0.811    0.059  0.112 -0.201
 TransDip   0.028 -0.014  0.009   -0.011 -0.060  0.041    0.057 -0.024  0.046

 STANDARD THERMODYNAMIC QUANTITIES AT   298.15 K  AND     1.00 ATM

   This Molecule has  1 Imaginary Frequencies
   Zero point vibrational energy:       59.469 kcal/mol

   Atom    1 Element C  Has Mass   12.00000
   Atom    2 Element C  Has Mass   12.00000
   Atom    3 Element C  Has Mass   12.00000
   Atom    4 Element C  Has Mass   12.00000
   Atom    5 Element C  Has Mass   12.00000
   Atom    6 Element N  Has Mass   14.00307
   Atom    7 Element H  Has Mass    1.00783
   Atom    8 Element H  Has Mass    1.00783
   Atom    9 Element H  Has Mass    1.00783
   Atom   10 Element H  Has Mass    1.00783
   Atom   11 Element H  Has Mass    1.00783
   Atom   12 Element C  Has Mass   12.00000
   Atom   13 Element H  Has Mass    1.00783
   Molecular Mass:    92.050050 amu
   Principal axes and moments of inertia in amu*Bohr^2:
                             1           2           3
    Eigenvalues --      366.91462   725.22688  1014.99336
          X               0.65045     0.72237     0.23475
          Y               0.62320    -0.68424     0.37874
          Z              -0.43421     0.10005     0.89524
   Rotational Symmetry Number is   1
   The Molecule is an Asymmetric Top
   Translational Enthalpy:        0.889 kcal/mol
   Rotational Enthalpy:           0.889 kcal/mol
   Vibrational Enthalpy:         61.966 kcal/mol
   gas constant (RT):             0.592 kcal/mol
   Translational Entropy:        39.471  cal/mol.K
   Rotational Entropy:           27.093  cal/mol.K
   Vibrational Entropy:          13.789  cal/mol.K

   Total Enthalpy:               64.336 kcal/mol
   Total Entropy:                80.352  cal/mol.K
Archival summary:
1\1\c8-68\FREQ\ProcedureUnspecified\6-31G*\166(2)\hpark21\WedMar220:36:292022WedMar220:36:292022\0\\#,FREQ,ProcedureUnspecified,6-31G*,\\0,2\N\C,1,1.4266\H,2,1.09072,1,109.208\C,2,1.34907,1,132.246,3,-173.773,0\H,4,1.08833,2,116.361,1,171.538,0\C,4,1.4631,2,128.19,1,-8.08847,0\H,6,1.09565,4,115.59,2,179.556,0\C,6,1.32234,4,126.308,2,-2.66301,0\H,8,1.0855,6,135.607,4,177.993,0\C,1,1.49209,2,113,3,-91.9333,0\H,10,1.08092,1,135.703,2,92.1199,0\C,10,1.30722,1,64.6983,2,-112.515,0\H,12,1.07354,10,143.483,1,-133.034,0\\\@

 Total job time:  253.88s(wall), 245.82s(cpu) 
 Wed Mar  2 20:36:29 2022

        *************************************************************
        *                                                           *
        *  Thank you very much for using Q-Chem.  Have a nice day.  *
        *                                                           *
        *************************************************************


