13
image # 1 Energy = -286.84051
C 1.31278   -0.09752  0.04299   
C 0.44953   -1.22786  0.45044   
C -0.89318  -1.10322  0.48637   
C -1.53844  0.18294   0.26177   
C -0.82138  1.26823   -0.08408  
N 0.57264   1.20838   -0.33400  
H 2.22456   0.06240   0.62402   
H 0.93731   -2.15081  0.75616   
H -1.51084  -1.94684  0.78284   
H -2.59879  0.28716   0.47402   
H -1.24230  2.26962   -0.11351  
C 1.18718   0.43490   -1.31926  
H 1.92092   0.81261   -2.02777  
13
image # 2 Energy = -286.83892
C 1.32226   -0.11430  0.01764   
C 0.44037   -1.24912  0.47276   
C -0.89106  -1.10802  0.50930   
C -1.53765  0.17168   0.25932   
C -0.81360  1.26064   -0.08690  
N 0.58598   1.21137   -0.31546  
H 2.24474   0.02743   0.57880   
H 0.90932   -2.17025  0.81687   
H -1.53888  -1.94645  0.80709   
H -2.60064  0.28448   0.45179   
H -1.24441  2.25478   -0.14132  
C 1.19401   0.48020   -1.32826  
H 1.92286   0.90375   -2.03922  
13
image # 3 Energy = -286.83613
C 1.32781   -0.12743  -0.00910  
C 0.43707   -1.26771  0.49227   
C -0.90128  -1.11596  0.53140   
C -1.53289  0.16705   0.25475   
C -0.80827  1.24877   -0.08863  
N 0.59643   1.21464   -0.29364  
H 2.26352   -0.01146  0.53402   
H 0.88636   -2.18522  0.87219   
H -1.55915  -1.94242  0.82838   
H -2.60182  0.28090   0.43152   
H -1.24545  2.24186   -0.16683  
C 1.20414   0.52326   -1.33952  
H 1.92124   0.98433   -2.04227  
13
image # 4 Energy = -286.83081
C 1.31942   -0.15202  -0.04874  
C 0.42346   -1.26881  0.49683   
C -0.90125  -1.12400  0.55327   
C -1.53873  0.15304   0.25089   
C -0.79742  1.24746   -0.09294  
N 0.61148   1.21236   -0.25876  
H 2.28809   -0.06513  0.47719   
H 0.86655   -2.19765  0.93803   
H -1.57706  -1.93261  0.86201   
H -2.59609  0.27548   0.40216   
H -1.24369  2.22005   -0.19943  
C 1.21685   0.56733   -1.34226  
H 1.91076   1.07894   -2.03095  
13
image # 5 Energy = -286.82531
C 1.32468   -0.16491  -0.08993  
C 0.42272   -1.29260  0.51469   
C -0.91957  -1.12572  0.57341   
C -1.52672  0.15109   0.24136   
C -0.79233  1.22493   -0.09204  
N 0.62549   1.21080   -0.22339  
H 2.30251   -0.12707  0.41336   
H 0.84480   -2.19756  0.99715   
H -1.59121  -1.92361  0.89562   
H -2.59725  0.26952   0.37399   
H -1.24180  2.20463   -0.23281  
C 1.22677   0.61497   -1.34344  
H 1.90158   1.17106   -2.01591  
13
image # 6 Energy = -286.81848
C 1.33238   -0.18551  -0.11449  
C 0.41308   -1.31066  0.52756   
C -0.92099  -1.12925  0.58932   
C -1.52809  0.14485   0.23296   
C -0.77960  1.21351   -0.09399  
N 0.63682   1.21244   -0.18522  
H 2.30902   -0.19257  0.34820   
H 0.83016   -2.18942  1.04553   
H -1.60306  -1.91488  0.93352   
H -2.59724  0.26336   0.34386   
H -1.23577  2.18643   -0.26496  
C 1.22943   0.66354   -1.35020  
H 1.89181   1.25373   -1.99570  
13
image # 7 Energy = -286.81049
C 1.31448   -0.20079  -0.15860  
C 0.40639   -1.32252  0.53227   
C -0.92969  -1.13208  0.60734   
C -1.52277  0.13401   0.22014   
C -0.76863  1.20038   -0.09407  
N 0.66355   1.20651   -0.14314  
H 2.32685   -0.27586  0.27335   
H 0.81975   -2.17593  1.09845   
H -1.61118  -1.89993  0.98419   
H -2.60120  0.25586   0.30418   
H -1.22443  2.16276   -0.30474  
C 1.22006   0.70894   -1.32942  
H 1.88248   1.35299   -1.96943  
13
image # 8 Energy = -286.80094
C 1.31538   -0.20848  -0.19863  
C 0.39118   -1.33186  0.54453   
C -0.93918  -1.13550  0.62492   
C -1.51885  0.12545   0.20919   
C -0.75725  1.18586   -0.09222  
N 0.67556   1.20675   -0.09491  
H 2.33031   -0.35113  0.20199   
H 0.81770   -2.16972  1.14275   
H -1.61897  -1.88853  1.02674   
H -2.60156  0.24841   0.26774   
H -1.21158  2.14411   -0.33939  
C 1.22716   0.76081   -1.32891  
H 1.86643   1.42566   -1.93946  
13
image # 9 Energy = -286.78830
C 1.32024   -0.20947  -0.23533  
C 0.38730   -1.34856  0.56926   
C -0.95303  -1.13953  0.64602   
C -1.52999  0.11418   0.20092   
C -0.74142  1.17678   -0.09187  
N 0.69580   1.20571   -0.05358  
H 2.32348   -0.42854  0.12379   
H 0.81677   -2.16340  1.17953   
H -1.63341  -1.88059  1.07003   
H -2.59528  0.23961   0.22676   
H -1.19361  2.12157   -0.37441  
C 1.22495   0.81648   -1.31378  
H 1.85610   1.50307   -1.91923  
13
image # 10 Energy = -286.76938
C 1.33930   -0.17681  -0.26821  
C 0.35365   -1.36841  0.62061   
C -0.95477  -1.14960  0.67039   
C -1.51517  0.11375   0.20410   
C -0.73992  1.15968   -0.09058  
N 0.71053   1.21396   -0.04089  
H 2.31730   -0.47614  0.08655   
H 0.82149   -2.19729  1.20975   
H -1.66535  -1.89078  1.07473   
H -2.59991  0.23672   0.20942   
H -1.18164  2.10944   -0.39251  
C 1.24054   0.87363   -1.31029  
H 1.85393   1.55351   -1.94199  
13
image # 11 Energy = -286.73779
C 1.39418   -0.08880  -0.30569  
C 0.32263   -1.42061  0.71894   
C -0.98483  -1.16458  0.69646   
C -1.50686  0.10656   0.23371   
C -0.73853  1.16745   -0.09966  
N 0.70509   1.23741   -0.07148  
H 2.31387   -0.47170  0.12140   
H 0.81596   -2.28450  1.23178   
H -1.71428  -1.92033  1.00777   
H -2.59462  0.24237   0.24034   
H -1.18814  2.11076   -0.37897  
C 1.30028   0.92136   -1.33110  
H 1.85805   1.55967   -2.03055  
13
image # 12 Energy = -286.72011
C 1.44198   -0.01449  -0.32861  
C 0.29554   -1.46283  0.77595   
C -1.00246  -1.18708  0.72036   
C -1.50431  0.11098   0.24488   
C -0.72685  1.15661   -0.09757  
N 0.70877   1.26495   -0.05862  
H 2.30053   -0.49291  0.12935   
H 0.81779   -2.32811  1.22847   
H -1.75543  -1.92960  0.99207   
H -2.58293  0.24447   0.23541   
H -1.18182  2.10068   -0.39046  
C 1.34917   0.95113   -1.32387  
H 1.82708   1.57429   -2.09401  
13
image # 13 Energy = -286.71409
C 1.51171   0.05380   -0.34450  
C 0.27046   -1.49894  0.82433   
C -1.01095  -1.18881  0.71975   
C -1.49982  0.10890   0.25331   
C -0.72365  1.15278   -0.09842  
N 0.70136   1.28303   -0.04587  
H 2.26878   -0.51287  0.15635   
H 0.82901   -2.35140  1.20975   
H -1.77773  -1.93469  0.98217   
H -2.58255  0.25061   0.23210   
H -1.17770  2.09322   -0.39397  
C 1.38729   0.97012   -1.32020  
H 1.79341   1.55834   -2.14139  
13
image # 14 Energy = -286.71282
C 1.53556   0.06918   -0.39966  
C 0.26218   -1.50580  0.87567   
C -1.01460  -1.18671  0.72611   
C -1.50263  0.10574   0.25231   
C -0.72116  1.14213   -0.10465  
N 0.69690   1.26640   -0.03653  
H 2.24019   -0.56209  0.10371   
H 0.81772   -2.36093  1.25750   
H -1.77282  -1.93318  0.97940   
H -2.58410  0.24548   0.22849   
H -1.17569  2.09003   -0.40280  
C 1.40724   1.00046   -1.32028  
H 1.80457   1.60798   -2.12603  
13
image # 15 Energy = -286.71333
C 1.55518   0.07524   -0.45261  
C 0.25526   -1.51554  0.93256   
C -1.00837  -1.18190  0.73193   
C -1.50366  0.10278   0.25476   
C -0.72158  1.13992   -0.11369  
N 0.68945   1.24735   -0.03978  
H 2.21502   -0.60014  0.04529   
H 0.79388   -2.37332  1.31407   
H -1.77013  -1.93770  0.96734   
H -2.58312  0.23966   0.23327   
H -1.17781  2.08583   -0.40580  
C 1.42558   1.03094   -1.32530  
H 1.82741   1.66163   -2.11009  
13
image # 16 Energy = -286.71470
C 1.56457   0.08638   -0.50585  
C 0.24708   -1.52411  0.98677   
C -1.00618  -1.18726  0.74517   
C -1.50149  0.10413   0.25515   
C -0.72191  1.13502   -0.12169  
N 0.68899   1.22822   -0.04350  
H 2.19433   -0.64423  -0.02636  
H 0.76725   -2.38697  1.37536   
H -1.76677  -1.93778  0.95944   
H -2.57877  0.23183   0.23301   
H -1.17860  2.07823   -0.41370  
C 1.44722   1.07214   -1.33020  
H 1.84500   1.71574   -2.08447  
13
image # 17 Energy = -286.71594
C 1.56498   0.07870   -0.56064  
C 0.24691   -1.52516  1.03054   
C -1.00255  -1.18255  0.75736   
C -1.49509  0.09430   0.25450   
C -0.71702  1.12562   -0.12858  
N 0.69063   1.21125   -0.04146  
H 2.16998   -0.68965  -0.12622  
H 0.73577   -2.39411  1.44595   
H -1.76655  -1.93889  0.96559   
H -2.57292  0.22231   0.22477   
H -1.17817  2.07019   -0.43024  
C 1.46125   1.10803   -1.31812  
H 1.86728   1.78736   -2.04802  
13
image # 18 Energy = -286.71776
C 1.57431   0.09389   -0.60197  
C 0.23766   -1.53400  1.07327   
C -1.00172  -1.18680  0.77376   
C -1.48889  0.08465   0.25553   
C -0.70955  1.12119   -0.13582  
N 0.69522   1.19987   -0.03706  
H 2.14182   -0.73248  -0.20380  
H 0.71518   -2.40394  1.49675   
H -1.77347  -1.93953  0.97116   
H -2.56829  0.21559   0.21438   
H -1.17143  2.05645   -0.44649  
C 1.48290   1.14814   -1.31060  
H 1.87313   1.84221   -2.02804  
13
image # 19 Energy = -286.71950
C 1.58009   0.10435   -0.62732  
C 0.23007   -1.53764  1.11199   
C -1.00275  -1.18803  0.79031   
C -1.47385  0.07240   0.25566   
C -0.69684  1.10648   -0.14179  
N 0.70330   1.18777   -0.03387  
H 2.10899   -0.77648  -0.29522  
H 0.69476   -2.41493  1.55148   
H -1.78487  -1.94042  0.98340   
H -2.56486  0.20858   0.20010   
H -1.16357  2.04370   -0.46901  
C 1.50019   1.19156   -1.30261  
H 1.87794   1.90745   -2.00701  
13
image # 20 Energy = -286.72098
C 1.58130   0.10099   -0.65791  
C 0.23516   -1.54232  1.14659   
C -1.01132  -1.20009  0.80972   
C -1.47106  0.08540   0.24247   
C -0.69642  1.07688   -0.14176  
N 0.71708   1.17432   -0.02686  
H 2.07735   -0.80751  -0.40031  
H 0.67016   -2.41750  1.60831   
H -1.78852  -1.93321  1.00209   
H -2.54593  0.19756   0.18376   
H -1.15574  2.03024   -0.49565  
C 1.51051   1.22862   -1.28767  
H 1.88631   1.97388   -1.97197  
13
image # 21 Energy = -286.72188
C 1.58999   0.11970   -0.69672  
C 0.21679   -1.54937  1.18030   
C -1.00119  -1.20315  0.82899   
C -1.46780  0.06369   0.24556   
C -0.67741  1.07777   -0.15267  
N 0.72233   1.16186   -0.01929  
H 2.03923   -0.83366  -0.48560  
H 0.65083   -2.42408  1.65691   
H -1.80157  -1.93186  1.01820   
H -2.53683  0.19081   0.16676   
H -1.14186  2.00817   -0.51866  
C 1.53243   1.26163   -1.27329  
H 1.88349   2.03003   -1.94407  
13
image # 22 Energy = -286.72159
C 1.60087   0.12473   -0.72562  
C 0.22613   -1.56682  1.21908   
C -1.02755  -1.19936  0.83996   
C -1.44805  0.05157   0.24587   
C -0.68522  1.07371   -0.16263  
N 0.74211   1.14858   -0.01093  
H 2.00410   -0.84567  -0.56763  
H 0.63054   -2.42608  1.70039   
H -1.80979  -1.92671  1.03531   
H -2.52992  0.18308   0.15017   
H -1.12505  1.98178   -0.54019  
C 1.54782   1.29698   -1.26437  
H 1.88043   2.08244   -1.91640  
13
image # 23 Energy = -286.72233
C 1.61208   0.12370   -0.75702  
C 0.20120   -1.57107  1.24915   
C -1.01443  -1.20713  0.86376   
C -1.44350  0.04253   0.24391   
C -0.65680  1.05682   -0.16808  
N 0.73993   1.13688   -0.00124  
H 1.96683   -0.85575  -0.65058  
H 0.61061   -2.43676  1.75116   
H -1.82539  -1.92367  1.05396   
H -2.51611  0.17417   0.13267   
H -1.11172  1.96265   -0.56859  
C 1.56740   1.35025   -1.26294  
H 1.87339   2.13400   -1.88491  
13
image # 24 Energy = -286.72397
C 1.62117   0.16473   -0.80088  
C 0.18772   -1.58456  1.28748   
C -1.01997  -1.21299  0.88622   
C -1.43280  0.03345   0.24440   
C -0.64028  1.04136   -0.17702  
N 0.75873   1.12123   -0.00196  
H 1.92498   -0.86481  -0.72990  
H 0.59009   -2.44834  1.80298   
H -1.84154  -1.91891  1.07230   
H -2.50410  0.16396   0.11342   
H -1.09541  1.93875   -0.59744  
C 1.58592   1.36679   -1.23751  
H 1.86549   2.19934   -1.86208  
