13   
From optimize.out: Frame 1 / 2, Energy=    -286.7239673413
C        1.6165358098    0.1621626623   -0.8019671012
C        0.1900972918   -1.5800551584    1.2913079302
C       -1.0175681914   -1.2118971903    0.8859353060
C       -1.4319523032    0.0344194211    0.2448077611
C       -0.6407607968    1.0435420595   -0.1756527944
N        0.7585240920    1.1218764387   -0.0028180518
H        1.9158151710   -0.8686096875   -0.7296598834
H        0.5925648229   -2.4447102664    1.8056986174
H       -1.8367081740   -1.9222110276    1.0651710455
H       -2.5034120517    0.1640875571    0.1147905441
H       -1.0955305966    1.9419087084   -0.5942551389
C        1.5853064808    1.3640648835   -1.2391224048
H        1.8670884455    2.1954215995   -1.8642358300
