13   
From optimize.out: Frame 1 / 2, Energy=    -286.8505297448
C       -0.0692570000    0.0429130000    0.0000000000
C       -0.1032070000   -0.1674400000   -0.0000000000
C       -0.1986770000    1.0402720000   -0.0000000000
C       -0.1428180000    0.0001990000    0.0000000000
C        0.0557880000    0.0048690000   -0.0000000000
N       -0.3776770000   -0.0035930000   -0.0000000000
H        0.1812170000   -0.0043740000    0.0000000000
H        0.1640240000    0.0787460000   -0.0000000000
H        0.1639620000    0.0049360000   -0.0000000000
H        0.1401600000    0.0001420000    0.0000000000
H        0.1436080000   -0.0001390000   -0.0000000000
C       -0.1103400000    0.0029990000    0.0000000000
H        0.1532170000    0.0004710000    0.0000000000
