13   
From optimize.out: Frame 2 / 3, Energy=    -286.8584653799
C        1.5751877236    0.4456964295   -0.0859246270
C        0.8224775221   -0.8153030354    0.1174561384
C       -0.5187162062   -0.9686041869   -0.5830774992
C       -1.1193980815    0.3160409781   -0.0361673903
C       -0.3701428071    1.5789271588   -0.2388473708
N        0.9609130039    1.6141495743   -0.2598457188
H        2.6634259738    0.4386562133   -0.0979529891
H        1.4063163589   -1.7246875642    0.2497027670
H       -0.9207244973   -1.7424615602   -1.2221101752
H       -2.2063341362    0.3789713473   -0.0331540677
H       -0.9040697882    2.5169144806   -0.3782928638
C       -0.5024268939   -0.7468623541    0.8584352223
H       -0.8865081718   -1.2914374808    1.7097785743
13   
From optimize.out: Frame 1 / 3, Energy=    -286.8584556587
C        1.5752030764    0.4474341082   -0.0900452792
C        0.8186308590   -0.8071048402    0.1398151797
C       -0.5112370121   -0.9858609702   -0.5668533260
C       -1.1200326217    0.3133777264   -0.0032595722
C       -0.3681940733    1.5673972090   -0.2636295767
N        0.9633164040    1.6053736277   -0.3053059870
H        2.6626239116    0.4357702394   -0.1002254873
H        1.4030608622   -1.7107145282    0.3003786580
H       -0.9238111428   -1.6528293698   -1.3104824193
H       -2.2084594778    0.3641005449   -0.0022163575
H       -0.8988120064    2.5064255730   -0.3976376361
C       -0.5193957623   -0.7679984423    0.8680839655
H       -0.8728930168   -1.3153708778    1.7313778381
13   
From optimize.out: Frame 33 / 34, Energy=    -286.8584556587
C        1.5745573859    0.4455912159   -0.1085244018
C        0.8276648686   -0.8104539751    0.1458749597
C       -0.4986817759   -1.0162970337   -0.5297933458
C       -1.1053575298    0.3062260276    0.0197749730
C       -0.3733385881    1.5535892907   -0.2980955787
N        0.9580620939    1.5911382669   -0.3703848540
H        2.6617517914    0.4487184193   -0.0696937541
H        1.4214093626   -1.7054498337    0.3299562119
H       -0.9547682727   -1.5367632880   -1.3560565210
H       -2.1939504111    0.3579553923    0.0129059694
H       -0.9041279524    2.4969004493   -0.4051314795
C       -0.5209504382   -0.7697877981    0.9003237082
H       -0.8922705341   -1.3613671334    1.7288441127
13   
From optimize.out: Frame 31 / 34, Energy=    -286.8584370224
C        1.5640439980    0.4385302163   -0.1255630366
C        0.8359344596   -0.8242402457    0.1160226182
C       -0.5079412225   -1.0588379686   -0.4660450191
C       -1.0911256244    0.2975788020    0.0329659126
C       -0.3792381582    1.5390050314   -0.3307536250
N        0.9512159822    1.5816192140   -0.4204764236
H        2.6460795054    0.4615419563   -0.0204219843
H        1.4379609377   -1.7084935656    0.3172642967
H       -0.9574666975   -1.4257584385   -1.3722719881
H       -2.1795581686    0.3479338742   -0.0014926782
H       -0.9002548714    2.4908091793   -0.4045468842
C       -0.5154712299   -0.7462120282    0.9470447723
H       -0.9041789105   -1.3934760269    1.7282740393
13   
From optimize.out: Frame 29 / 34, Energy=    -286.8583943354
C        1.5529705620    0.4188738278   -0.1364698953
C        0.8443209319   -0.8447262301    0.0562309965
C       -0.5305844803   -1.0899278270   -0.3931174142
C       -1.1008071933    0.2954179740    0.0351174587
C       -0.3883276849    1.5256554338   -0.3359666196
N        0.9375613955    1.5724391545   -0.4236129398
H        2.6286757255    0.4565151566    0.0108009397
H        1.4463623498   -1.7280715127    0.2583986696
H       -0.8940501253   -1.3741592318   -1.3672347997
H       -2.1855317476    0.3437967635   -0.0527727100
H       -0.8953450954    2.4876434194   -0.3871836577
C       -0.5113168557   -0.6891546629    0.9938286741
H       -0.9039277822   -1.3743022650    1.7419812976
13   
From optimize.out: Frame 26 / 34, Energy=    -286.8581878949
C        1.5546891424    0.4016415004   -0.1410421760
C        0.8708441719   -0.8580350903   -0.0048764855
C       -0.5260316199   -1.1068174266   -0.3487120074
C       -1.1236675336    0.2935121984    0.0310669291
C       -0.3912337940    1.5173122522   -0.3132836042
N        0.9266886470    1.5693121920   -0.3831386585
H        2.6283109678    0.4479110944    0.0119384676
H        1.4789171363   -1.7409674785    0.1815903313
H       -0.8678045965   -1.3872711928   -1.3320421095
H       -2.2011183200    0.3243862336   -0.1176782899
H       -0.8871316723    2.4866773172   -0.3638336805
C       -0.5283681053   -0.6244951945    1.0247839524
H       -0.9340944237   -1.3231664056    1.7552273312
13   
From optimize.out: Frame 24 / 34, Energy=    -286.8577421206
C        1.5592536900    0.3846400129   -0.1393267551
C        0.8992537610   -0.8717210866   -0.0540333778
C       -0.5166025099   -1.1220357339   -0.3211122314
C       -1.1521889080    0.2917385986    0.0286099157
C       -0.3953436874    1.5097565774   -0.2881199395
N        0.9166928373    1.5614028884   -0.3345442291
H        2.6336525602    0.4374860177    0.0052444937
H        1.5195915908   -1.7534258249    0.1015044603
H       -0.8469535687   -1.4070298952   -1.3085635122
H       -2.2207848231    0.3026605845   -0.1733068349
H       -0.8806475441    2.4853323632   -0.3468572348
C       -0.5489377604   -0.5573053311    1.0557017665
H       -0.9669856379   -1.2614991706    1.7748034786
13   
From optimize.out: Frame 22 / 34, Energy=    -286.8528959086
C        1.5588136830    0.3673323509   -0.1303149221
C        0.9176139202   -0.8886455984   -0.0962806708
C       -0.5100458643   -1.1427951355   -0.2999937293
C       -1.1828359126    0.2914381854    0.0229193502
C       -0.4024708174    1.5035755163   -0.2632766721
N        0.9060964033    1.5507927099   -0.2818231912
H        2.6346533081    0.4244793718    0.0032242767
H        1.5521560159   -1.7674713765    0.0230413237
H       -0.8290938964   -1.4347360612   -1.2914565970
H       -2.2396443289    0.2799973395   -0.2310905025
H       -0.8735963855    2.4869472937   -0.3268752198
C       -0.5559043792   -0.4788286569    1.0806743667
H       -0.9757417463   -1.1920859392    1.7912521874
13   
From optimize.out: Frame 20 / 34, Energy=    -286.8462926905
C        1.5508990607    0.3492188253   -0.1156405886
C        0.9235635526   -0.9118425959   -0.1273618864
C       -0.5019348103   -1.1739145251   -0.2976390891
C       -1.2146854525    0.2927781073    0.0145368398
C       -0.4114881783    1.5020074515   -0.2389805328
N        0.8954143407    1.5402129568   -0.2306540895
H        2.6274008267    0.4090975683    0.0113936377
H        1.5728382110   -1.7844896193   -0.0360134541
H       -0.8242918553   -1.4722067253   -1.2871624663
H       -2.2585776881    0.2545556763   -0.2822105353
H       -0.8673769074    2.4937409162   -0.2997032754
C       -0.5413238259   -0.3873405524    1.0896527760
H       -0.9504372740   -1.1118174836    1.7997826641
13   
From optimize.out: Frame 19 / 34, Energy=    -286.8428711912
C        1.5412062587    0.3307158645   -0.1008833547
C        0.9269382525   -0.9401114322   -0.1510025833
C       -0.4903561766   -1.2140568382   -0.3150496332
C       -1.2466512859    0.2971055669    0.0073439324
C       -0.4206154420    1.5065038409   -0.2159594366
N        0.8854288239    1.5312302695   -0.1870946499
H        2.6176204980    0.3950024839    0.0271261135
H        1.5895438785   -1.8051162725   -0.0706791871
H       -0.8298653646   -1.5194546797   -1.2994058174
H       -2.2807495202    0.2339524512   -0.3152370989
H       -0.8659503977    2.5045000858   -0.2681072123
C       -0.5152308033   -0.2949490345    1.0856182344
H       -0.9113187214   -1.0253223057    1.8033306930
13   
From optimize.out: Frame 17 / 34, Energy=    -286.8334788919
C        1.5339443057    0.3114226835   -0.0880082972
C        0.9330527260   -0.9713762029   -0.1682635274
C       -0.4797947237   -1.2572198995   -0.3418846643
C       -1.2777491668    0.3050551706    0.0010009031
C       -0.4311327515    1.5167855380   -0.1951347691
N        0.8754565932    1.5248730595   -0.1517716345
H        2.6101436708    0.3830845296    0.0476115013
H        1.6052377080   -1.8303675261   -0.0823156365
H       -0.8431768143   -1.5759118979   -1.3221970172
H       -2.3067934362    0.2221928465   -0.3319346571
H       -0.8712123172    2.5186806271   -0.2335081394
C       -0.4824240529   -0.2084246481    1.0687850523
H       -0.8655517409   -0.9387942803    1.7976208860
13   
From optimize.out: Frame 15 / 34, Energy=    -286.8212172670
C        1.5307692108    0.2915248020   -0.0751223588
C        0.9422702542   -1.0023030524   -0.1804056084
C       -0.4734353351   -1.2967597956   -0.3684616886
C       -1.3067544565    0.3143597498   -0.0058292606
C       -0.4443418275    1.5294254208   -0.1775988679
N        0.8652953071    1.5194804099   -0.1212764886
H        2.6068248596    0.3718795691    0.0729341625
H        1.6201556847   -1.8580317680   -0.0797956995
H       -0.8662962458   -1.6350343282   -1.3477447775
H       -2.3340579047    0.2149343492   -0.3399034800
H       -0.8824484656    2.5335472189   -0.1992297457
C       -0.4451326182   -0.1279643573    1.0412757558
H       -0.8128484629   -0.8550582183    1.7811580572
13   
From optimize.out: Frame 13 / 34, Energy=    -286.8048234795
C        1.5343487643    0.2717053570   -0.0607317467
C        0.9544702663   -1.0299043402   -0.1874768385
C       -0.4715171075   -1.3277352692   -0.3912017170
C       -1.3334284754    0.3231108688   -0.0134042260
C       -0.4610268963    1.5407748232   -0.1644512832
N        0.8555705782    1.5100524413   -0.0931292898
H        2.6101955839    0.3610520916    0.1024372781
H        1.6342063593   -1.8854271071   -0.0677858391
H       -0.9018066258   -1.6909388073   -1.3750686558
H       -2.3613378836    0.2085162530   -0.3419275973
H       -0.9004884546    2.5453049091   -0.1673332407
C       -0.4054233575   -0.0531018305    1.0049632846
H       -0.7537627513   -0.7734093897    1.7551098713
13   
From optimize.out: Frame 11 / 34, Energy=    -286.7859313292
C        1.5532221385    0.2555444801   -0.0479245369
C        0.9717926677   -1.0541784280   -0.1897172380
C       -0.4741181169   -1.3483622178   -0.4090648462
C       -1.3614657087    0.3306287618   -0.0206900890
C       -0.4816583430    1.5492418911   -0.1531582668
N        0.8474454308    1.4927453007   -0.0668897716
H        2.6303545404    0.3539592581    0.1309541798
H        1.6513299758   -1.9124860720   -0.0475452265
H       -0.9514109041   -1.7417832260   -1.4047090270
H       -2.3919261303    0.2020318510   -0.3420914180
H       -0.9267371123    2.5525896147   -0.1374524240
C       -0.3691479669    0.0147985610    0.9669468760
H       -0.6976804709   -0.6947297748    1.7213417882
13   
From optimize.out: Frame 9 / 34, Energy=    -286.7646887803
C        1.5641582455    0.2469192450   -0.0290404244
C        0.9779560821   -1.0809920528   -0.1894479588
C       -0.4748588680   -1.3650665954   -0.4320605337
C       -1.3774242579    0.3450117839   -0.0286320994
C       -0.4992921692    1.5639203533   -0.1628099227
N        0.8414986928    1.4805566091   -0.0513420652
H        2.6382364023    0.3502871922    0.1755784318
H        1.6625533634   -1.9337570487   -0.0211353941
H       -1.0140834748   -1.7813700579   -1.4228533544
H       -2.4206382546    0.1888686416   -0.3192652497
H       -0.9414934588    2.5670450333   -0.1263720293
C       -0.3235326205    0.0686667612    0.9356362697
H       -0.6330796823   -0.6500898648    1.6717443304
13   
From optimize.out: Frame 8 / 34, Energy=    -286.7510723139
C        1.5650755407    0.2474090390   -0.0183079734
C        0.9649802480   -1.1137047333   -0.2181155577
C       -0.4515014839   -1.3946238675   -0.4781997306
C       -1.3745355738    0.3757355644   -0.0394683784
C       -0.5150419520    1.5995577205   -0.1998322136
N        0.8552609662    1.4805862773   -0.0486464581
H        2.6146507072    0.3471543819    0.2438866023
H        1.6717740400   -1.9327285761   -0.0459981128
H       -1.0384184443   -1.8017440806   -1.4090132537
H       -2.4415889753    0.1362912848   -0.2423114160
H       -0.9201838986    2.6067137945   -0.1550307838
C       -0.3078197056    0.1126895779    0.9626397843
H       -0.6226514687   -0.6633363828    1.6483974916
13   
From optimize.out: Frame 4 / 34, Energy=    -286.6659657553
C        1.5561754077    0.2441275244   -0.0092732288
C        0.9488235448   -1.1380617872   -0.2543553757
C       -0.4328858246   -1.4148988518   -0.5350884200
C       -1.3665149301    0.4033402769   -0.0582796433
C       -0.5284920526    1.6351543330   -0.2374939284
N        0.8618806921    1.4843684485   -0.0479644518
H        2.5809163637    0.3386973679    0.3119015616
H        1.6705386572   -1.9326739623   -0.0956470261
H       -1.0186056121   -1.8085949090   -1.3649559862
H       -2.4369311682    0.0998941959   -0.1658478294
H       -0.9002964221    2.6449316597   -0.1914066654
C       -0.3160168856    0.1366026384    0.9856065245
H       -0.6185917702   -0.6928869345    1.6628044688
13   
From optimize.out: Frame 2 / 34, Energy=    -286.6015441328
C        1.5387268118    0.2398000721    0.0010043889
C        0.9325239726   -1.1541873238   -0.2900033099
C       -0.4150011068   -1.4265992904   -0.5887097578
C       -1.3549013544    0.4258009226   -0.0752519075
C       -0.5389691477    1.6682531926   -0.2709821055
N        0.8610934358    1.4921602336   -0.0479628562
H        2.5474639938    0.3275999206    0.3788340777
H        1.6699036023   -1.9370583179   -0.1564641000
H       -0.9898943684   -1.8294846960   -1.3290267007
H       -2.4105565668    0.0796763743   -0.0920793629
H       -0.8871676265    2.6851124308   -0.2312766946
C       -0.3383030407    0.1480418145    1.0095301078
H       -0.6149186052   -0.7191153331    1.6923882208
13   
C5H5N+CH->C6H6N atoms 1-13 frame 104 charge -0.000 sz -1.000 sz^2 0.527
C        1.5156439974    0.2366418020    0.0156708591
C        0.9189863811   -1.1636758482   -0.3210040053
C       -0.3926772190   -1.4305860051   -0.6327561093
C       -1.3385661979    0.4440600330   -0.0859924970
C       -0.5456558245    1.6994223769   -0.2992001435
N        0.8554283533    1.5043818134   -0.0471413215
H        2.5147512997    0.3159489710    0.4461314832
H        1.6749132729   -1.9431965052   -0.2211942350
H       -0.9777856819   -1.8827564652   -1.3255731847
H       -2.3706206412    0.0724416281   -0.0200185416
H       -0.8798113856    2.7271054926   -0.2731262468
C       -0.3672230088    0.1528628245    1.0384158022
H       -0.6073833455   -0.7326501178    1.7257881402
13   
C5H5N+CH->C6H6N atoms 1-13 frame 105 charge +0.000 sz -1.000 sz^2 0.523
C        1.4899533065    0.2348220201    0.0346130498
C        0.9100235777   -1.1680667470   -0.3459988396
C       -0.3673222823   -1.4281692601   -0.6664958843
C       -1.3179983833    0.4583552075   -0.0894382199
C       -0.5476296260    1.7274616377   -0.3206196035
N        0.8473822859    1.5195184703   -0.0449954892
H        2.4811775096    0.3038665213    0.5085082265
H        1.6839468509   -1.9473061980   -0.2849450042
H       -0.9818631653   -1.9620499847   -1.3491151502
H       -2.3281490618    0.0762399647    0.0449221428
H       -0.8758416236    2.7654139926   -0.3132811591
C       -0.3972511572    0.1531941738    1.0709212410
H       -0.5964282311   -0.7332797983    1.7559246899
13   
C5H5N+CH->C6H6N atoms 1-13 frame 107 charge -0.000 sz -1.000 sz^2 0.512
C        1.4611184801    0.2326011038    0.0570382816
C        0.9047715792   -1.1699363158   -0.3685591489
C       -0.3424626253   -1.4221172051   -0.6967399851
C       -1.2934395899    0.4699619273   -0.0870735317
C       -0.5450947021    1.7531755697   -0.3368150282
N        0.8379195184    1.5361156173   -0.0421143311
H        2.4423829304    0.2887892899    0.5648440417
H        1.6931286386   -1.9475895604   -0.3511567781
H       -0.9841944983   -2.0504236522   -1.3772839636
H       -2.2895200671    0.0891429216    0.1022972314
H       -0.8726786795    2.7977555724   -0.3521517083
C       -0.4277414900    0.1494531033    1.1061083108
H       -0.5841894947   -0.7269283719    1.7816066095
13   
C5H5N+CH->C6H6N atoms 1-13 frame 109 charge +0.000 sz -1.000 sz^2 0.500
C        1.4272254976    0.2284196922    0.0828161671
C        0.9029520068   -1.1707934734   -0.3917113295
C       -0.3208406334   -1.4144413373   -0.7288000801
C       -1.2643211404    0.4795802699   -0.0793725099
C       -0.5377678958    1.7772775957   -0.3493165666
N        0.8271313356    1.5536336331   -0.0395309802
H        2.3946820097    0.2684873117    0.6151774274
H        1.6999714814   -1.9426833672   -0.4240539356
H       -0.9706948549   -2.1352523867   -1.3948442681
H       -2.2575867382    0.1113137823    0.1522127043
H       -0.8688353011    2.8229309233   -0.3918518447
C       -0.4593074493    0.1414517599    1.1440814576
H       -0.5726083179   -0.7199244035    1.8051937584
13   
C5H5N+CH->C6H6N atoms 1-13 frame 111 charge +0.000 sz -1.000 sz^2 0.507
C        1.3877429588    0.2215588643    0.1109432344
C        0.9049527158   -1.1711708728   -0.4163952927
C       -0.3052353413   -1.4067338873   -0.7643779841
C       -1.2313156147    0.4871142277   -0.0662950236
C       -0.5254512773    1.7990668459   -0.3587914796
N        0.8154679571    1.5713589792   -0.0386656716
H        2.3384893770    0.2430423509    0.6579078643
H        1.7034261852   -1.9317321386   -0.5033270123
H       -0.9350076686   -2.2052248045   -1.3934946278
H       -2.2342926185    0.1433691881    0.1918288079
H       -0.8639018483    2.8393457426   -0.4332446720
C       -0.4908284407    0.1297963993    1.1835579787
H       -0.5640463844   -0.7197908949    1.8303538783
13   
C5H5N+CH->C6H6N atoms 1-13 frame 113 charge +0.000 sz -1.000 sz^2 0.537
C        1.3437667176    0.2121748751    0.1394289996
C        0.9106628149   -1.1710228679   -0.4420492456
C       -0.2978586473   -1.4002405549   -0.8022304521
C       -1.1967800856    0.4920599831   -0.0479088490
C       -0.5087854782    1.8168951507   -0.3653778333
N        0.8038007914    1.5882677437   -0.0409472373
H        2.2787017023    0.2149010241    0.6912925950
H        1.7042008722   -1.9154232704   -0.5847503192
H       -0.8787948109   -2.2518424738   -1.3709533928
H       -2.2199251681    0.1851868799    0.2169632699
H       -0.8586533967    2.8461716041   -0.4756487568
C       -0.5197056845    0.1159583755    1.2221090098
H       -0.5606296271   -0.7330864693    1.8600722119
13   
C5H5N+CH->C6H6N atoms 1-13 frame 114 charge +0.000 sz -1.000 sz^2 0.555
C        1.2970550783    0.2010846460    0.1666528056
C        0.9187612981   -1.1700769715   -0.4677978445
C       -0.2985993959   -1.3954118526   -0.8397566352
C       -1.1634531294    0.4941823298   -0.0245089617
C       -0.4893914425    1.8296632157   -0.3691661466
N        0.7930005917    1.6036716062   -0.0469443778
H        2.2218991888    0.1874998422    0.7163649369
H        1.7048283320   -1.8961173625   -0.6639113830
H       -0.8110825389   -2.2754103692   -1.3320487177
H       -2.2119211081    0.2352101645    0.2262822515
H       -0.8546473057    2.8447542436   -0.5178267845
C       -0.5435950596    0.1014140247    1.2583078408
H       -0.5628545085   -0.7604635170    1.8943530161
13   
C5H5N+CH->C6H6N atoms 1-13 frame 118 charge +0.000 sz -1.000 sz^2 0.708
C        1.2482580777    0.1890700078    0.1929547363
C        0.9276921124   -1.1678443354   -0.4936091316
C       -0.3052501408   -1.3914100930   -0.8751908730
C       -1.1323403276    0.4938111312    0.0043262343
C       -0.4685554676    1.8376739374   -0.3700325737
N        0.7836450011    1.6178870071   -0.0561379399
H        2.1715190384    0.1630262463    0.7367220922
H        1.7082409795   -1.8755840624   -0.7401598339
H       -0.7424262272   -2.2861888910   -1.2854730716
H       -2.2063263648    0.2922883076    0.2218813817
H       -0.8530903206    2.8373530304   -0.5592268256
C       -0.5615991859    0.0865156241    1.2933022544
H       -0.5697671746   -0.7965979101    1.9306435505
13   
C5H5N+CH->C6H6N atoms 1-13 frame 120 charge +0.000 sz -1.000 sz^2 0.858
C        1.1970311924    0.1766197833    0.2200449963
C        0.9365275580   -1.1633475889   -0.5201763247
C       -0.3156371647   -1.3863123300   -0.9076975063
C       -1.1031828201    0.4915499765    0.0402839906
C       -0.4466176362    1.8417000649   -0.3671699309
N        0.7766748744    1.6318124627   -0.0676899030
H        2.1280096974    0.1426850539    0.7556355355
H        1.7166808862   -1.8534274237   -0.8150795093
H       -0.6817831374   -2.2987580821   -1.2395930804
H       -2.1997078290    0.3570584289    0.2053812336
H       -0.8544308554    2.8250031421   -0.5994591424
C       -0.5728862674    0.0708353060    1.3293419637
H       -0.5806784983   -0.8354187937    1.9661776772
13   
C5H5N+CH->C6H6N atoms 1-13 frame 122 charge +0.000 sz -1.000 sz^2 1.014
C        1.1440561971    0.1642262439    0.2496433652
C        0.9444284256   -1.1553724340   -0.5481453470
C       -0.3277395079   -1.3777997519   -0.9363560209
C       -1.0760752556    0.4882292694    0.0848586178
C       -0.4241492545    1.8424753700   -0.3595253527
N        0.7740704313    1.6460999466   -0.0804740315
H        2.0906591557    0.1277037899    0.7750719266
H        1.7310075100   -1.8276643457   -0.8889951710
H       -0.6379626815   -2.3281653016   -1.2025725958
H       -2.1889107137    0.4292742707    0.1779518778
H       -0.8583514187    2.8076341131   -0.6369323369
C       -0.5758818745    0.0539271565    1.3677977902
H       -0.5951510132   -0.8705683268    1.9976772781
13   
C5H5N+CH->C6H6N atoms 1-13 frame 123 charge +0.000 sz -1.000 sz^2 1.071
C        1.0919194407    0.1520542367    0.2822321831
C        0.9503379269   -1.1436229355   -0.5776262649
C       -0.3398966561   -1.3654795046   -0.9602551600
C       -1.0521868708    0.4844009402    0.1374440426
C       -0.4029554746    1.8400913468   -0.3472172791
N        0.7783761508    1.6601829395   -0.0936957948
H        2.0576805585    0.1187386295    0.7952079065
H        1.7495555989   -1.7960858104   -0.9593232580
H       -0.6157905628   -2.3781154514   -1.1788315769
H       -2.1715459292    0.5047694998    0.1418284710
H       -0.8639673926    2.7840703004   -0.6694962558
C       -0.5690319208    0.0355356697    1.4077786674
H       -0.6124948687   -0.8965398606    2.0219543189
13   
C5H5N+CH->C6H6N atoms 1-13 frame 125 charge -0.000 sz -1.000 sz^2 1.129
C        1.0426587671    0.1393391982    0.3175446406
C        0.9535036367   -1.1292011930   -0.6088661073
C       -0.3513840921   -1.3521674179   -0.9798580452
C       -1.0324301365    0.4800223667    0.1960345507
C       -0.3850799450    1.8338091612   -0.3323191852
N        0.7913045465    1.6726240260   -0.1082144357
H        2.0252688241    0.1144836838    0.8157034730
H        1.7688234234   -1.7569881150   -1.0236462516
H       -0.6115519219   -2.4342171084   -1.1656620156
H       -2.1465367732    0.5772249061    0.1004841225
H       -0.8704916421    2.7520881098   -0.6976738599
C       -0.5521410669    0.0153764478    1.4473706726
H       -0.6319436202   -0.9123940656    2.0391024410
13   
C5H5N+CH->C6H6N atoms 1-13 frame 127 charge +0.000 sz -1.000 sz^2 1.140
C        0.9972312615    0.1250609704    0.3557124315
C        0.9532032443   -1.1129340510   -0.6426577216
C       -0.3620368678   -1.3413222354   -0.9960650763
C       -1.0174670502    0.4754177467    0.2596198521
C       -0.3717924734    1.8221843953   -0.3172514808
N        0.8147200208    1.6820698333   -0.1265977443
H        1.9897756130    0.1130493457    0.8373760739
H        1.7858382288   -1.7081318724   -1.0804609163
H       -0.6207918216   -2.4772660484   -1.1594006309
H       -2.1129229990    0.6403606712    0.0570942408
H       -0.8777767954    2.7088051598   -0.7241509541
C       -0.5244397828   -0.0064440076    1.4847252100
H       -0.6535405783   -0.9208499076    2.0520567162
13   
C5H5N+CH->C6H6N atoms 1-13 frame 129 charge -0.000 sz -1.000 sz^2 1.117
C        0.9576456698    0.1090680079    0.3958871997
C        0.9485164846   -1.0953278691   -0.6788441768
C       -0.3714310608   -1.3358820734   -1.0095471338
C       -1.0082873802    0.4724893134    0.3256091994
C       -0.3632279486    1.8042117114   -0.3047442123
N        0.8494543946    1.6873525964   -0.1518375309
H        1.9505051692    0.1121252489    0.8621485329
H        1.7983705253   -1.6488249435   -1.1274544722
H       -0.6405270064   -2.4895663289   -1.1581013274
H       -2.0718557804    0.6854532182    0.0171723485
H       -0.8860011512    2.6539574613   -0.7521692394
C       -0.4857034275   -0.0280917290    1.5165902260
H       -0.6774584884   -0.9269646137    2.0652905863
13   
C5H5N+CH->C6H6N atoms 1-13 frame 131 charge +0.000 sz -1.000 sz^2 1.097
C        0.9267338624    0.0925189010    0.4355285632
C        0.9389580158   -1.0769828490   -0.7151055913
C       -0.3788255391   -1.3371356757   -1.0207349907
C       -1.0056115061    0.4742949504    0.3887004009
C       -0.3576457203    1.7805833117   -0.2970247401
N        0.8926511692    1.6878719647   -0.1850131876
H        1.9119367354    0.1090599336    0.8921265640
H        1.8063073069   -1.5827845105   -1.1626675163
H       -0.6681840715   -2.4627907468   -1.1614822304
H       -2.0293688011    0.7039094625   -0.0113142449
H       -0.8955307365    2.5924647409   -0.7838813684
C       -0.4386833066   -0.0464173920    1.5390668767
H       -0.7027374084   -0.9345920908    2.0818014649
13   
C5H5N+CH->C6H6N atoms 1-13 frame 133 charge -0.000 sz -1.000 sz^2 1.068
C        0.9130495090    0.0786113973    0.4650523078
C        0.9282542692   -1.0570767841   -0.7324691345
C       -0.3773751794   -1.3380795405   -1.0232079012
C       -1.0172313517    0.4825298804    0.4336330796
C       -0.3542688239    1.7455493903   -0.2940178114
N        0.9305128232    1.6676528588   -0.2209817748
H        1.8909524033    0.1044976751    0.9213729824
H        1.8137233883   -1.5198698871   -1.1697296087
H       -0.7038282387   -2.4024999453   -1.1754060275
H       -2.0136118809    0.6979248644   -0.0127898026
H       -0.9026892775    2.5318061408   -0.8106720827
C       -0.3912183264   -0.0540778320    1.5360786925
H       -0.7162693146   -0.9369682182    2.0831370810
13   
C5H5N+CH->C6H6N atoms 1-13 frame 134 charge +0.000 sz -1.000 sz^2 1.062
C        0.9285181879    0.0760795201    0.4657339473
C        0.9244273394   -1.0376980644   -0.6988773085
C       -0.3613770797   -1.3241635102   -1.0036778379
C       -1.0499486254    0.4905521079    0.4292051661
C       -0.3568220147    1.6971439227   -0.2947951805
N        0.9329673265    1.6046066072   -0.2367072313
H        1.9080260986    0.1080385876    0.9292286671
H        1.8202041189   -1.4866150432   -1.1233668376
H       -0.7419758879   -2.3405896171   -1.1987801444
H       -2.0589774598    0.6904608416    0.0216484866
H       -0.8953813353    2.4916840819   -0.8120798653
C       -0.3607265930   -0.0434124507    1.4862426295
H       -0.6889340755   -0.9260869833    2.0362255088
13   
C5H5N+CH->C6H6N atoms 1-13 frame 136 charge -0.000 sz -1.000 sz^2 1.038
C        0.9492524269    0.0815802117    0.4627885527
C        0.9204786600   -1.0230703650   -0.6562218114
C       -0.3498954917   -1.3057140266   -0.9802286728
C       -1.0818360376    0.4938401621    0.4101164732
C       -0.3618820966    1.6525250316   -0.3002334148
N        0.9225043402    1.5380033520   -0.2397081549
H        1.9294569844    0.1201988146    0.9349515264
H        1.8203626956   -1.4715314973   -1.0717408077
H       -0.7816317740   -2.2839798655   -1.2207586901
H       -2.1086989590    0.6855260877    0.0594605349
H       -0.8801684866    2.4622272757   -0.8149631827
C       -0.3347081060   -0.0322575482    1.4314701776
H       -0.6432341556   -0.9173476327    1.9850674695
13   
C5H5N+CH->C6H6N atoms 1-13 frame 140 charge +0.000 sz -1.000 sz^2 0.990
C        0.9710336924    0.0925136922    0.4668993105
C        0.9155241943   -1.0163084380   -0.6157884948
C       -0.3429043270   -1.2860367745   -0.9606288334
C       -1.1116704764    0.4944319148    0.3936751820
C       -0.3681661250    1.6109704296   -0.3122478547
N        0.9114206354    1.4776757700   -0.2445513833
H        1.9489820428    0.1382545650    0.9498435661
H        1.8170939409   -1.4682104289   -1.0242589243
H       -0.8261164584   -2.2176977134   -1.2540092292
H       -2.1534088543    0.6772155810    0.1047539278
H       -0.8638285191    2.4314676224   -0.8318472382
C       -0.3079095853   -0.0236173901    1.3828119409
H       -0.5900501604   -0.9106588300    1.9453480304
13   
C5H5N+CH->C6H6N atoms 1-13 frame 142 charge -0.000 sz -1.000 sz^2 0.961
C        0.9939252087    0.1070296782    0.4759344396
C        0.9105710595   -1.0193180616   -0.5782952556
C       -0.3374228199   -1.2676277840   -0.9484532298
C       -1.1379740468    0.4939046261    0.3827602078
C       -0.3762486950    1.5750749931   -0.3302085793
N        0.9001463413    1.4309901074   -0.2561956549
H        1.9669171478    0.1559429499    0.9721407880
H        1.8125393389   -1.4784776907   -0.9783554415
H       -0.8659209719   -2.1442638382   -1.3073705240
H       -2.1926525522    0.6698535171    0.1648461514
H       -0.8524765660    2.3993104828   -0.8616332871
C       -0.2855944170   -0.0184049590    1.3430550742
H       -0.5358090275   -0.9040140211    1.9217753112
13   
C5H5N+CH->C6H6N atoms 1-13 frame 143 charge +0.000 sz -1.000 sz^2 0.946
C        1.0136809502    0.1241619508    0.4838364412
C        0.9044885740   -1.0291592703   -0.5477030230
C       -0.3302868138   -1.2667627285   -0.9471834822
C       -1.1621625976    0.5009389936    0.3778789749
C       -0.3863339478    1.5504940690   -0.3497143412
N        0.8884750626    1.4012827821   -0.2727475169
H        1.9780388790    0.1640363325    0.9975042314
H        1.8094741784   -1.4973259627   -0.9310327206
H       -0.8797415291   -2.0885890137   -1.3857287925