13   
From optimize.out: Frame 33 / 34, Energy=    -286.8584556587
C        1.5748599053    0.4457949738   -0.0860317622
C        0.8229557593   -0.8160969868    0.1166120050
C       -0.5200598419   -0.9688885888   -0.5830004170
C       -1.1192044585    0.3159568790   -0.0355108530
C       -0.3703706087    1.5798969100   -0.2390095761
N        0.9608892206    1.6152682476   -0.2557641101
H        2.6628065437    0.4376265632   -0.0979064375
H        1.4076710846   -1.7255910359    0.2501101110
H       -0.9239840208   -1.7415043410   -1.2229397507
H       -2.2059505343    0.3777711622   -0.0368483990
H       -0.9048727448    2.5181695490   -0.3803360835
C       -0.5012349421   -0.7476811506    0.8586617756
H       -0.8835053624   -1.2907221814    1.7119634976
13   
From optimize.out: Frame 31 / 34, Energy=    -286.8584370224
C        1.5753259923    0.4479721170   -0.0858463735
C        0.8170210068   -0.8065666248    0.1353231717
C       -0.5151792190   -0.9792046980   -0.5751037873
C       -1.1235339942    0.3149550981   -0.0092610029
C       -0.3668260372    1.5706456679   -0.2548933513
N        0.9647172346    1.6092053555   -0.2884774640
H        2.6625531152    0.4332799603   -0.1065086607
H        1.3990842344   -1.7119037557    0.2907924303
H       -0.9159630073   -1.6824809965   -1.2972383581
H       -2.2119701915    0.3654364837   -0.0073157108
H       -0.8966491428    2.5088997378   -0.3953657859
C       -0.5192601318   -0.7664154720    0.8616969489
H       -0.8693198596   -1.3038228734    1.7321979437
13   
From optimize.out: Frame 29 / 34, Energy=    -286.8583943354
C        1.5748219150    0.4458973841   -0.1025053226
C        0.8234107897   -0.8086711057    0.1529947426
C       -0.4996131001   -1.0054911724   -0.5425195043
C       -1.1097162543    0.3086922955    0.0145105846
C       -0.3722908060    1.5578131951   -0.2893309933
N        0.9591192614    1.5941108225   -0.3549464281
H        2.6628139961    0.4431971222   -0.0818348495
H        1.4148569900   -1.7071730628    0.3285244282
H       -0.9469811497   -1.5653777332   -1.3495312650
H       -2.1981170606    0.3600942877    0.0129563625
H       -0.9052884741    2.4991124901   -0.4042202356
C       -0.5197233358   -0.7727054584    0.8869287345
H       -0.8832927716   -1.3494990647    1.7289737460
13   
From optimize.out: Frame 28 / 34, Energy=    -286.8583509999
C        1.5742001915    0.4452596866   -0.1162415262
C        0.8331049140   -0.8126929318    0.1367711187
C       -0.4974898507   -1.0300309030   -0.5136223301
C       -1.0998299953    0.3030538346    0.0265252610
C       -0.3747392278    1.5482165208   -0.3091783712
N        0.9566445074    1.5874033267   -0.3900127647
H        2.6603831611    0.4558271976   -0.0543957828
H        1.4298098151   -1.7032177893    0.3316671512
H       -0.9646760779   -1.5004172496   -1.3643296967
H       -2.1886690685    0.3551611109    0.0129608652
H       -0.9027616630    2.4940671600   -0.4061908590
C       -0.5224365885   -0.7661184037    0.9173506890
H       -0.9035401173   -1.3765115600    1.7286962457
13   
From optimize.out: Frame 26 / 34, Energy=    -286.8581878949
C        1.5632199312    0.4380339561   -0.1263422297
C        0.8361836705   -0.8251414316    0.1143375949
C       -0.5087602933   -1.0611427831   -0.4622492795
C       -1.0904380893    0.2971146433    0.0335109892
C       -0.3796438803    1.5382645673   -0.3324477673
N        0.9507327399    1.5811862067   -0.4229133986
H        2.6449268590    0.4620638864   -0.0177765605
H        1.4386617771   -1.7088817797    0.3160602079
H       -0.9568918717   -1.4198142235   -1.3728957346
H       -2.1788403644    0.3473032068   -0.0025849658
H       -0.9001276085    2.4905312512   -0.4043657875
C       -0.5148726269   -0.7446476506    0.9494180152
H       -0.9041502433   -1.3948698493    1.7282489164
13   
From optimize.out: Frame 24 / 34, Energy=    -286.8577421206
C        1.5528857068    0.4187810386   -0.1365711470
C        0.8444002068   -0.8448412527    0.0558033506
C       -0.5307169526   -1.0901388714   -0.3926324540
C       -1.1008860296    0.2953779421    0.0351543353
C       -0.3884341303    1.5255600802   -0.3359727929
N        0.9374206700    1.5724049529   -0.4236278710
H        2.6285513740    0.4565434019    0.0109457331
H        1.4464654351   -1.7281697808    0.2579553760
H       -0.8936078790   -1.3738557506   -1.3671850344
H       -2.1855881480    0.3437171193   -0.0530721125
H       -0.8953835166    2.4876030734   -0.3870287342
C       -0.5112531225   -0.6887883654    0.9941439693
H       -0.9038536140   -1.3741935875    1.7420873815
13   
From optimize.out: Frame 22 / 34, Energy=    -286.8528959086
C        1.5546444681    0.4017987083   -0.1410787136
C        0.8706463751   -0.8579164008   -0.0045244848
C       -0.5260874300   -1.1067128608   -0.3489142004
C       -1.1234590999    0.2935042958    0.0311044857
C       -0.3912372257    1.5173625751   -0.3134610138
N        0.9267274388    1.5693898753   -0.3835127810
H        2.6282622051    0.4480386162    0.0119470131
H        1.4786474497   -1.7408468877    0.1821606718
H       -0.8679569278   -1.3871363001   -1.3322086388
H       -2.2009789523    0.3245076453   -0.1172243061
H       -0.8872332617    2.4866720515   -0.3639381866
C       -0.5281837449   -0.6250105814    1.0245584769
H       -0.9337912945   -1.3236507366    1.7550916778
13   
From optimize.out: Frame 20 / 34, Energy=    -286.8462926905
C        1.5592512238    0.3849103771   -0.1394788088
C        0.8989884902   -0.8714654899   -0.0534232789
C       -0.5166906735   -1.1217403920   -0.3214221370
C       -1.1517426680    0.2917311820    0.0287090380
C       -0.3952602378    1.5098448369   -0.2884776454
N        0.9168266037    1.5615685706   -0.3353297715
H        2.6336301890    0.4377041326    0.0052404731
H        1.5191299515   -1.7532046800    0.1026389585
H       -0.8472238539   -1.4066352647   -1.3088078815
H       -2.2205139689    0.3029680799   -0.1724252210
H       -0.8807828637    2.4853013706   -0.3471331415
C       -0.5488065474   -0.5584579366    1.0553371644
H       -0.9668056450   -1.2625247866    1.7745722514
13   
From optimize.out: Frame 19 / 34, Energy=    -286.8428711912
C        1.5590079526    0.3677880316   -0.1306989067
C        0.9174627363   -0.8880682807   -0.0955041063
C       -0.5102466489   -1.1420260274   -0.3000656070
C       -1.1820388767    0.2914054821    0.0231425368
C       -0.4022504097    1.5036196525   -0.2638833725
N        0.9063589548    1.5510603415   -0.2831226042
H        2.6348315628    0.4248701413    0.0029989833
H        1.5516374820   -1.7670460293    0.0245286602
H       -0.8292353489   -1.4338098792   -1.2915701107
H       -2.2391762338    0.2806347624   -0.2297699093
H       -0.8737642523    2.4867792203   -0.3275444296
C       -0.5562460256   -0.4811180365    1.0804434218
H       -0.9763408927   -1.1940893789    1.7910454442
13   
From optimize.out: Frame 17 / 34, Energy=    -286.8334788919
C        1.5512797014    0.3499175456   -0.1162207509
C        0.9234298235   -0.9107660763   -0.1264427712
C       -0.5023945604   -1.1723679712   -0.2969835750
C       -1.2134484176    0.2926286136    0.0148217911
C       -0.4111266015    1.5018485605   -0.2398702061
N        0.8958118538    1.5405566064   -0.2323536603
H        2.6277857122    0.4096224724    0.0107830602
H        1.5721762767   -1.7837163936   -0.0346410812
H       -0.8241097664   -1.4703944514   -1.2867066416
H       -2.2577289653    0.2553866833   -0.2808952246
H       -0.8674239597    2.4933400487   -0.3009116285
C       -0.5423159695   -0.3909103331    1.0897872850
H       -0.9519351273   -1.1151453047    1.7996334031
13   
From optimize.out: Frame 15 / 34, Energy=    -286.8212172670
C        1.5415704044    0.3316045872   -0.1014965980
C        0.9266350709   -0.9386359181   -0.1501677405
C       -0.4908964303   -1.2119748413   -0.3137725173
C       -1.2451541678    0.2967552292    0.0076462214
C       -0.4200887875    1.5060288909   -0.2169570392
N        0.8859362668    1.5315197978   -0.1887887520
H        2.6179963867    0.3955198365    0.0261630660
H        1.5887550989   -1.8039491126   -0.0700916750
H       -0.8292850967   -1.5167433753   -1.2983307109
H       -2.2795037530    0.2345747398   -0.3144165355
H       -0.8656628286    2.5038439104   -0.2697513637
C       -0.5167928786   -0.2990921027    1.0863928843
H       -0.9135092851   -1.0294516418    1.8035707602
13   
From optimize.out: Frame 13 / 34, Energy=    -286.8048234795
C        1.5341504568    0.3124669972   -0.0886987837
C        0.9325235964   -0.9696923279   -0.1675807231
C       -0.4801994262   -1.2549959446   -0.3404237216
C       -1.2761335575    0.3045839118    0.0013686673
C       -0.4303657231    1.5161021006   -0.1961047967
N        0.8760686577    1.5251295316   -0.1534388348
H        2.6103585772    0.3836144099    0.0462537853
H        1.6043522089   -1.8288966576   -0.0824278780
H       -0.8419904001   -1.5726073665   -1.3208163365
H       -2.3052825158    0.2226751314   -0.3314870298
H       -0.8705312946    2.5178834006   -0.2353857732
C       -0.4844801503   -0.2128654619    1.0702621135
H       -0.8684704293   -0.9433977246    1.7984793112
13   
From optimize.out: Frame 11 / 34, Energy=    -286.7859313292
C        1.5306339673    0.2927097343   -0.0760065019
C        0.9414910110   -1.0006014505   -0.1799455659
C       -0.4736297147   -1.2947496128   -0.3670425757
C       -1.3050818527    0.3138652008   -0.0053678178
C       -0.4432450960    1.5287242299   -0.1784062305
N        0.8659831666    1.5199939913   -0.1230067830
H        2.6067115169    0.3724518987    0.0711223649
H        1.6192095398   -1.8563909926   -0.0805192422
H       -0.8641898032   -1.6314578763   -1.3460867703
H       -2.3323531312    0.2154475726   -0.3398036837
H       -0.8812414336    2.5328334962   -0.2012030230
C       -0.4476585098   -0.1326685400    1.0435317304
H       -0.8166296603   -0.8601576517    1.7827340987
13   
From optimize.out: Frame 9 / 34, Energy=    -286.7646887803
C        1.5330154215    0.2727752873   -0.0615331136
C        0.9531627914   -1.0282770536   -0.1872763098
C       -0.4714193219   -1.3262270008   -0.3900102575
C       -1.3314066436    0.3226906940   -0.0129263628
C       -0.4594825271    1.5402327650   -0.1653122537
N        0.8562172512    1.5112258978   -0.0949503300
H        2.6087698354    0.3614092047    0.1006005014
H        1.6328720624   -1.8836292360   -0.0691070939
H       -0.8985350558   -1.6872718950   -1.3730250174
H       -2.3591838731    0.2091160026   -0.3418869674
H       -0.8984796180    2.5448716616   -0.1694500018
C       -0.4078888576   -0.0578966022    1.0075723123
H       -0.7576414648   -0.7790197254    1.7573048943
13   
From optimize.out: Frame 8 / 34, Energy=    -286.7510723139
C        1.5522499618    0.2562636885   -0.0494833979
C        0.9709741630   -1.0521932597   -0.1901121780
C       -0.4737930773   -1.3471779795   -0.4075639144
C       -1.3599137460    0.3298051337   -0.0201096633
C       -0.4801077328    1.5483922381   -0.1527337163
N        0.8483205605    1.4938248568   -0.0682370442
H        2.6293364964    0.3540846235    0.1278086751
H        1.6502982572   -1.9105869111   -0.0503019571
H       -0.9460467610   -1.7382803929   -1.4029823963
H       -2.3895512413    0.2026827008   -0.3432529803
H       -0.9248672061    2.5518544681   -0.1388334955
C       -0.3731936364    0.0103927307    0.9702643134
H       -0.7037060380   -0.6990618969    1.7255377547
13   
From optimize.out: Frame 6 / 34, Energy=    -286.7147976360
C        1.5637927507    0.2466161272   -0.0305890282
C        0.9796975353   -1.0760345502   -0.1854445882
C       -0.4785218292   -1.3604220436   -0.4256771274
C       -1.3776817817    0.3405299443   -0.0273445911
C       -0.4967849044    1.5587289746   -0.1573685121
N        0.8394157426    1.4805812715   -0.0517012959
H        2.6414169196    0.3503861427    0.1656612663
H        1.6607229036   -1.9340424294   -0.0181494028
H       -1.0092886717   -1.7777666474   -1.4240601518
H       -2.4168598880    0.1972224543   -0.3307153927
H       -0.9444279224    2.5612254902   -0.1223253462
C       -0.3265395737    0.0616315639    0.9315191094
H       -0.6349412808   -0.6486562980    1.6761950607
13   
From optimize.out: Frame 4 / 34, Energy=    -286.6659657553
C        1.5663491295    0.2478042766   -0.0197510869
C        0.9676798885   -1.1092805750   -0.2118434842
C       -0.4548721088   -1.3907747503   -0.4683817319
C       -1.3757875754    0.3708950777   -0.0362463251
C       -0.5124833848    1.5933566337   -0.1931341143
N        0.8539845216    1.4799879568   -0.0486732235
H        2.6205111160    0.3482998814    0.2322255986
H        1.6718155467   -1.9330248561   -0.0377946319
H       -1.0414389076   -1.8007092634   -1.4168674550
H       -2.4416331631    0.1433393937   -0.2557961106
H       -0.9236312985    2.6002300705   -0.1487749265
C       -0.3069440519    0.1080876226    0.9586473701
H       -0.6235497122   -0.6582114684    1.6463901212
13   
From optimize.out: Frame 2 / 34, Energy=    -286.6015441328
C        1.5592042616    0.2448491384   -0.0109137511
C        0.9518573147   -1.1348829622   -0.2475968872
C       -0.4361158242   -1.4123842269   -0.5249224045
C       -1.3684647796    0.3991301739   -0.0549850517
C       -0.5262832949    1.6290084619   -0.2310513905
N        0.8619484773    1.4830277586   -0.0478048742
H        2.5871642955    0.3405174466    0.2997201144
H        1.6707224073   -1.9320764441   -0.0845526740
H       -1.0245438869   -1.8057402633   -1.3729481973
H       -2.4412364771    0.1043175548   -0.1796980235
H       -0.9027424327    2.6376638208   -0.1840221954
C       -0.3122173538    0.1341951332    0.9813410334
H       -0.6192927071   -0.6876255917    1.6574343016
13   
C5H5N+CH->C6H6N atoms 1-13 frame 104 charge -0.000 sz -1.000 sz^2 0.527
C        1.5431311481    0.2403696326   -0.0015615607
C        0.9352812375   -1.1521657721   -0.2837131545
C       -0.4192601913   -1.4254778153   -0.5797787841
C       -1.3578698326    0.4221826271   -0.0729134787
C       -0.5373391038    1.6621134177   -0.2651429576
N        0.8622020154    1.4898535134   -0.0479259835
H        2.5538318421    0.3296616868    0.3657330024
H        1.6689921806   -1.9359133478   -0.1438207304
H       -0.9931077872   -1.8201650755   -1.3311481902
H       -2.4181492466    0.0817296210   -0.1065166718
H       -0.8885481528    2.6768968069   -0.2229657786
C       -0.3327808948    0.1468845734    1.0040554166
H       -0.6163832147   -0.7159698682    1.6856988712
13   
C5H5N+CH->C6H6N atoms 1-13 frame 105 charge +0.000 sz -1.000 sz^2 0.523
C        1.5208685082    0.2369042200    0.0119933232
C        0.9209437343   -1.1626856976   -0.3157047812
C       -0.3980022629   -1.4308365638   -0.6256579700
C       -1.3426233896    0.4410740552   -0.0850578156
C       -0.5449077170    1.6935557215   -0.2944342984
N        0.8571474928    1.5012529739   -0.0474053043
H        2.5215244756    0.3181325483    0.4330817048
H        1.6729407183   -1.9423001622   -0.2080705193
H       -0.9770852424   -1.8666914205   -1.3212299253
H       -2.3795587503    0.0722370679   -0.0339448780
H       -0.8804704313    2.7189920495   -0.2645987389
C       -0.3610522158    0.1525792674    1.0317830145
H       -0.6097249198   -0.7322140597    1.7192461884
13   
C5H5N+CH->C6H6N atoms 1-13 frame 107 charge -0.000 sz -1.000 sz^2 0.512
C        1.4959454125    0.2350965013    0.0300334550
C        0.9112332405   -1.1676583951   -0.3411989138
C       -0.3728796347   -1.4293029310   -0.6601609304
C       -1.3230243034    0.4558743434   -0.0897202560
C       -0.5478025029    1.7219219689   -0.3168584609
N        0.8494739878    1.5159333876   -0.0454765775
H        2.4891140811    0.3066382477    0.4962440171
H        1.6817331740   -1.9471270062   -0.2710675996
H       -0.9807965302   -1.9428230563   -1.3428272694
H       -2.3367488383    0.0740773643    0.0321551110
H       -0.8762660240    2.7582242386   -0.3047944635
C       -0.3907820049    0.1537527549    1.0634857920
H       -0.5992000576   -0.7346074181    1.7501860959
13   
C5H5N+CH->C6H6N atoms 1-13 frame 109 charge +0.000 sz -1.000 sz^2 0.500
C        1.4683465891    0.2332634939    0.0515388232
C        0.9052747597   -1.1697733401   -0.3635735471
C       -0.3476160289   -1.4237180995   -0.6899455552
C       -1.2996204968    0.4678528422   -0.0885161596
C       -0.5463021168    1.7478172121   -0.3337861793
N        0.8403851303    1.5321933917   -0.0426154754
H        2.4524711803    0.2927504831    0.5534529948
H        1.6912869856   -1.9484904588   -0.3354786292
H       -0.9862043610   -2.0308466567   -1.3726775645
H       -2.2970024938    0.0849184828    0.0907240421
H       -0.8732192199    2.7918616618   -0.3432829819
C       -0.4208065380    0.1509806598    1.0978083125
H       -0.5869933899   -0.7288096722    1.7763519197
13   
C5H5N+CH->C6H6N atoms 1-13 frame 111 charge +0.000 sz -1.000 sz^2 0.507
C        1.4359990064    0.2297045598    0.0764868786
C        0.9026115872   -1.1707351354   -0.3862054554
C       -0.3249535603   -1.4161729525   -0.7209442623
C       -1.2716938789    0.4778472612   -0.0820633070
C       -0.5401575134    1.7721814020   -0.3468725157
N        0.8299258218    1.5494792615   -0.0397487360
H        2.4072444802    0.2738420570    0.6049856462
H        1.6988392994   -1.9449911832   -0.4062346338
H       -0.9777991097   -2.1178472556   -1.3941524610
H       -2.2634095744    0.1047288836    0.1423704271
H       -0.8696585194    2.8187612382   -0.3822717265
C       -0.4520123845    0.1439295374    1.1350397873
H       -0.5749356543   -0.7207276739    1.7996103585
13   
C5H5N+CH->C6H6N atoms 1-13 frame 113 charge +0.000 sz -1.000 sz^2 0.537
C        1.3980276391    0.2235327492    0.1041494716
C        0.9036559512   -1.1712196116   -0.4103913335
C       -0.3076119603   -1.4082918275   -0.7555182250
C       -1.2395150691    0.4858964933   -0.0703510750
C       -0.5290484548    1.7946172501   -0.3569342289
N        0.8184303510    1.5671808929   -0.0382114692
H        2.3528047833    0.2494532820    0.6495055293
H        1.7030117129   -1.9355206877   -0.4840117668
H       -0.9477090081   -2.1924908844   -1.3979524309
H       -2.2381222638    0.1341439963    0.1848873923
H       -0.8649213733    2.8373250012   -0.4229701686
C       -0.4837048498    0.1329865256    1.1742622888
H       -0.5652974583   -0.7176131795    1.8235360161
13   
C5H5N+CH->C6H6N atoms 1-13 frame 114 charge +0.000 sz -1.000 sz^2 0.555
C        1.3551733228    0.2147003999    0.1326691357
C        0.9086258583   -1.1712450794   -0.4357770052
C       -0.2982068100   -1.4014198230   -0.7929767696
C       -1.2050846524    0.4914950935   -0.0533376526
C       -0.5132877059    1.8135191799   -0.3641423100
N        0.8066952210    1.5843090338   -0.0395523054
H        2.2930978212    0.2215404008    0.6848063984
H        1.7039985371   -1.9202254296   -0.5651642677
H       -0.8954813458   -2.2448296892   -1.3801085813
H       -2.2220884968    0.1734911512    0.2137741590
H       -0.8595003482    2.8462464906   -0.4650050550
C       -0.5134653292    0.1194849511    1.2130813081
H       -0.5604760721   -0.7270666796    1.8517329458
13   
C5H5N+CH->C6H6N atoms 1-13 frame 116 charge +0.000 sz -1.000 sz^2 0.609
C        1.3093062207    0.2039611312    0.1600127474
C        0.9163898353   -1.1705746838   -0.4613537627
C       -0.2973207372   -1.3963150012   -0.8306776366
C       -1.1714403526    0.4942526316   -0.0313713224
C       -0.4944286803    1.8274247400   -0.3685985593
N        0.7956592005    1.5999521910   -0.0446674810
H        2.2351688272    0.1937013397    0.7110849871
H        1.7040871838   -1.9013754702   -0.6445582797
H       -0.8290964259   -2.2723250438   -1.3439361763
H       -2.2133108220    0.2214038002    0.2265880619
H       -0.8549578474    2.8464216894   -0.5070639885
C       -0.5386029711    0.1051201930    1.2494584009
H       -0.5614534311   -0.7516475171    1.8850830091
13   
C5H5N+CH->C6H6N atoms 1-13 frame 118 charge +0.000 sz -1.000 sz^2 0.708
C        1.2614485148    0.1921782725    0.1860719400
C        0.9252397244   -1.1688487237   -0.4868516982
C       -0.3028271337   -1.3924494174   -0.8665700920
C       -1.1400067773    0.4944198790   -0.0044200974
C       -0.4740285795    1.8364624062   -0.3703492641
N        0.7858595265    1.6142187235   -0.0531363945
H        2.1833092624    0.1684194777    0.7318400853
H        1.7062912134   -1.8812688268   -0.7207328564
H       -0.7594441656   -2.2837413921   -1.2980455298
H       -2.2077909350    0.2761863108    0.2254041866
H       -0.8526664008    2.8403539750   -0.5484419747
C       -0.5581229635    0.0904938770    1.2840942658
H       -0.5672612863   -0.7864245616    1.9211374293
13   
C5H5N+CH->C6H6N atoms 1-13 frame 120 charge +0.000 sz -1.000 sz^2 0.858
C        1.2111913800    0.1798330402    0.2123837862
C        0.9341845547   -1.1652377869   -0.5128825043
C       -0.3125585097   -1.3881818949   -0.8997703520
C       -1.1105827600    0.4924997755    0.0290471958
C       -0.4524907919    1.8413332971   -0.3687380055
N        0.7779871496    1.6279469804   -0.0642219736
H        2.1383798829    0.1469077189    0.7505213200
H        1.7130686886   -1.8600253142   -0.7952491361
H       -0.6953210739   -2.2925291372   -1.2505939503
H       -2.2021015395    0.3383528630    0.2120088227
H       -0.8532689077    2.8293322949   -0.5889658213
C       -0.5713658328    0.0752299015    1.3192378574
H       -0.5771222403   -0.8254617383    1.9572227611
13   
C5H5N+CH->C6H6N atoms 1-13 frame 122 charge +0.000 sz -1.000 sz^2 1.014
C        1.1585752279    0.1674333360    0.2409131257
C        0.9425037147   -1.1584325828   -0.5402245547
C       -0.3244848552   -1.3809585501   -0.9295055166
C       -1.0828871111    0.4893350100    0.0709382273
C       -0.4300163456    1.8429149118   -0.3625766501
N        0.7736604872    1.6420744182   -0.0768346211
H        2.0998522408    0.1303409552    0.7695678070
H        1.7258738214   -1.8359206342   -0.8693521915
H       -0.6457437056   -2.3152485935   -1.2100770175
H       -2.1930749284    0.4086504700    0.1874210624
H       -0.8566314089    2.8136244716   -0.6274978742
C       -0.5769951177    0.0588408047    1.3568395836
H       -0.5906320195   -0.8626540169    1.9903886199
13   
C5H5N+CH->C6H6N atoms 1-13 frame 123 charge +0.000 sz -1.000 sz^2 1.071
C        1.1060973445    0.1554145168    0.2725117864
C        0.9490771097   -1.1476002276   -0.5690522421
C       -0.3367308409   -1.3692931155   -0.9544760113
C       -1.0580756029    0.4856810636    0.1213858921
C       -0.4081776528    1.8415143354   -0.3512817488
N        0.7756909156    1.6563933882   -0.0897896183
H        2.0666394844    0.1199979899    0.7894773148
H        1.7438307714   -1.8065027024   -0.9406953593
H       -0.6183778491   -2.3616109126   -1.1832306030
H       -2.1778621205    0.4839796593    0.1532405008
H       -0.8619277183    2.7923207338   -0.6612454908
C       -0.5729333583    0.0410682430    1.3965045719
H       -0.6072504829   -0.8913629719    2.0166510075
13   
C5H5N+CH->C6H6N atoms 1-13 frame 125 charge -0.000 sz -1.000 sz^2 1.129
C        1.0562219756    0.1431844447    0.3067400405
C        0.9531212283   -1.1338557577   -0.5993803386
C       -0.3483583728   -1.3556519305   -0.9749590819
C       -1.0371707163    0.4815138334    0.1780076721
C       -0.3891724547    1.8366732857   -0.3367762263
N        0.7857056092    1.6694863359   -0.1033953403
H        2.0351427189    0.1147901031    0.8096327815
H        1.7633692749   -1.7703106938   -1.0065115140
H       -0.6100896713   -2.4194114283   -1.1679636457
H       -2.1554446460    0.5579149140    0.1131401016
H       -0.8681853890    2.7636221233   -0.6900088502
C       -0.5591549576    0.0216349838    1.4362240649
H       -0.6259845992   -0.9095902138    2.0352503365
13   
C5H5N+CH->C6H6N atoms 1-13 frame 127 charge +0.000 sz -1.000 sz^2 1.140
C        1.0097001839    0.1295928685    0.3438304218
C        0.9540264956   -1.1181596518   -0.6320602817
C       -0.3592433893   -1.3434915326   -0.9918733781
C       -1.0207189691    0.4767379220    0.2399731761
C       -0.3744863472    1.8269960921   -0.3213272895
N        0.8055139975    1.6799932381   -0.1198409224
H        2.0012933860    0.1129720209    0.8304416858
H        1.7814630176   -1.7251018491   -1.0655238383
H       -0.6159875711   -2.4699573495   -1.1602229989
H       -2.1246499279    0.6249688516    0.0697696105
H       -0.8751617239    2.7243674149   -0.7161100352
C       -0.5350295493    0.0002293138    1.4745168624
H       -0.6467196029   -0.9191473391    2.0484269876
13   
C5H5N+CH->C6H6N atoms 1-13 frame 129 charge -0.000 sz -1.000 sz^2 1.117
C        0.9680825475    0.1140671851    0.3835224934
C        0.9508566824   -1.1010046364   -0.6675628284
C       -0.3690892641   -1.3360557863   -1.0059470962
C       -1.0096724768    0.4726794183    0.3056851281
C       -0.3648325960    1.8110670272   -0.3075958698
N        0.8368858684    1.6866455510   -0.1423503141
H        1.9628623569    0.1124651507    0.8535728919
H        1.7954406706   -1.6689735325   -1.1155835282
H       -0.6329684365   -2.4940948733   -1.1575955336
H       -2.0852247879    0.6771694623    0.0274963150
H       -0.8829405944    2.6727148137   -0.7428115795
C       -0.4996030882   -0.0219656153    1.5086465210
H       -0.6697968819   -0.9247141645    2.0605234004
13   
C5H5N+CH->C6H6N atoms 1-13 frame 131 charge +0.000 sz -1.000 sz^2 1.097
C        0.9343605916    0.0975191039    0.4235134730
C        0.9428631313   -1.0829528476   -0.7041436883
C       -0.3771851370   -1.3353091323   -1.0176497807
C       -1.0050080078    0.4724203916    0.3702047673
C       -0.3589832619    1.7890323603   -0.2982738803
N        0.8781736563    1.6886274610   -0.1729918222
H        1.9229396705    0.1106060037    0.8812776455
H        1.8042849092   -1.6043850133   -1.1541201635
H       -0.6583739112   -2.4791503690   -1.1593331907
H       -2.0417114537    0.7047369947   -0.0058250246
H       -0.8918856861    2.6123806238   -0.7729436966
C       -0.4545972185   -0.0416815628    1.5343623529
H       -0.6948772828   -0.9318440141    2.0759230082
13   
C5H5N+CH->C6H6N atoms 1-13 frame 133 charge -0.000 sz -1.000 sz^2 1.068
C        0.9105573035    0.0815214896    0.4610650258
C        0.9302388700   -1.0645934630   -0.7384987523
C       -0.3828310128   -1.3408296354   -1.0273553351
C       -1.0067112098    0.4786312549    0.4280883137
C       -0.3541546595    1.7627592327   -0.2942686828
N        0.9240585962    1.6859467806   -0.2105183224
H        1.8885967897    0.1050243243    0.9151588447
H        1.8099985969   -1.5374461411   -1.1809724034
H       -0.6899826228   -2.4276908834   -1.1661611236
H       -2.0028588613    0.7028949658   -0.0229027350
H       -0.9023513839    2.5504739883   -0.8069910309
C       -0.4048142647   -0.0564072465    1.5490816037
H       -0.7197461416   -0.9402846668    2.0942745975
13   
C5H5N+CH->C6H6N atoms 1-13 frame 134 charge +0.000 sz -1.000 sz^2 1.062
C        0.9161279504    0.0747839563    0.4699324641
C        0.9255370500   -1.0480788529   -0.7251388010
C       -0.3710533411   -1.3345638949   -1.0181840968
C       -1.0299891080    0.4875548099    0.4404579238
C       -0.3539511028    1.7245711112   -0.2936274155
N        0.9388582181    1.6450042668   -0.2337339012
H        1.8938745692    0.1033116168    0.9289734348
H        1.8178749659   -1.4987607357   -1.1560415828
H       -0.7214361225   -2.3713971703   -1.1868358972
H       -2.0266023662    0.6923671778   -0.0003489723
H       -0.9024431133    2.5092097903   -0.8150579153
C       -0.3745605927   -0.0511908546    1.5201491593
H       -0.7122370071   -0.9328112209    2.0694556002
13   
C5H5N+CH->C6H6N atoms 1-13 frame 136 charge -0.000 sz -1.000 sz^2 1.038
C        0.9365404386    0.0767217355    0.4630332421
C        0.9235179620   -1.0311381067   -0.6819169721
C       -0.3553617914   -1.3173318082   -0.9943468879
C       -1.0627683651    0.4926783101    0.4219308684
C       -0.3583471724    1.6794843194   -0.2954953639
N        0.9294703539    1.5783070317   -0.2385618384
H        1.9171876349    0.1106946271    0.9294222302
H        1.8214375667   -1.4790716880   -1.1022628729
H       -0.7556967843   -2.3204790083   -1.2065972867
H       -2.0797835148    0.6896247928    0.0358731005
H       -0.8903223182    2.4805505944   -0.8100776185
C       -0.3518065505   -0.0383642739    1.4643071065
H       -0.6740674595   -0.9216765259    2.0146922927
13   
C5H5N+CH->C6H6N atoms 1-13 frame 138 charge -0.000 sz -1.000 sz^2 1.020
C        0.9571075765    0.0843912557    0.4626702073
C        0.9184317873   -1.0182342113   -0.6403492857
C       -0.3467287566   -1.2984383469   -0.9715590268
C       -1.0935393779    0.4947449082    0.4027981917
C       -0.3637506426    1.6359437805   -0.3031181978
N        0.9184925878    1.5129367310   -0.2403366878
H        1.9370307561    0.1256833700    0.9384332487
H        1.8194597097   -1.4671743181   -1.0528719553
H       -0.7980412892   -2.2612422135   -1.2296090664
H       -2.1264408300    0.6833820531    0.0739907089
H       -0.8734124918    2.4510951184   -0.8179288277
C       -0.3241941225   -0.0284692531    1.4111687130
H       -0.6244149067   -0.9146188740    1.9667119780
13   
C5H5N+CH->C6H6N atoms 1-13 frame 140 charge +0.000 sz -1.000 sz^2 0.990
C        0.9792306117    0.0971118329    0.4694363955
C        0.9136616460   -1.0153131261   -0.6013177796
C       -0.3408338672   -1.2786403522   -0.9542508087
C       -1.1222796649    0.4944281791    0.3882696922
C       -0.3704712874    1.5963376628   -0.3175860225
N        0.9075246988    1.4567585259   -0.2469426213
H        1.9560023673    0.1452854785    0.9566549815
H        1.8154897460   -1.4691029327   -1.0073770420