
Running Job 1 of 1 optimize.in
qchem optimize.in_11432.0 ./optimize.d/ 1
/home/leeping/opt/qchem/5.0.2-openmp/exe/qcprog.exe_s optimize.in_11432.0 ./optimize.d/
Check license passed

                  Welcome to Q-Chem
     A Quantum Leap Into The Future Of Chemistry


 Q-Chem 5.0, Q-Chem, Inc., Pleasanton, CA (2017)

 Yihan Shao,  Zhengting Gan,  E. Epifanovsky,  A. T. B. Gilbert,  M. Wormit,  
 J. Kussmann,  A. W. Lange,  A. Behn,  Jia Deng,  Xintian Feng,  D. Ghosh,  
 M. Goldey,  P. R. Horn,  L. D. Jacobson,  I. Kaliman,  T. Kus,  A. Landau,  
 Jie Liu,  E. I. Proynov,  R. M. Richard,  R. P. Steele,  E. J. Sundstrom,  
 H. L. Woodcock III,  P. M. Zimmerman,  D. Zuev,  B. Albrecht,  E. Alguire,  
 S. A. Baeppler,  D. Barton,  Z. Benda,  Y. A. Bernard,  E. J. Berquist,  
 K. B. Bravaya,  H. Burton,  D. Casanova,  Chun-Min Chang,  Yunqing Chen,  
 A. Chien,  K. D. Closser,  M. P. Coons,  S. Dasgupta,  A. L. Dempwolff,  
 M. Diedenhofen,  Hainam Do,  R. G. Edgar,  Po-Tung Fang,  S. Fatehi,  
 Qingguo Feng,  J. Fosso-Tande,  Qinghui Ge,  A. Ghysels,  G. Gidofalvi,  
 J. Gomes,  J. Gonthier,  A. Gunina,  M. W. D. Hanson-Heine,  
 P. H. P. Harbach,  A. W. Hauser,  J. E. Herr,  E. G. Hohenstein,  
 Z. C. Holden,  Kerwin Hui,  T.-C. Jagau,  Hyunjun Ji,  B. Kaduk,  
 K. Khistyaev,  Jaehoon Kim,  P. Klunzinger,  K. Koh,  D. Kosenkov,  
 L. Koulias,  T. Kowalczyk,  C. M. Krauter,  A. Kunitsa,  Ka Un Lao,  
 A. Laurent,  K. V. Lawler,  Joonho Lee,  D. Lefrancois,  S. Lehtola,  
 D. S. Levine,  Yi-Pei Li,  You-Sheng Lin,  Fenglai Liu,  E. Livshits,  
 A. Luenser,  P. Manohar,  E. Mansoor,  S. F. Manzer,  Shan-Ping Mao,  
 Yuezhi Mao,  N. Mardirossian,  A. V. Marenich,  T. Markovich,  
 L. A. Martinez-Martinez,  S. A. Maurer,  N. J. Mayhall,  S. C. McKenzie,  
 J.-M. Mewes,  A. F. Morrison,  J. W. Mullinax,  K. Nanda,  
 T. S. Nguyen-Beck,  R. Olivares-Amaya,  J. A. Parkhill,  T. M. Perrine,  
 F. Plasser,  S. Prager,  A. Prociuk,  E. Ramos,  D. R. Rehn,  F. Rob,  
 M. Schneider,  N. Sergueev,  S. M. Sharada,  S. Sharma,  D. W. Small,  
 T. Stauch,  T. Stein,  Yu-Chuan Su,  A. J. W. Thom,  A. Tkatchenko,  
 T. Tsuchimochi,  L. Vogt,  O. Vydrov,  M. A. Watson,  J. Wenzel,  
 M. de Wergifosse,  T. A. Wesolowski,  A. White,  J. Witte,  A. Yamada,  
 Jun Yang,  K. Yao,  S. Yeganeh,  S. R. Yost,  Zhi-Qiang You,  A. Zech,  
 Igor Ying Zhang,  Xing Zhang,  Yan Zhao,  Ying Zhu,  B. R. Brooks,  
 G. K. L. Chan,  C. J. Cramer,  M. S. Gordon,  W. J. Hehre,  A. Klamt,  
 M. W. Schmidt,  C. D. Sherrill,  D. G. Truhlar,  A. Aspuru-Guzik,  R. Baer,  
 A. T. Bell,  N. A. Besley,  Jeng-Da Chai,  R. A. DiStasio Jr.,  A. Dreuw,  
 B. D. Dunietz,  T. R. Furlani,  Chao-Ping Hsu,  Yousung Jung,  Jing Kong,  
 D. S. Lambrecht,  WanZhen Liang,  C. Ochsenfeld,  V. A. Rassolov,  
 L. V. Slipchenko,  J. E. Subotnik,  T. Van Voorhis,  J. M. Herbert,  
 A. I. Krylov,  P. M. W. Gill,  M. Head-Gordon

 Contributors to earlier versions of Q-Chem not listed above: 
 R. D. Adamson,  B. Austin,  J. Baker,  G. J. O. Beran,  K. Brandhorst,  
 S. T. Brown,  E. F. C. Byrd,  A. K. Chakraborty,  C.-L. Cheng,  
 Siu Hung Chien,  D. M. Chipman,  D. L. Crittenden,  H. Dachsel,  
 R. J. Doerksen,  A. D. Dutoi,  L. Fusti-Molnar,  W. A. Goddard III,  
 A. Golubeva-Zadorozhnaya,  S. R. Gwaltney,  G. Hawkins,  A. Heyden,  
 S. Hirata,  G. Kedziora,  F. J. Keil,  C. Kelley,  Jihan Kim,  R. A. King,  
 R. Z. Khaliullin,  P. P. Korambath,  W. Kurlancheek,  A. M. Lee,  M. S. Lee,  
 S. V. Levchenko,  Ching Yeh Lin,  D. Liotard,  R. C. Lochan,  I. Lotan,  
 P. E. Maslen,  N. Nair,  D. P. O'Neill,  D. Neuhauser,  E. Neuscamman,  
 C. M. Oana,  R. Olson,  B. Peters,  R. Peverati,  P. A. Pieniazek,  
 Y. M. Rhee,  J. Ritchie,  M. A. Rohrdanz,  E. Rosta,  N. J. Russ,  
 H. F. Schaefer III,  N. E. Schultz,  N. Shenvi,  A. C. Simmonett,  A. Sodt,  
 D. Stuck,  K. S. Thanthiriwatte,  V. Vanovschi,  Tao Wang,  A. Warshel,  
 C. F. Williams,  Q. Wu,  X. Xu,  W. Zhang

 Please cite Q-Chem as follows:
 Y. Shao et al., Mol. Phys. 113, 184-215 (2015)
 DOI: 10.1080/00268976.2014.952696

 Q-Chem 5.0.2 for Intel X86 EM64T Linux

 Parts of Q-Chem use Armadillo 5.200.1 (Boston Tea Smuggler).
 http://arma.sourceforge.net/

 Q-Chem begins on Thu Mar  3 10:42:13 2022  

Host: 
0

     Scratch files written to ./optimize.d//
 Dec517 15110_ 26548  26544 5633   
Processing $rem in /home/leeping/opt/qchem/5.0.2-openmp/config/preferences.
 MEM_STATIC 2000
 MEM_TOTAL  8000
 SYMMETRY   OFF
 SYM_IGNORE TRUE 

Checking the input file for inconsistencies... 	...done.

--------------------------------------------------------------
User input:
--------------------------------------------------------------
$molecule
0 2
C        1.4356508775    0.3627178750   -0.8407273442
C        0.1657021475   -1.1187005292    0.6726387517
C       -1.0971203266   -1.1384912338    1.2090964133
C       -1.7837228490    0.0168118175    0.7219708613
C       -0.9169919563    0.7010610383   -0.0937207754
N        0.2808059278    0.0077232856   -0.1276166544
H        2.2390206573   -0.3724011939   -0.7414775354
H        1.0006149806   -1.7961121361    0.7858732904
H       -1.4891258365   -1.8927959800    1.8778547408
H       -2.8019821887    0.3066167729    0.9442225657
H       -1.0308212220    1.6112324799   -0.6634468768
C        1.6030933275    1.4467215022   -1.5718090141
H        2.3948764610    1.8656163016   -2.1728584230
$end

$rem
method                b3lyp
basis                 6-31g(d)
unrestricted          true
symmetry              off
sym_ignore            true
incdft                false
incfock               0
scf_convergence       8
thresh                14
jobtype               opt
scf_guess             read
scf_algorithm         diis
max_scf_cycles        100
geom_opt_tol_gradient 600
geom_opt_tol_displacement 2400
geom_opt_tol_energy   200
geom_opt_max_cycles   100
$end

--------------------------------------------------------------
 ----------------------------------------------------------------
             Standard Nuclear Orientation (Angstroms)
    I     Atom           X                Y                Z
 ----------------------------------------------------------------
    1      C       1.4356508775     0.3627178750    -0.8407273442
    2      C       0.1657021475    -1.1187005292     0.6726387517
    3      C      -1.0971203266    -1.1384912338     1.2090964133
    4      C      -1.7837228490     0.0168118175     0.7219708613
    5      C      -0.9169919563     0.7010610383    -0.0937207754
    6      N       0.2808059278     0.0077232856    -0.1276166544
    7      H       2.2390206573    -0.3724011939    -0.7414775354
    8      H       1.0006149806    -1.7961121361     0.7858732904
    9      H      -1.4891258365    -1.8927959800     1.8778547408
   10      H      -2.8019821887     0.3066167729     0.9442225657
   11      H      -1.0308212220     1.6112324799    -0.6634468768
   12      C       1.6030933275     1.4467215022    -1.5718090141
   13      H       2.3948764610     1.8656163016    -2.1728584230
 ----------------------------------------------------------------
 Nuclear Repulsion Energy =   262.3697698543 hartrees
 There are       25 alpha and       24 beta electrons
 Requested basis set is 6-31G(d)
 There are 40 shells and 117 basis functions

 Total QAlloc Memory Limit   8000 MB
 Mega-Array Size      1956 MB
 MEM_STATIC part      2000 MB
 A cutoff of  1.0D-14 yielded    781 shell pairs
 There are      6992 function pairs
 
 -------------------------------------------------------
 OpenMP Integral Computing Module                       
 Release: version 1.0, May 2013, Q-Chem Inc. Pittsburgh 
 -------------------------------------------------------
 Integral Job Info:
 Integral job number is                      11
 Integral operator is                         1
 short-range coefficients                     0
 long-range coefficients              100000000
 Omega coefficients                           0
 if combine SR and LR in K                    0
 Integral screening is                        0
 Integral computing path is                   2
 max size of driver memory is            800000
 size of driver memory is                593474
 size of scratch memory is              2361544
 max col of scratch BK array               1296
 max len of scratch array in speh3          155
 max len of scratch index in speh4           18
 max int batch size is                      520
 min int batch size is                       52
 fixed nKL is                                52
 max L of basis functions is                  2
 order of int derivative is                   0
 number of shells is                         40
 number of basis is                         117
 number of cartesian basis is               117
 number of contracted shell pairs           781
 number of primitive shell pairs           3318
 maxK2 (contraction) of shell pair           36
 max number of K2 of shell pair               1
 max number of CS2 of shell pair             86
 max number of PS2 of shell pair            396
 mem total for path MDJ                  529068
 -------------------------------------------------------
 Smallest overlap matrix eigenvalue = 1.00E-03

 Scale SEOQF with 1.000000e-01/1.000000e-01/1.000000e-01

 Standard Electronic Orientation quadrupole field applied
 Nucleus-field energy     =     0.0000000014 hartrees
 Guess MOs from SCF MO coefficient file
 Reading MOs from coefficient file
 Reading MOs from coefficient file
 An unrestricted hybrid HF-DFT SCF calculation will be
 performed using Pulay DIIS extrapolation
 Exchange:     0.2000 Hartree-Fock + 0.0800 Slater + 0.7200 B88
 Correlation:  0.1900 VWN1RPA + 0.8100 LYP
 Using SG-1 standard quadrature grid
 SCF converges when DIIS error is below 1.0E-08
Using Q-Chem read-in guess as SCF_GUESS READ specified.

 using 4 threads for integral computing
 -------------------------------------------------------
 OpenMP Integral computing Module                
 Release: version 1.0, May 2013, Q-Chem Inc. Pittsburgh 
 -------------------------------------------------------
 -------------------------------------------------------
 OpenMP BLAS3 based DFT computing Module                
 Release: version 1.0, May 2013, Q-Chem Inc. Pittsburgh 
 -------------------------------------------------------
 ---------------------------------------
  Cycle       Energy         DIIS Error
 ---------------------------------------
    1    -286.8723602869      5.00E-10
    2    -286.8723602869      8.73E-10 Convergence criterion met
 ---------------------------------------
 <S^2> = 0.7625
 SCF time:  CPU 4.74 s  wall 1.61 s
 SCF   energy in the final basis set = -286.87236029
 Total energy in the final basis set = -286.87236029
 
 --------------------------------------------------------------
 
                    Orbital Energies (a.u.)
 --------------------------------------------------------------
 
 Alpha MOs
 -- Occupied --
-14.392 -10.242 -10.214 -10.205 -10.201 -10.171 -10.170  -0.988
 -0.817  -0.737  -0.720  -0.618  -0.574  -0.544  -0.513  -0.476
 -0.428  -0.423  -0.416  -0.386  -0.374  -0.304  -0.255  -0.224
 -0.210
 -- Virtual --
 -0.008   0.076   0.091   0.101   0.127   0.136   0.165   0.176
  0.179   0.223   0.236   0.282   0.339   0.362   0.391   0.456
  0.488   0.507   0.536   0.556   0.561   0.588   0.590   0.596
  0.606   0.619   0.622   0.650   0.673   0.704   0.800   0.810
  0.829   0.847   0.856   0.857   0.888   0.921   0.928   0.957
  0.982   1.034   1.083   1.127   1.200   1.216   1.274   1.347
  1.385   1.387   1.429   1.458   1.494   1.496   1.551   1.558
  1.676   1.742   1.818   1.878   1.930   1.982   2.003   2.006
  2.071   2.080   2.153   2.178   2.210   2.250   2.268   2.302
  2.336   2.339   2.531   2.550   2.593   2.648   2.682   2.719
  2.775   2.858   3.044   3.099   3.177   3.976   4.069   4.121
  4.171   4.273   4.472   4.474
 
 Beta MOs
 -- Occupied --
-14.391 -10.243 -10.205 -10.201 -10.198 -10.171 -10.170  -0.987
 -0.812  -0.725  -0.717  -0.606  -0.573  -0.543  -0.500  -0.466
 -0.424  -0.424  -0.414  -0.385  -0.374  -0.301  -0.216  -0.211
 -- Virtual --
 -0.087   0.001   0.077   0.091   0.109   0.128   0.143   0.165
  0.176   0.181   0.228   0.239   0.286   0.342   0.371   0.403
  0.461   0.498   0.507   0.539   0.560   0.568   0.588   0.594
  0.601   0.619   0.627   0.633   0.666   0.672   0.705   0.806
  0.811   0.831   0.849   0.856   0.859   0.901   0.927   0.933
  0.958   0.987   1.040   1.093   1.129   1.203   1.220   1.277
  1.346   1.387   1.388   1.441   1.461   1.495   1.497   1.551
  1.559   1.736   1.762   1.840   1.886   1.948   1.985   2.006
  2.014   2.076   2.086   2.165   2.181   2.211   2.250   2.273
  2.306   2.336   2.341   2.533   2.563   2.596   2.655   2.685
  2.719   2.786   2.861   3.044   3.101   3.185   3.977   4.102
  4.121   4.171   4.277   4.474   4.474
 --------------------------------------------------------------
 
          Ground-State Mulliken Net Atomic Charges

     Atom                 Charge (a.u.)    Spin (a.u.)
  --------------------------------------------------------
      1 C                     0.067767      -0.140151
      2 C                     0.027271      -0.002639
      3 C                    -0.193169      -0.005361
      4 C                    -0.186724      -0.008620
      5 C                     0.037279       0.008871
      6 N                    -0.401093       0.019368
      7 H                     0.163295       0.068797
      8 H                     0.144968       0.000099
      9 H                     0.128593       0.001005
     10 H                     0.128940       0.000823
     11 H                     0.154859       0.000520
     12 C                    -0.244060       1.062070
     13 H                     0.172075      -0.004784
  --------------------------------------------------------
  Sum of atomic charges =     0.000000
  Sum of spin   charges =     1.000000

 -----------------------------------------------------------------
                    Cartesian Multipole Moments
 -----------------------------------------------------------------
    Charge (ESU x 10^10)
                 0.0000
    Dipole Moment (Debye)
         X       1.3446      Y      -0.1926      Z      -0.4755
       Tot       1.4392
    Quadrupole Moments (Debye-Ang)
        XX     -35.5994     XY      -1.4210     YY     -39.3560
        XZ      -2.9587     YZ      -3.0846     ZZ     -41.5728
    Octopole Moments (Debye-Ang^2)
       XXX       8.7292    XXY       0.9055    XYY       3.3453
       YYY      -5.6574    XXZ      -3.0215    XYZ      -1.8713
       YYZ       0.1587    XZZ       4.3806    YZZ      -0.9740
       ZZZ      -0.8998
    Hexadecapole Moments (Debye-Ang^3)
      XXXX    -406.7353   XXXY     -54.1406   XXYY    -107.5468
      XYYY     -56.6905   YYYY    -259.9222   XXXZ      90.0666
      XXYZ      16.1124   XYYZ      30.5990   YYYZ      82.3397
      XXZZ    -101.3811   XYZZ      -4.1215   YYZZ     -76.2173
      XZZZ     109.9620   YZZZ      85.4191   ZZZZ    -271.1679
 -----------------------------------------------------------------
 Calculating analytic gradient of the SCF energy
 Gradient of SCF Energy
            1           2           3           4           5           6
    1  -0.0000366  -0.0000138  -0.0002343   0.0000466  -0.0003000   0.0000835
    2   0.0000369   0.0001276  -0.0000103  -0.0001821   0.0000152   0.0002735
    3  -0.0001626   0.0000083  -0.0001858   0.0002194   0.0002776  -0.0000124
            7           8           9          10          11          12
    1   0.0001098   0.0001183   0.0000080   0.0000071   0.0001089   0.0001505
    2  -0.0000138  -0.0000804   0.0000354  -0.0000182  -0.0000963   0.0000742
    3  -0.0002509   0.0000916   0.0000511  -0.0000830  -0.0001294  -0.0000029
           13
    1  -0.0000480
    2  -0.0001616
    3   0.0001791
 Max gradient component =       3.000E-04
 RMS gradient           =       1.349E-04
 Gradient time:  CPU 6.99 s  wall 1.89 s
 Geometry Optimization Parameters
   NAtoms,    NIC,     NZ,  NCons,   NDum,   NFix, NCnnct, MaxDiis
       13      84       0       0       0       0       0       0


** GEOMETRY OPTIMIZATION IN DELOCALIZED INTERNAL COORDINATES **
   Searching for a Minimum

   Optimization Cycle:   1

                       Coordinates (Angstroms)
     ATOM                X               Y               Z
      1  C         1.4356508775    0.3627178750   -0.8407273442
      2  C         0.1657021475   -1.1187005292    0.6726387517
      3  C        -1.0971203266   -1.1384912338    1.2090964133
      4  C        -1.7837228490    0.0168118175    0.7219708613
      5  C        -0.9169919563    0.7010610383   -0.0937207754
      6  N         0.2808059278    0.0077232856   -0.1276166544
      7  H         2.2390206573   -0.3724011939   -0.7414775354
      8  H         1.0006149806   -1.7961121361    0.7858732904
      9  H        -1.4891258365   -1.8927959800    1.8778547408
     10  H        -2.8019821887    0.3066167729    0.9442225657
     11  H        -1.0308212220    1.6112324799   -0.6634468768
     12  C         1.6030933275    1.4467215022   -1.5718090141
     13  H         2.3948764610    1.8656163016   -2.1728584230
   Point Group: c1    Number of degrees of freedom:    33


   Energy is   -286.872360287


 Attempting to Generate Delocalized Internal Coordinates

 33 Hessian modes will be used to form the next step
  Hessian Eigenvalues:
     0.015258    0.016915    0.019073    0.020447    0.021810    0.022216
     0.022378    0.022891    0.023904    0.033231    0.159990    0.159995
     0.159997    0.159999    0.160000    0.160000    0.220000    0.220000
     0.231812    0.249999    0.344159    0.357808    0.358004    0.358611
     0.360191    0.361485    0.384678    0.433374    0.451383    0.456834
     0.489218    0.503197    0.623886

 Minimum Search - Taking Simple RFO Step
 Searching for Lamda that Minimizes Along All modes
 Value Taken    Lamda =  -0.00001084
 Step Taken.  Stepsize is  0.022457

                             Maximum     Tolerance    Cnvgd?
         Gradient           0.000349      0.000600     YES
         Displacement       0.018900      0.002400      NO
         Energy change     *********      0.000002      NO


 New Cartesian Coordinates Obtained by Inverse Iteration

 Displacement from previous Coordinates is:  0.031460
 ----------------------------------------------------------------
             Standard Nuclear Orientation (Angstroms)
    I     Atom           X                Y                Z
 ----------------------------------------------------------------
    1      C       1.4367540478     0.3632072230    -0.8382951205
    2      C       0.1650339478    -1.1206149384     0.6709304962
    3      C      -1.0971706683    -1.1386781455     1.2085379204
    4      C      -1.7830000980     0.0173985814     0.7214068013
    5      C      -0.9161115466     0.7006790764    -0.0948447647
    6      N       0.2810248855     0.0064487902    -0.1280816712
    7      H       2.2429609398    -0.3674638106    -0.7307422524
    8      H       0.9989702921    -1.7991473641     0.7825333072
    9      H      -1.4898561425    -1.8931308741     1.8767226389
   10      H      -2.8003406699     0.3089719327     0.9457412423
   11      H      -1.0291947439     1.6126125385    -0.6619588443
   12      C       1.6003380203     1.4440766896    -1.5751185853
   13      H       2.3905917359     1.8656403010    -2.1768311679
 ----------------------------------------------------------------
 Nuclear Repulsion Energy =   262.3966044073 hartrees
 There are       25 alpha and       24 beta electrons
 Applying Cartesian multipole field
    Component          Value
    ---------          -----
     (2,0,0)        1.00000E-11
     (0,2,0)        2.00000E-11
     (0,0,2)       -3.00000E-11
 Nucleus-field energy     =     0.0000000014 hartrees
 Requested basis set is 6-31G(d)
 There are 40 shells and 117 basis functions
 A cutoff of  1.0D-14 yielded    781 shell pairs
 There are      6992 function pairs
 Smallest overlap matrix eigenvalue = 1.00E-03
 Guess MOs from SCF MO coefficient file
 Reading MOs from coefficient file
 Reading MOs from coefficient file
 An unrestricted hybrid HF-DFT SCF calculation will be
 performed using Pulay DIIS extrapolation
 Exchange:     0.2000 Hartree-Fock + 0.0800 Slater + 0.7200 B88
 Correlation:  0.1900 VWN1RPA + 0.8100 LYP
 Using SG-1 standard quadrature grid
 SCF converges when DIIS error is below 1.0E-08
 Geometry optimization detected.  Setting ReadMinima to 0
 Setting SaveMinima to 0
Using Q-Chem read-in guess as SCF_GUESS READ specified.

 using 4 threads for integral computing
 -------------------------------------------------------
 OpenMP Integral computing Module                
 Release: version 1.0, May 2013, Q-Chem Inc. Pittsburgh 
 -------------------------------------------------------
 -------------------------------------------------------
 OpenMP BLAS3 based DFT computing Module                
 Release: version 1.0, May 2013, Q-Chem Inc. Pittsburgh 
 -------------------------------------------------------
 ---------------------------------------
  Cycle       Energy         DIIS Error
 ---------------------------------------
    1    -286.8724646949      1.59E-04
    2    -286.8723660484      1.40E-05
    3    -286.8723667987      2.08E-05
    4    -286.8723677273      4.60E-06
    5    -286.8723679332      2.68E-06
    6    -286.8723680153      1.17E-06
    7    -286.8723680578      6.62E-07
    8    -286.8723680699      4.34E-07
    9    -286.8723680728      1.32E-07
   10    -286.8723680729      3.45E-08
   11    -286.8723680729      1.63E-08
   12    -286.8723680729      2.41E-09 Convergence criterion met
 ---------------------------------------
 <S^2> = 0.7625
 SCF time:  CPU 28.52 s  wall 8.91 s
 SCF   energy in the final basis set = -286.87236807
 Total energy in the final basis set = -286.87236807
 
 --------------------------------------------------------------
 
                    Orbital Energies (a.u.)
 --------------------------------------------------------------
 
 Alpha MOs
 -- Occupied --
-14.392 -10.242 -10.214 -10.205 -10.201 -10.171 -10.170  -0.988
 -0.817  -0.737  -0.720  -0.618  -0.574  -0.545  -0.513  -0.476
 -0.428  -0.423  -0.417  -0.386  -0.374  -0.303  -0.255  -0.224
 -0.210
 -- Virtual --
 -0.008   0.076   0.091   0.101   0.127   0.136   0.165   0.176
  0.179   0.223   0.237   0.282   0.339   0.362   0.391   0.456
  0.488   0.507   0.536   0.556   0.561   0.588   0.590   0.596
  0.606   0.619   0.622   0.650   0.673   0.704   0.800   0.810
  0.829   0.847   0.856   0.857   0.888   0.921   0.928   0.957
  0.982   1.034   1.083   1.127   1.200   1.216   1.274   1.346
  1.385   1.387   1.429   1.458   1.493   1.496   1.551   1.558
  1.676   1.742   1.818   1.878   1.930   1.982   2.003   2.006
  2.071   2.080   2.153   2.178   2.210   2.250   2.269   2.302
  2.336   2.340   2.532   2.550   2.592   2.648   2.682   2.719
  2.776   2.858   3.044   3.100   3.178   3.977   4.069   4.121
  4.171   4.273   4.472   4.474
 
 Beta MOs
 -- Occupied --
-14.391 -10.243 -10.205 -10.201 -10.198 -10.171 -10.170  -0.987
 -0.812  -0.725  -0.717  -0.606  -0.573  -0.543  -0.500  -0.466
 -0.424  -0.424  -0.414  -0.385  -0.374  -0.301  -0.216  -0.211
 -- Virtual --
 -0.087   0.001   0.077   0.091   0.109   0.128   0.143   0.165
  0.176   0.181   0.228   0.239   0.286   0.342   0.372   0.403
  0.461   0.498   0.507   0.539   0.560   0.568   0.588   0.594
  0.601   0.619   0.628   0.633   0.666   0.672   0.705   0.806
  0.811   0.831   0.849   0.856   0.859   0.901   0.927   0.934
  0.958   0.987   1.040   1.092   1.129   1.203   1.220   1.278
  1.346   1.386   1.388   1.441   1.461   1.495   1.498   1.551
  1.559   1.736   1.762   1.840   1.886   1.948   1.985   2.006
  2.014   2.076   2.086   2.165   2.181   2.211   2.250   2.273
  2.306   2.337   2.341   2.534   2.563   2.596   2.655   2.685
  2.719   2.787   2.861   3.044   3.102   3.185   3.977   4.102
  4.121   4.171   4.277   4.474   4.474
 --------------------------------------------------------------
 
          Ground-State Mulliken Net Atomic Charges

     Atom                 Charge (a.u.)    Spin (a.u.)
  --------------------------------------------------------
      1 C                     0.067956      -0.140343
      2 C                     0.027391      -0.002628
      3 C                    -0.193241      -0.005385
      4 C                    -0.186824      -0.008640
      5 C                     0.037393       0.008929
      6 N                    -0.401097       0.019389
      7 H                     0.163180       0.068790
      8 H                     0.145010       0.000098
      9 H                     0.128570       0.001013
     10 H                     0.128900       0.000824
     11 H                     0.154966       0.000526
     12 C                    -0.244335       1.062258
     13 H                     0.172133      -0.004830
  --------------------------------------------------------
  Sum of atomic charges =    -0.000000
  Sum of spin   charges =     1.000000

 -----------------------------------------------------------------
                    Cartesian Multipole Moments
 -----------------------------------------------------------------
    Charge (ESU x 10^10)
                 0.0000
    Dipole Moment (Debye)
         X       1.3468      Y      -0.1866      Z      -0.4678
       Tot       1.4379
    Quadrupole Moments (Debye-Ang)
        XX     -35.6032     XY      -1.4172     YY     -39.3411
        XZ      -2.9492     YZ      -3.0911     ZZ     -41.5814
    Octopole Moments (Debye-Ang^2)
       XXX       8.7741    XXY       0.9471    XYY       3.3435
       YYY      -5.5830    XXZ      -2.9396    XYZ      -1.8967
       YYZ       0.1708    XZZ       4.3594    YZZ      -0.9027
       ZZZ      -0.8340
    Hexadecapole Moments (Debye-Ang^3)
      XXXX    -406.4572   XXXY     -54.0716   XXYY    -107.4908
      XYYY     -56.5945   YYYY    -259.7614   XXXZ      90.1111
      XXYZ      16.1188   XYYZ      30.5441   YYYZ      82.2997
      XXZZ    -101.3834   XYZZ      -4.0205   YYZZ     -76.1747
      XZZZ     109.8474   YZZZ      85.3482   ZZZZ    -271.1608
 -----------------------------------------------------------------
 Calculating analytic gradient of the SCF energy
 Gradient of SCF Energy
            1           2           3           4           5           6
    1  -0.0001013   0.0000158   0.0000210   0.0000757  -0.0001593   0.0001020
    2  -0.0000437  -0.0001301   0.0000183  -0.0000440   0.0000199   0.0001316
    3   0.0001194  -0.0001260  -0.0000427   0.0000339  -0.0000641   0.0001814
            7           8           9          10          11          12
    1  -0.0000177  -0.0000004   0.0000293   0.0000044   0.0000113  -0.0000492
    2  -0.0000487   0.0000075   0.0000230   0.0000157  -0.0000297   0.0001194
    3  -0.0001420   0.0000364   0.0000439  -0.0000169  -0.0000810   0.0000673
           13
    1   0.0000684
    2  -0.0000392
    3  -0.0000097
 Max gradient component =       1.814E-04
 RMS gradient           =       7.589E-05
 Gradient time:  CPU 7.07 s  wall 1.87 s
 Geometry Optimization Parameters
   NAtoms,    NIC,     NZ,  NCons,   NDum,   NFix, NCnnct, MaxDiis
       13      84       0       0       0       0       0       0

 Cartesian Hessian Update
 Hessian Updated using BFGS Update


** GEOMETRY OPTIMIZATION IN DELOCALIZED INTERNAL COORDINATES **
   Searching for a Minimum

   Optimization Cycle:   2

                       Coordinates (Angstroms)
     ATOM                X               Y               Z
      1  C         1.4367540478    0.3632072230   -0.8382951205
      2  C         0.1650339478   -1.1206149384    0.6709304962
      3  C        -1.0971706683   -1.1386781455    1.2085379204
      4  C        -1.7830000980    0.0173985814    0.7214068013
      5  C        -0.9161115466    0.7006790764   -0.0948447647
      6  N         0.2810248855    0.0064487902   -0.1280816712
      7  H         2.2429609398   -0.3674638106   -0.7307422524
      8  H         0.9989702921   -1.7991473641    0.7825333072
      9  H        -1.4898561425   -1.8931308741    1.8767226389
     10  H        -2.8003406699    0.3089719327    0.9457412423
     11  H        -1.0291947439    1.6126125385   -0.6619588443
     12  C         1.6003380203    1.4440766896   -1.5751185853
     13  H         2.3905917359    1.8656403010   -2.1768311679
   Point Group: c1    Number of degrees of freedom:    33


   Energy is   -286.872368073

 Hessian Updated using BFGS Update

 32 Hessian modes will be used to form the next step
  Hessian Eigenvalues:
     0.005678    0.016860    0.019890    0.020576    0.021838    0.022267
     0.022771    0.023816    0.028550    0.033833    0.152971    0.159992
     0.159996    0.159997    0.162007    0.218622    0.220075    0.242636
     0.254723    0.344257    0.357813    0.358004    0.359032    0.360233
     0.367168    0.389190    0.433518    0.456612    0.467540    0.489156
     0.511077    0.628625

 Minimum Search - Taking Simple RFO Step
 Searching for Lamda that Minimizes Along All modes
 Value Taken    Lamda =  -0.00001317
 Step Taken.  Stepsize is  0.046584

                             Maximum     Tolerance    Cnvgd?
         Gradient           0.000161      0.000600     YES
         Displacement       0.032465      0.002400      NO
         Energy change     -0.000008      0.000002      NO


 New Cartesian Coordinates Obtained by Inverse Iteration

 Displacement from previous Coordinates is:  0.067873
 ----------------------------------------------------------------
             Standard Nuclear Orientation (Angstroms)
    I     Atom           X                Y                Z
 ----------------------------------------------------------------
    1      C       1.4387132508     0.3638207217    -0.8354413519
    2      C       0.1646252823    -1.1217420470     0.6704812992
    3      C      -1.0984903649    -1.1403721453     1.2057641532
    4      C      -1.7823866461     0.0180032733     0.7207434250
    5      C      -0.9136017149     0.7020691223    -0.0928719001
    6      N       0.2817031436     0.0051752231    -0.1283637876
    7      H       2.2515331025    -0.3563799157    -0.7097689675
    8      H       0.9972136527    -1.8020469045     0.7795458383
    9      H      -1.4935662493    -1.8973196241     1.8697002580
   10      H      -2.7988744174     0.3112241960     0.9469866511
   11      H      -1.0246061354     1.6182049404    -0.6535522891
   12      C       1.5950973973     1.4368784880    -1.5852719472
   13      H       2.3826396989     1.8624846717    -2.1879513815
 ----------------------------------------------------------------
 Nuclear Repulsion Energy =   262.4140625623 hartrees
 There are       25 alpha and       24 beta electrons
 Applying Cartesian multipole field
    Component          Value
    ---------          -----
     (2,0,0)        1.00000E-11
     (0,2,0)        2.00000E-11
     (0,0,2)       -3.00000E-11
 Nucleus-field energy     =     0.0000000014 hartrees
 Requested basis set is 6-31G(d)
 There are 40 shells and 117 basis functions
 A cutoff of  1.0D-14 yielded    781 shell pairs
 There are      6992 function pairs
 Smallest overlap matrix eigenvalue = 1.00E-03
 Guess MOs from SCF MO coefficient file
 Reading MOs from coefficient file
 Reading MOs from coefficient file
 An unrestricted hybrid HF-DFT SCF calculation will be
 performed using Pulay DIIS extrapolation
 Exchange:     0.2000 Hartree-Fock + 0.0800 Slater + 0.7200 B88
 Correlation:  0.1900 VWN1RPA + 0.8100 LYP
 Using SG-1 standard quadrature grid
 SCF converges when DIIS error is below 1.0E-08
 Geometry optimization detected.  Setting ReadMinima to 0
 Setting SaveMinima to 0
Using Q-Chem read-in guess as SCF_GUESS READ specified.

 using 4 threads for integral computing
 -------------------------------------------------------
 OpenMP Integral computing Module                
 Release: version 1.0, May 2013, Q-Chem Inc. Pittsburgh 
 -------------------------------------------------------
 -------------------------------------------------------
 OpenMP BLAS3 based DFT computing Module                
 Release: version 1.0, May 2013, Q-Chem Inc. Pittsburgh 
 -------------------------------------------------------
 ---------------------------------------
  Cycle       Energy         DIIS Error
 ---------------------------------------
    1    -286.8722269492      3.40E-04
    2    -286.8723659004      2.29E-05
    3    -286.8723713207      1.69E-05
    4    -286.8723723424      1.31E-05
    5    -286.8723731628      4.13E-06
    6    -286.8723734758      2.16E-06
    7    -286.8723735978      1.33E-06
    8    -286.8723736477      7.28E-07
    9    -286.8723736544      2.73E-07
   10    -286.8723736547      5.65E-08
   11    -286.8723736548      2.59E-08
   12    -286.8723736548      7.37E-09 Convergence criterion met
 ---------------------------------------
 <S^2> = 0.7626
 SCF time:  CPU 28.47 s  wall 10.28 s
 SCF   energy in the final basis set = -286.87237365
 Total energy in the final basis set = -286.87237365
 
 --------------------------------------------------------------
 
                    Orbital Energies (a.u.)
 --------------------------------------------------------------
 
 Alpha MOs
 -- Occupied --
-14.392 -10.242 -10.214 -10.205 -10.201 -10.171 -10.170  -0.988
 -0.817  -0.737  -0.720  -0.618  -0.574  -0.545  -0.513  -0.476
 -0.428  -0.423  -0.417  -0.386  -0.374  -0.303  -0.255  -0.224
 -0.210
 -- Virtual --
 -0.008   0.076   0.091   0.101   0.127   0.136   0.165   0.176
  0.180   0.224   0.237   0.282   0.339   0.362   0.391   0.456
  0.488   0.507   0.536   0.556   0.561   0.589   0.590   0.596
  0.606   0.619   0.622   0.650   0.673   0.704   0.800   0.810
  0.829   0.847   0.856   0.857   0.887   0.921   0.928   0.956
  0.982   1.034   1.082   1.128   1.201   1.216   1.274   1.346
  1.385   1.387   1.429   1.458   1.494   1.496   1.551   1.559
  1.676   1.742   1.818   1.878   1.929   1.982   2.004   2.006
  2.072   2.080   2.153   2.178   2.210   2.251   2.269   2.302
  2.336   2.340   2.533   2.549   2.592   2.648   2.682   2.719
  2.777   2.858   3.044   3.100   3.178   3.977   4.069   4.121
  4.171   4.273   4.472   4.474
 
 Beta MOs
 -- Occupied --
-14.391 -10.243 -10.205 -10.201 -10.198 -10.171 -10.170  -0.987
 -0.812  -0.725  -0.717  -0.605  -0.573  -0.543  -0.500  -0.466
 -0.424  -0.424  -0.415  -0.385  -0.374  -0.301  -0.216  -0.211
 -- Virtual --
 -0.087   0.001   0.078   0.091   0.109   0.128   0.143   0.165
  0.176   0.181   0.228   0.239   0.286   0.342   0.372   0.403
  0.461   0.498   0.507   0.539   0.560   0.568   0.589   0.594
  0.601   0.619   0.628   0.633   0.666   0.672   0.705   0.806
  0.811   0.831   0.849   0.857   0.859   0.901   0.927   0.934
  0.958   0.988   1.040   1.092   1.129   1.204   1.220   1.278
  1.346   1.387   1.388   1.441   1.461   1.495   1.498   1.551
  1.559   1.736   1.762   1.840   1.886   1.948   1.985   2.006
  2.013   2.076   2.086   2.165   2.180   2.211   2.250   2.273
  2.306   2.337   2.341   2.534   2.563   2.595   2.655   2.685
  2.719   2.788   2.861   3.044   3.102   3.185   3.978   4.102
  4.121   4.171   4.277   4.474   4.474
 --------------------------------------------------------------
 
          Ground-State Mulliken Net Atomic Charges

     Atom                 Charge (a.u.)    Spin (a.u.)
  --------------------------------------------------------
      1 C                     0.068161      -0.140637
      2 C                     0.027417      -0.002613
      3 C                    -0.193259      -0.005408
      4 C                    -0.186863      -0.008659
      5 C                     0.037430       0.008989
      6 N                    -0.401113       0.019482
      7 H                     0.163097       0.068797
      8 H                     0.144963       0.000097
      9 H                     0.128555       0.001023
     10 H                     0.128874       0.000825
     11 H                     0.154981       0.000534
     12 C                    -0.244533       1.062552
     13 H                     0.172289      -0.004983
  --------------------------------------------------------
  Sum of atomic charges =    -0.000000
  Sum of spin   charges =     1.000000

 -----------------------------------------------------------------
                    Cartesian Multipole Moments
 -----------------------------------------------------------------
    Charge (ESU x 10^10)
                -0.0000
    Dipole Moment (Debye)
         X       1.3539      Y      -0.1732      Z      -0.4537
       Tot       1.4384
    Quadrupole Moments (Debye-Ang)
        XX     -35.5888     XY      -1.3911     YY     -39.3108
        XZ      -2.9308     YZ      -3.1023     ZZ     -41.6137
    Octopole Moments (Debye-Ang^2)
       XXX       8.8603    XXY       0.9953    XYY       3.3077
       YYY      -5.4523    XXZ      -2.7964    XYZ      -1.9499
       YYZ       0.2087    XZZ       4.3710    YZZ      -0.7654
       ZZZ      -0.7739
    Hexadecapole Moments (Debye-Ang^3)
      XXXX    -405.8725   XXXY     -53.8342   XXYY    -107.3726
      XYYY     -56.3505   YYYY    -259.2125   XXXZ      90.3443
      XXYZ      16.1026   XYYZ      30.4990   YYYZ      82.2494
      XXZZ    -101.4800   XYZZ      -3.8007   YYZZ     -76.1617
      XZZZ     109.8322   YZZZ      85.2480   ZZZZ    -271.6583
 -----------------------------------------------------------------
 Calculating analytic gradient of the SCF energy
 Gradient of SCF Energy
            1           2           3           4           5           6
    1  -0.0001228   0.0001408   0.0001016  -0.0000268   0.0002603  -0.0000262
    2  -0.0001913   0.0000967  -0.0000948   0.0001028   0.0001183  -0.0003860
    3   0.0001149   0.0002425  -0.0000123  -0.0001231  -0.0000319  -0.0002851
            7           8           9          10          11          12
    1  -0.0001093  -0.0000720  -0.0000123  -0.0000196  -0.0000762  -0.0001363
    2  -0.0000279   0.0001340  -0.0000504  -0.0000002   0.0000440   0.0001596
    3   0.0000633   0.0000043  -0.0000595   0.0000481   0.0000667   0.0001340
           13
    1   0.0000987
    2   0.0000952
    3  -0.0001618
 Max gradient component =       3.860E-04
 RMS gradient           =       1.321E-04
 Gradient time:  CPU 7.22 s  wall 1.93 s
 Geometry Optimization Parameters
   NAtoms,    NIC,     NZ,  NCons,   NDum,   NFix, NCnnct, MaxDiis
       13      84       0       0       0       0       0       0

 Cartesian Hessian Update
 Hessian Updated using BFGS Update


** GEOMETRY OPTIMIZATION IN DELOCALIZED INTERNAL COORDINATES **
   Searching for a Minimum

   Optimization Cycle:   3

                       Coordinates (Angstroms)
     ATOM                X               Y               Z
      1  C         1.4387132508    0.3638207217   -0.8354413519
      2  C         0.1646252823   -1.1217420470    0.6704812992
      3  C        -1.0984903649   -1.1403721453    1.2057641532
      4  C        -1.7823866461    0.0180032733    0.7207434250
      5  C        -0.9136017149    0.7020691223   -0.0928719001
      6  N         0.2817031436    0.0051752231   -0.1283637876
      7  H         2.2515331025   -0.3563799157   -0.7097689675
      8  H         0.9972136527   -1.8020469045    0.7795458383
      9  H        -1.4935662493   -1.8973196241    1.8697002580
     10  H        -2.7988744174    0.3112241960    0.9469866511
     11  H        -1.0246061354    1.6182049404   -0.6535522891
     12  C         1.5950973973    1.4368784880   -1.5852719472
     13  H         2.3826396989    1.8624846717   -2.1879513815
   Point Group: c1    Number of degrees of freedom:    33


   Energy is   -286.872373655

 Hessian Updated using BFGS Update

 33 Hessian modes will be used to form the next step
  Hessian Eigenvalues:
     0.004180    0.017449    0.020242    0.021543    0.021938    0.022302
     0.022756    0.023871    0.033517    0.037421    0.157232    0.159993
     0.159996    0.159999    0.160167    0.164234    0.219949    0.220835
     0.242410    0.256992    0.344369    0.357827    0.358006    0.359273
     0.360266    0.368279    0.391620    0.433589    0.456861    0.470262
     0.489237    0.511773    0.631603

 Minimum Search - Taking Simple RFO Step
 Searching for Lamda that Minimizes Along All modes
 Value Taken    Lamda =  -0.00000409
 Step Taken.  Stepsize is  0.016150

                             Maximum     Tolerance    Cnvgd?
         Gradient           0.000303      0.000600     YES
         Displacement       0.012331      0.002400      NO
         Energy change     -0.000006      0.000002      NO


 New Cartesian Coordinates Obtained by Inverse Iteration

 Displacement from previous Coordinates is:  0.021663
 ----------------------------------------------------------------
             Standard Nuclear Orientation (Angstroms)
    I     Atom           X                Y                Z
 ----------------------------------------------------------------
    1      C       1.4396696490     0.3651931586    -0.8338948567
    2      C       0.1638867592    -1.1224281911     0.6689854999
    3      C      -1.0987430259    -1.1405190418     1.2056334287
    4      C      -1.7825456759     0.0180966663     0.7214202310
    5      C      -0.9138226221     0.7023053666    -0.0921876805
    6      N       0.2820986617     0.0063627157    -0.1271844754
    7      H       2.2545377507    -0.3519436458    -0.7035952845
    8      H       0.9957911859    -1.8041475097     0.7760316639
    9      H      -1.4939123742    -1.8979006138     1.8690138022
   10      H      -2.7990343601     0.3111635976     0.9477024609
   11      H      -1.0245983357     1.6187524986    -0.6523531024
   12      C       1.5945938784     1.4349132660    -1.5885109264
   13      H       2.3820785091     1.8601517329    -2.1910607607
 ----------------------------------------------------------------
 Nuclear Repulsion Energy =   262.3971096233 hartrees
 There are       25 alpha and       24 beta electrons
 Applying Cartesian multipole field
    Component          Value
    ---------          -----
     (2,0,0)        1.00000E-11
     (0,2,0)        2.00000E-11
     (0,0,2)       -3.00000E-11
 Nucleus-field energy     =     0.0000000013 hartrees
 Requested basis set is 6-31G(d)
 There are 40 shells and 117 basis functions
 A cutoff of  1.0D-14 yielded    781 shell pairs
 There are      6992 function pairs
 Smallest overlap matrix eigenvalue = 1.00E-03
 Guess MOs from SCF MO coefficient file
 Reading MOs from coefficient file
 Reading MOs from coefficient file
 An unrestricted hybrid HF-DFT SCF calculation will be
 performed using Pulay DIIS extrapolation
 Exchange:     0.2000 Hartree-Fock + 0.0800 Slater + 0.7200 B88
 Correlation:  0.1900 VWN1RPA + 0.8100 LYP
 Using SG-1 standard quadrature grid
 SCF converges when DIIS error is below 1.0E-08
 Geometry optimization detected.  Setting ReadMinima to 0
 Setting SaveMinima to 0
Using Q-Chem read-in guess as SCF_GUESS READ specified.

 using 4 threads for integral computing
 -------------------------------------------------------
 OpenMP Integral computing Module                
 Release: version 1.0, May 2013, Q-Chem Inc. Pittsburgh 
 -------------------------------------------------------
 -------------------------------------------------------
 OpenMP BLAS3 based DFT computing Module                
 Release: version 1.0, May 2013, Q-Chem Inc. Pittsburgh 
 -------------------------------------------------------
 ---------------------------------------
  Cycle       Energy         DIIS Error
 ---------------------------------------
    1    -286.8722857365      1.32E-04
    2    -286.8723748978      1.02E-05
    3    -286.8723751381      1.47E-05
    4    -286.8723755658      3.62E-06
    5    -286.8723756406      1.48E-06
    6    -286.8723756691      8.71E-07
    7    -286.8723756829      4.34E-07
    8    -286.8723756885      2.68E-07
    9    -286.8723756901      8.15E-08
   10    -286.8723756901      2.30E-08
   11    -286.8723756901      1.11E-08
   12    -286.8723756901      1.56E-09 Convergence criterion met
 ---------------------------------------
 <S^2> = 0.7625
 SCF time:  CPU 28.06 s  wall 9.50 s
 SCF   energy in the final basis set = -286.87237569
 Total energy in the final basis set = -286.87237569
 
 --------------------------------------------------------------
 
                    Orbital Energies (a.u.)
 --------------------------------------------------------------
 
 Alpha MOs
 -- Occupied --
-14.392 -10.242 -10.214 -10.205 -10.201 -10.171 -10.170  -0.988
 -0.817  -0.737  -0.720  -0.618  -0.574  -0.544  -0.513  -0.476
 -0.428  -0.423  -0.417  -0.386  -0.374  -0.303  -0.255  -0.224
 -0.210
 -- Virtual --
 -0.008   0.076   0.091   0.101   0.127   0.136   0.165   0.176
  0.179   0.224   0.237   0.282   0.339   0.362   0.391   0.456
  0.488   0.507   0.536   0.556   0.561   0.589   0.590   0.596
  0.606   0.619   0.622   0.650   0.673   0.704   0.800   0.810
  0.829   0.847   0.856   0.857   0.888   0.921   0.928   0.956
  0.982   1.034   1.082   1.128   1.201   1.216   1.274   1.346
  1.385   1.387   1.429   1.458   1.493   1.496   1.551   1.559
  1.676   1.742   1.818   1.878   1.929   1.982   2.003   2.005
  2.072   2.080   2.152   2.178   2.210   2.251   2.269   2.302
  2.336   2.339   2.533   2.549   2.592   2.648   2.682   2.719
  2.777   2.858   3.044   3.100   3.178   3.977   4.069   4.121
  4.171   4.273   4.472   4.474
 
 Beta MOs
 -- Occupied --
-14.391 -10.243 -10.205 -10.201 -10.198 -10.171 -10.170  -0.987
 -0.812  -0.725  -0.717  -0.606  -0.573  -0.543  -0.500  -0.466
 -0.424  -0.424  -0.414  -0.385  -0.374  -0.301  -0.216  -0.211
 -- Virtual --
 -0.087   0.001   0.078   0.091   0.109   0.128   0.143   0.165
  0.176   0.181   0.228   0.239   0.286   0.342   0.372   0.403
  0.461   0.498   0.507   0.539   0.560   0.567   0.589   0.594
  0.601   0.619   0.628   0.633   0.666   0.672   0.705   0.806
  0.811   0.831   0.849   0.857   0.859   0.901   0.927   0.934
  0.958   0.988   1.040   1.092   1.129   1.204   1.220   1.278
  1.346   1.387   1.388   1.441   1.461   1.495   1.498   1.551
  1.559   1.736   1.762   1.840   1.886   1.948   1.985   2.006
  2.013   2.076   2.086   2.165   2.180   2.211   2.250   2.273
  2.306   2.337   2.340   2.534   2.563   2.595   2.655   2.685
  2.719   2.788   2.861   3.044   3.102   3.185   3.977   4.102
  4.121   4.171   4.277   4.474   4.474
 --------------------------------------------------------------
 
          Ground-State Mulliken Net Atomic Charges

     Atom                 Charge (a.u.)    Spin (a.u.)
  --------------------------------------------------------
      1 C                     0.068152      -0.140605
      2 C                     0.027349      -0.002612
      3 C                    -0.193220      -0.005396
      4 C                    -0.186799      -0.008653
      5 C                     0.037384       0.008969
      6 N                    -0.401186       0.019526
      7 H                     0.163153       0.068825
      8 H                     0.144916       0.000097
      9 H                     0.128560       0.001022
     10 H                     0.128891       0.000825
     11 H                     0.154901       0.000534
     12 C                    -0.244424       1.062509
     13 H                     0.172321      -0.005040
  --------------------------------------------------------
  Sum of atomic charges =     0.000000
  Sum of spin   charges =     1.000000

 -----------------------------------------------------------------
                    Cartesian Multipole Moments
 -----------------------------------------------------------------
    Charge (ESU x 10^10)
                -0.0000
    Dipole Moment (Debye)
         X       1.3560      Y      -0.1710      Z      -0.4524
       Tot       1.4397
    Quadrupole Moments (Debye-Ang)
        XX     -35.5778     XY      -1.3827     YY     -39.3097
        XZ      -2.9294     YZ      -3.1032     ZZ     -41.6210
    Octopole Moments (Debye-Ang^2)
       XXX       8.9044    XXY       1.0084    XYY       3.2996
       YYY      -5.4737    XXZ      -2.7832    XYZ      -1.9541
       YYZ       0.2148    XZZ       4.3677    YZZ      -0.7432
       ZZZ      -0.7805
    Hexadecapole Moments (Debye-Ang^3)
      XXXX    -405.8494   XXXY     -53.8033   XXYY    -107.4160
      XYYY     -56.3704   YYYY    -259.0938   XXXZ      90.4324
      XXYZ      16.0942   XYYZ      30.5342   YYYZ      82.2727
      XXZZ    -101.5239   XYZZ      -3.7550   YYZZ     -76.1930
      XZZZ     109.8756   YZZZ      85.2258   ZZZZ    -271.7949
 -----------------------------------------------------------------
 Calculating analytic gradient of the SCF energy
 Gradient of SCF Energy
            1           2           3           4           5           6
    1   0.0000635  -0.0000777   0.0000561  -0.0000731   0.0001196   0.0000446
    2   0.0000160   0.0000071   0.0000437   0.0000646  -0.0000959  -0.0000886
    3   0.0000360  -0.0000584   0.0001697  -0.0000324  -0.0001088  -0.0000399
            7           8           9          10          11          12
    1  -0.0000374  -0.0000116  -0.0000146  -0.0000063  -0.0000521   0.0000297
    2  -0.0000069   0.0000215  -0.0000259  -0.0000202  -0.0000055   0.0000730
    3   0.0000265  -0.0000442  -0.0000348   0.0000370   0.0000368   0.0000854
           13
    1  -0.0000406
    2   0.0000171
    3  -0.0000730
 Max gradient component =       1.697E-04
 RMS gradient           =       5.986E-05
 Gradient time:  CPU 7.20 s  wall 1.83 s
 Geometry Optimization Parameters
   NAtoms,    NIC,     NZ,  NCons,   NDum,   NFix, NCnnct, MaxDiis
       13      84       0       0       0       0       0       0

 Cartesian Hessian Update
 Hessian Updated using BFGS Update


** GEOMETRY OPTIMIZATION IN DELOCALIZED INTERNAL COORDINATES **
   Searching for a Minimum

   Optimization Cycle:   4

                       Coordinates (Angstroms)
     ATOM                X               Y               Z
      1  C         1.4396696490    0.3651931586   -0.8338948567
      2  C         0.1638867592   -1.1224281911    0.6689854999
      3  C        -1.0987430259   -1.1405190418    1.2056334287
      4  C        -1.7825456759    0.0180966663    0.7214202310
      5  C        -0.9138226221    0.7023053666   -0.0921876805
      6  N         0.2820986617    0.0063627157   -0.1271844754
      7  H         2.2545377507   -0.3519436458   -0.7035952845
      8  H         0.9957911859   -1.8041475097    0.7760316639
      9  H        -1.4939123742   -1.8979006138    1.8690138022
     10  H        -2.7990343601    0.3111635976    0.9477024609
     11  H        -1.0245983357    1.6187524986   -0.6523531024
     12  C         1.5945938784    1.4349132660   -1.5885109264
     13  H         2.3820785091    1.8601517329   -2.1910607607
   Point Group: c1    Number of degrees of freedom:    33


   Energy is   -286.872375690

 Hessian Updated using BFGS Update

 33 Hessian modes will be used to form the next step
  Hessian Eigenvalues:
     0.003969    0.015058    0.019797    0.021564    0.021830    0.022487
     0.022780    0.023713    0.032106    0.054350    0.150405    0.159581
     0.159996    0.159998    0.160021    0.161665    0.217211    0.220072
     0.244380    0.254927    0.344188    0.357787    0.358003    0.358818
     0.360183    0.367144    0.388333    0.433404    0.456194    0.468417
     0.489174    0.514581    0.625401

 Minimum Search - Taking Simple RFO Step
 Searching for Lamda that Minimizes Along All modes
 Value Taken    Lamda =  -0.00000123
 Step Taken.  Stepsize is  0.007759

                             Maximum     Tolerance    Cnvgd?
         Gradient           0.000119      0.000600     YES
         Displacement       0.004521      0.002400      NO
         Energy change     -0.000002      0.000002      NO


 New Cartesian Coordinates Obtained by Inverse Iteration

 Displacement from previous Coordinates is:  0.010772
 ----------------------------------------------------------------
             Standard Nuclear Orientation (Angstroms)
    I     Atom           X                Y                Z
 ----------------------------------------------------------------
    1      C       1.4395560989     0.3657077845    -0.8335074088
    2      C       0.1640876335    -1.1220938206     0.6691453803
    3      C      -1.0989896397    -1.1411723380     1.2046484850
    4      C      -1.7826979750     0.0178937292     0.7214986730
    5      C      -0.9138194978     0.7032903081    -0.0908691091
    6      N       0.2822663649     0.0075501480    -0.1259183610
    7      H       2.2549463746    -0.3506935164    -0.7021488862
    8      H       0.9960610008    -1.8038452674     0.7761472699
    9      H      -1.4941250614    -1.8989752508     1.8675625726
   10      H      -2.7994324909     0.3104731765     0.9472084333
   11      H      -1.0242894736     1.6200118143    -0.6506948193
   12      C       1.5941842698     1.4338044708    -1.5903492516
   13      H       2.3822523960     1.8580487618    -2.1927229781
 ----------------------------------------------------------------
 Nuclear Repulsion Energy =   262.3946920646 hartrees
 There are       25 alpha and       24 beta electrons
 Applying Cartesian multipole field
    Component          Value
    ---------          -----
     (2,0,0)        1.00000E-11
     (0,2,0)        2.00000E-11
     (0,0,2)       -3.00000E-11
 Nucleus-field energy     =     0.0000000013 hartrees
 Requested basis set is 6-31G(d)
 There are 40 shells and 117 basis functions
 A cutoff of  1.0D-14 yielded    781 shell pairs
 There are      6992 function pairs
 Smallest overlap matrix eigenvalue = 1.00E-03
 Guess MOs from SCF MO coefficient file
 Reading MOs from coefficient file
 Reading MOs from coefficient file
 An unrestricted hybrid HF-DFT SCF calculation will be
 performed using Pulay DIIS extrapolation
 Exchange:     0.2000 Hartree-Fock + 0.0800 Slater + 0.7200 B88
 Correlation:  0.1900 VWN1RPA + 0.8100 LYP
 Using SG-1 standard quadrature grid
 SCF converges when DIIS error is below 1.0E-08
 Geometry optimization detected.  Setting ReadMinima to 0
 Setting SaveMinima to 0
Using Q-Chem read-in guess as SCF_GUESS READ specified.

 using 4 threads for integral computing
 -------------------------------------------------------
 OpenMP Integral computing Module                
 Release: version 1.0, May 2013, Q-Chem Inc. Pittsburgh 
 -------------------------------------------------------
 -------------------------------------------------------
 OpenMP BLAS3 based DFT computing Module                
 Release: version 1.0, May 2013, Q-Chem Inc. Pittsburgh 
 -------------------------------------------------------
 ---------------------------------------
  Cycle       Energy         DIIS Error
 ---------------------------------------
    1    -286.8724242009      7.77E-05
    2    -286.8723764738      4.92E-06
    3    -286.8723765033      6.40E-06
    4    -286.8723765709      1.99E-06
    5    -286.8723765797      5.67E-07
    6    -286.8723765811      3.11E-07
    7    -286.8723765817      1.20E-07
    8    -286.8723765819      6.22E-08
    9    -286.8723765821      2.86E-08
   10    -286.8723765821      9.96E-09 Convergence criterion met
 ---------------------------------------
 <S^2> = 0.7625
 SCF time:  CPU 23.90 s  wall 7.28 s
 SCF   energy in the final basis set = -286.87237658
 Total energy in the final basis set = -286.87237658
 
 --------------------------------------------------------------
 
                    Orbital Energies (a.u.)
 --------------------------------------------------------------
 
 Alpha MOs
 -- Occupied --
-14.392 -10.242 -10.214 -10.205 -10.201 -10.171 -10.170  -0.988
 -0.817  -0.737  -0.720  -0.618  -0.574  -0.544  -0.513  -0.476
 -0.428  -0.423  -0.417  -0.386  -0.374  -0.303  -0.255  -0.224
 -0.210
 -- Virtual --
 -0.008   0.076   0.091   0.101   0.127   0.136   0.165   0.176
  0.179   0.224   0.237   0.282   0.339   0.362   0.391   0.456
  0.488   0.507   0.536   0.556   0.561   0.589   0.590   0.596
  0.606   0.619   0.622   0.650   0.673   0.704   0.800   0.810
  0.829   0.847   0.856   0.857   0.888   0.921   0.928   0.956
  0.982   1.034   1.083   1.128   1.201   1.217   1.274   1.346
  1.385   1.387   1.429   1.458   1.493   1.496   1.551   1.558
  1.676   1.742   1.818   1.878   1.929   1.982   2.003   2.005
  2.071   2.080   2.153   2.178   2.211   2.251   2.269   2.302
  2.337   2.339   2.533   2.549   2.592   2.648   2.682   2.719
  2.776   2.858   3.044   3.100   3.178   3.977   4.069   4.121
  4.171   4.273   4.472   4.474
 
 Beta MOs
 -- Occupied --
-14.391 -10.243 -10.205 -10.201 -10.198 -10.171 -10.170  -0.987
 -0.812  -0.725  -0.717  -0.605  -0.573  -0.543  -0.500  -0.466
 -0.424  -0.424  -0.414  -0.385  -0.374  -0.301  -0.216  -0.211
 -- Virtual --
 -0.087   0.001   0.078   0.091   0.109   0.128   0.143   0.165
  0.176   0.181   0.228   0.239   0.286   0.342   0.372   0.403
  0.461   0.498   0.507   0.539   0.560   0.567   0.589   0.594
  0.601   0.619   0.628   0.633   0.666   0.672   0.705   0.806
  0.811   0.831   0.849   0.857   0.859   0.901   0.927   0.934
  0.958   0.988   1.040   1.092   1.129   1.204   1.221   1.278
  1.346   1.387   1.388   1.441   1.461   1.495   1.498   1.551
  1.559   1.736   1.762   1.840   1.886   1.948   1.985   2.006
  2.013   2.076   2.086   2.165   2.180   2.211   2.250   2.273
  2.306   2.337   2.340   2.534   2.563   2.595   2.655   2.685
  2.719   2.787   2.861   3.044   3.102   3.185   3.977   4.102
  4.121   4.171   4.277   4.474   4.474
 --------------------------------------------------------------
 
          Ground-State Mulliken Net Atomic Charges

     Atom                 Charge (a.u.)    Spin (a.u.)
  --------------------------------------------------------
      1 C                     0.068161      -0.140534
      2 C                     0.027383      -0.002615
      3 C                    -0.193243      -0.005389
      4 C                    -0.186811      -0.008654
      5 C                     0.037417       0.008961
      6 N                    -0.401233       0.019514
      7 H                     0.163153       0.068843
      8 H                     0.144960       0.000097
      9 H                     0.128554       0.001020
     10 H                     0.128885       0.000826
     11 H                     0.154922       0.000533
     12 C                    -0.244437       1.062419
     13 H                     0.172286      -0.005022
  --------------------------------------------------------
  Sum of atomic charges =    -0.000000
  Sum of spin   charges =     1.000000

 -----------------------------------------------------------------
                    Cartesian Multipole Moments
 -----------------------------------------------------------------
    Charge (ESU x 10^10)
                -0.0000
    Dipole Moment (Debye)
         X       1.3562      Y      -0.1711      Z      -0.4507
       Tot       1.4393
    Quadrupole Moments (Debye-Ang)
        XX     -35.5740     XY      -1.3819     YY     -39.3101
        XZ      -2.9252     YZ      -3.1013     ZZ     -41.6277
    Octopole Moments (Debye-Ang^2)
       XXX       8.9178    XXY       0.9973    XYY       3.2857
       YYY      -5.4979    XXZ      -2.7870    XYZ      -1.9512
       YYZ       0.2273    XZZ       4.3795    YZZ      -0.7509
       ZZZ      -0.7905
    Hexadecapole Moments (Debye-Ang^3)
      XXXX    -405.7983   XXXY     -53.7776   XXYY    -107.4372
      XYYY     -56.3832   YYYY    -259.0571   XXXZ      90.4644
      XXYZ      16.0957   XYYZ      30.5691   YYYZ      82.2955
      XXZZ    -101.5384   XYZZ      -3.7517   YYZZ     -76.2295
      XZZZ     109.9052   YZZZ      85.2410   ZZZZ    -271.8858
 -----------------------------------------------------------------
 Calculating analytic gradient of the SCF energy
 Gradient of SCF Energy
            1           2           3           4           5           6
    1   0.0000671  -0.0000246   0.0000422   0.0000071  -0.0000035  -0.0000883
    2   0.0000747  -0.0000136   0.0000287   0.0000439  -0.0000360  -0.0000311
    3  -0.0000220  -0.0000012   0.0000553  -0.0000002  -0.0000462  -0.0000057
            7           8           9          10          11          12
    1  -0.0000029   0.0000180   0.0000009   0.0000074  -0.0000214   0.0000593
    2  -0.0000010  -0.0000271  -0.0000171  -0.0000129   0.0000025   0.0000019
    3  -0.0000001  -0.0000178  -0.0000226   0.0000045   0.0000042   0.0000756
           13
    1  -0.0000613
    2  -0.0000130
    3  -0.0000238
 Max gradient component =       8.828E-05
 RMS gradient           =       3.504E-05
 Gradient time:  CPU 7.00 s  wall 1.84 s
 Geometry Optimization Parameters
   NAtoms,    NIC,     NZ,  NCons,   NDum,   NFix, NCnnct, MaxDiis
       13      84       0       0       0       0       0       0

 Cartesian Hessian Update
 Hessian Updated using BFGS Update


** GEOMETRY OPTIMIZATION IN DELOCALIZED INTERNAL COORDINATES **
   Searching for a Minimum

   Optimization Cycle:   5

                       Coordinates (Angstroms)
     ATOM                X               Y               Z
      1  C         1.4395560989    0.3657077845   -0.8335074088
      2  C         0.1640876335   -1.1220938206    0.6691453803
      3  C        -1.0989896397   -1.1411723380    1.2046484850
      4  C        -1.7826979750    0.0178937292    0.7214986730
      5  C        -0.9138194978    0.7032903081   -0.0908691091
      6  N         0.2822663649    0.0075501480   -0.1259183610
      7  H         2.2549463746   -0.3506935164   -0.7021488862
      8  H         0.9960610008   -1.8038452674    0.7761472699
      9  H        -1.4941250614   -1.8989752508    1.8675625726
     10  H        -2.7994324909    0.3104731765    0.9472084333
     11  H        -1.0242894736    1.6200118143   -0.6506948193
     12  C         1.5941842698    1.4338044708   -1.5903492516
     13  H         2.3822523960    1.8580487618   -2.1927229781
   Point Group: c1    Number of degrees of freedom:    33


   Energy is   -286.872376582

 Hessian Updated using BFGS Update

 33 Hessian modes will be used to form the next step
  Hessian Eigenvalues:
     0.003215    0.010389    0.019488    0.021645    0.022310    0.022703
     0.022801    0.023389    0.030907    0.047957    0.145455    0.159876
     0.159996    0.159998    0.161107    0.162653    0.216873    0.220116
     0.251445    0.268925    0.344265    0.357878    0.358022    0.359605
     0.361326    0.371359    0.388159    0.433791    0.458804    0.475888
     0.489185    0.517383    0.641146

 Minimum Search - Taking Simple RFO Step
 Searching for Lamda that Minimizes Along All modes
 Value Taken    Lamda =   0.00000000
 Step Taken.  Stepsize is  0.012496

                             Maximum     Tolerance    Cnvgd?
         Gradient           0.000051      0.000600     YES
         Displacement       0.006814      0.002400      NO
         Energy change     -0.000001      0.000002     YES


                       Distance Matrix (Angstroms)
             C (  1)   C (  2)   C (  3)   C (  4)   C (  5)   N (  6)
   C (  2)  2.469481
   C (  3)  3.587336  1.372039
   C (  4)  3.594710  2.256610  1.429799
   C (  5)  2.490753  2.252006  2.261569  1.372829
   N (  6)  1.402954  1.386430  2.235585  2.232107  1.384162
   H (  7)  1.093319  2.616715  3.938225  4.297115  3.394941  2.086108
   H (  8)  2.737633  1.080932  2.238746  3.323134  3.268806  2.145782
   H (  9)  4.585963  2.188474  1.081597  2.251916  3.308171  3.280910
   H ( 10)  4.598154  3.303334  2.250568  1.081803  2.188023  3.277229
   H ( 11)  2.770782  3.267011  3.327464  2.241625  1.079809  2.140680
   C ( 12)  1.318162  3.699069  4.657865  4.330448  3.012005  2.428968
   H ( 13)  2.227830  4.689541  5.714587  5.406077  4.076193  3.479363
             H (  7)   H (  8)   H (  9)   H ( 10)   H ( 11)   C ( 12)
   H (  8)  2.425243
   H (  9)  4.801680  2.720526
   H ( 10)  5.357636  4.348031  2.726269
   H ( 11)  3.826188  4.223801  4.352658  2.723843
   C ( 12)  2.099986  4.054680  5.709836  5.196628  2.788194
   H ( 13)  2.667688  4.913775  6.754809  6.253321  3.746871  1.078837

 
 Final energy is   -286.872376582104     


 ******************************
 **  OPTIMIZATION CONVERGED  **
 ******************************

                       Coordinates (Angstroms)
     ATOM                X               Y               Z
      1  C         1.4395560989    0.3657077845   -0.8335074088
      2  C         0.1640876335   -1.1220938206    0.6691453803
      3  C        -1.0989896397   -1.1411723380    1.2046484850
      4  C        -1.7826979750    0.0178937292    0.7214986730
      5  C        -0.9138194978    0.7032903081   -0.0908691091
      6  N         0.2822663649    0.0075501480   -0.1259183610
      7  H         2.2549463746   -0.3506935164   -0.7021488862
      8  H         0.9960610008   -1.8038452674    0.7761472699
      9  H        -1.4941250614   -1.8989752508    1.8675625726
     10  H        -2.7994324909    0.3104731765    0.9472084333
     11  H        -1.0242894736    1.6200118143   -0.6506948193
     12  C         1.5941842698    1.4338044708   -1.5903492516
     13  H         2.3822523960    1.8580487618   -2.1927229781

Z-matrix Print:
$molecule
0 2
N 
C  1 1.384162
H  2 1.079809 1 120.132664
C  2 1.372829 1 108.116349 3 -179.987395 0
H  4 1.081803 2 125.681502 1 -179.919787 0
C  1 1.386430 2 108.745713 3 179.998234 0
H  6 1.080932 1 120.334749 2 -179.965223 0
C  6 1.372039 1 108.277542 2 -0.019878 0
H  8 1.081597 6 125.822060 1 179.938014 0
C  1 1.402954 2 126.674117 3 0.302457 0
H  10 1.093319 1 112.788225 2 -179.869751 0
C  10 1.318162 1 126.384930 2 0.176795 0
H  12 1.078837 10 136.462078 1 -179.788684 0
$end

 
 --------------------------------------------------------------
 
                    Orbital Energies (a.u.)
 --------------------------------------------------------------
 
 Alpha MOs
 -- Occupied --
-14.392 -10.242 -10.214 -10.205 -10.201 -10.171 -10.170  -0.988
 -0.817  -0.737  -0.720  -0.618  -0.574  -0.544  -0.513  -0.476
 -0.428  -0.423  -0.417  -0.386  -0.374  -0.303  -0.255  -0.224
 -0.210
 -- Virtual --
 -0.008   0.076   0.091   0.101   0.127   0.136   0.165   0.176
  0.179   0.224   0.237   0.282   0.339   0.362   0.391   0.456
  0.488   0.507   0.536   0.556   0.561   0.589   0.590   0.596
  0.606   0.619   0.622   0.650   0.673   0.704   0.800   0.810
  0.829   0.847   0.856   0.857   0.888   0.921   0.928   0.956
  0.982   1.034   1.083   1.128   1.201   1.217   1.274   1.346
  1.385   1.387   1.429   1.458   1.493   1.496   1.551   1.558
  1.676   1.742   1.818   1.878   1.929   1.982   2.003   2.005
  2.071   2.080   2.153   2.178   2.211   2.251   2.269   2.302
  2.337   2.339   2.533   2.549   2.592   2.648   2.682   2.719
  2.776   2.858   3.044   3.100   3.178   3.977   4.069   4.121
  4.171   4.273   4.472   4.474
 
 Beta MOs
 -- Occupied --
-14.391 -10.243 -10.205 -10.201 -10.198 -10.171 -10.170  -0.987
 -0.812  -0.725  -0.717  -0.605  -0.573  -0.543  -0.500  -0.466
 -0.424  -0.424  -0.414  -0.385  -0.374  -0.301  -0.216  -0.211
 -- Virtual --
 -0.087   0.001   0.078   0.091   0.109   0.128   0.143   0.165
  0.176   0.181   0.228   0.239   0.286   0.342   0.372   0.403
  0.461   0.498   0.507   0.539   0.560   0.567   0.589   0.594
  0.601   0.619   0.628   0.633   0.666   0.672   0.705   0.806
  0.811   0.831   0.849   0.857   0.859   0.901   0.927   0.934
  0.958   0.988   1.040   1.092   1.129   1.204   1.221   1.278
  1.346   1.387   1.388   1.441   1.461   1.495   1.498   1.551
  1.559   1.736   1.762   1.840   1.886   1.948   1.985   2.006
  2.013   2.076   2.086   2.165   2.180   2.211   2.250   2.273
  2.306   2.337   2.340   2.534   2.563   2.595   2.655   2.685
  2.719   2.787   2.861   3.044   3.102   3.185   3.977   4.102
  4.121   4.171   4.277   4.474   4.474
 --------------------------------------------------------------
 
          Ground-State Mulliken Net Atomic Charges

     Atom                 Charge (a.u.)    Spin (a.u.)
  --------------------------------------------------------
      1 C                     0.068161      -0.140534
      2 C                     0.027383      -0.002615
      3 C                    -0.193243      -0.005389
      4 C                    -0.186811      -0.008654
      5 C                     0.037417       0.008961
      6 N                    -0.401233       0.019514
      7 H                     0.163153       0.068843
      8 H                     0.144960       0.000097
      9 H                     0.128554       0.001020
     10 H                     0.128885       0.000826
     11 H                     0.154922       0.000533
     12 C                    -0.244437       1.062419
     13 H                     0.172286      -0.005022
  --------------------------------------------------------
  Sum of atomic charges =    -0.000000
  Sum of spin   charges =     1.000000

 -----------------------------------------------------------------
                    Cartesian Multipole Moments
 -----------------------------------------------------------------
    Charge (ESU x 10^10)
                -0.0000
    Dipole Moment (Debye)
         X       1.3562      Y      -0.1711      Z      -0.4507
       Tot       1.4393
    Quadrupole Moments (Debye-Ang)
        XX     -35.5740     XY      -1.3819     YY     -39.3101
        XZ      -2.9252     YZ      -3.1013     ZZ     -41.6277
    Octopole Moments (Debye-Ang^2)
       XXX       8.9178    XXY       0.9973    XYY       3.2857
       YYY      -5.4979    XXZ      -2.7870    XYZ      -1.9512
       YYZ       0.2273    XZZ       4.3795    YZZ      -0.7509
       ZZZ      -0.7905
    Hexadecapole Moments (Debye-Ang^3)
      XXXX    -405.7983   XXXY     -53.7776   XXYY    -107.4372
      XYYY     -56.3832   YYYY    -259.0571   XXXZ      90.4644
      XXYZ      16.0957   XYYZ      30.5691   YYYZ      82.2955
      XXZZ    -101.5384   XYZZ      -3.7517   YYZZ     -76.2295
      XZZZ     109.9052   YZZZ      85.2410   ZZZZ    -271.8858
 -----------------------------------------------------------------
Archival summary:
1\1\c8-68\OPT\ProcedureUnspecified\6-31G*\166(2)\hpark21\ThuMar310:43:022022ThuMar310:43:022022\0\\#,OPT,ProcedureUnspecified,6-31G*,\\0,2\N\C,1,1.38416\H,2,1.07981,1,120.133\C,2,1.37283,1,108.116,3,-179.987,0\H,4,1.0818,2,125.682,1,-179.92,0\C,1,1.38643,2,108.746,3,179.998,0\H,6,1.08093,1,120.335,2,-179.965,0\C,6,1.37204,1,108.278,2,-0.0198783,0\H,8,1.0816,6,125.822,1,179.938,0\C,1,1.40295,2,126.674,3,0.302457,0\H,10,1.09332,1,112.788,2,-179.87,0\C,10,1.31816,1,126.385,2,0.176795,0\H,12,1.07884,10,136.462,1,-179.789,0\\\@

 Total job time:  49.85s(wall), 155.65s(cpu) 
 Thu Mar  3 10:43:02 2022

        *************************************************************
        *                                                           *
        *  Thank you very much for using Q-Chem.  Have a nice day.  *
        *                                                           *
        *************************************************************


