13   
From optimize.out: Frame 1 / 5, Energy=    -286.8723602869
C        0.0677670000   -0.1401510000   -0.0000000000
C        0.0272710000   -0.0026390000    0.0000000000
C       -0.1931690000   -0.0053610000    0.0000000000
C       -0.1867240000   -0.0086200000    0.0000000000
C        0.0372790000    0.0088710000   -0.0000000000
N       -0.4010930000    0.0193680000   -0.0000000000
H        0.1632950000    0.0687970000   -0.0000000000
H        0.1449680000    0.0000990000    0.0000000000
H        0.1285930000    0.0010050000    0.0000000000
H        0.1289400000    0.0008230000    0.0000000000
H        0.1548590000    0.0005200000   -0.0000000000
C       -0.2440600000    1.0620700000   -0.0000000000
H        0.1720750000   -0.0047840000   -0.0000000000
13   
From optimize.out: Frame 2 / 5, Energy=    -286.8723680729
C        0.0679560000   -0.1403430000   -0.0000000000
C        0.0273910000   -0.0026280000    0.0000000000
C       -0.1932410000   -0.0053850000    0.0000000000
C       -0.1868240000   -0.0086400000    0.0000000000
C        0.0373930000    0.0089290000   -0.0000000000
N       -0.4010970000    0.0193890000   -0.0000000000
H        0.1631800000    0.0687900000   -0.0000000000
H        0.1450100000    0.0000980000    0.0000000000
H        0.1285700000    0.0010130000    0.0000000000
H        0.1289000000    0.0008240000    0.0000000000
H        0.1549660000    0.0005260000   -0.0000000000
C       -0.2443350000    1.0622580000   -0.0000000000
H        0.1721330000   -0.0048300000   -0.0000000000
13   
From optimize.out: Frame 3 / 5, Energy=    -286.8723736548
C        0.0681610000   -0.1406370000   -0.0000000000
C        0.0274170000   -0.0026130000    0.0000000000
C       -0.1932590000   -0.0054080000    0.0000000000
C       -0.1868630000   -0.0086590000    0.0000000000
C        0.0374300000    0.0089890000   -0.0000000000
N       -0.4011130000    0.0194820000   -0.0000000000
H        0.1630970000    0.0687970000   -0.0000000000
H        0.1449630000    0.0000970000    0.0000000000
H        0.1285550000    0.0010230000    0.0000000000
H        0.1288740000    0.0008250000    0.0000000000
H        0.1549810000    0.0005340000   -0.0000000000
C       -0.2445330000    1.0625520000   -0.0000000000
H        0.1722890000   -0.0049830000   -0.0000000000
13   
From optimize.out: Frame 4 / 5, Energy=    -286.8723756901
C        0.0681520000   -0.1406050000   -0.0000000000
C        0.0273490000   -0.0026120000    0.0000000000
C       -0.1932200000   -0.0053960000    0.0000000000
C       -0.1867990000   -0.0086530000    0.0000000000
C        0.0373840000    0.0089690000   -0.0000000000
N       -0.4011860000    0.0195260000   -0.0000000000
H        0.1631530000    0.0688250000   -0.0000000000
H        0.1449160000    0.0000970000    0.0000000000
H        0.1285600000    0.0010220000    0.0000000000
H        0.1288910000    0.0008250000    0.0000000000
H        0.1549010000    0.0005340000   -0.0000000000
C       -0.2444240000    1.0625090000   -0.0000000000
H        0.1723210000   -0.0050400000   -0.0000000000
