13   
From optimize.out: Frame 1 / 5, Energy=    -286.8723602869
C        1.4356508775    0.3627178750   -0.8407273442
C        0.1657021475   -1.1187005292    0.6726387517
C       -1.0971203266   -1.1384912338    1.2090964133
C       -1.7837228490    0.0168118175    0.7219708613
C       -0.9169919563    0.7010610383   -0.0937207754
N        0.2808059278    0.0077232856   -0.1276166544
H        2.2390206573   -0.3724011939   -0.7414775354
H        1.0006149806   -1.7961121361    0.7858732904
H       -1.4891258365   -1.8927959800    1.8778547408
H       -2.8019821887    0.3066167729    0.9442225657
H       -1.0308212220    1.6112324799   -0.6634468768
C        1.6030933275    1.4467215022   -1.5718090141
H        2.3948764610    1.8656163016   -2.1728584230
13   
From optimize.out: Frame 2 / 5, Energy=    -286.8723680729
C        1.4367540478    0.3632072230   -0.8382951205
C        0.1650339478   -1.1206149384    0.6709304962
C       -1.0971706683   -1.1386781455    1.2085379204
C       -1.7830000980    0.0173985814    0.7214068013
C       -0.9161115466    0.7006790764   -0.0948447647
N        0.2810248855    0.0064487902   -0.1280816712
H        2.2429609398   -0.3674638106   -0.7307422524
H        0.9989702921   -1.7991473641    0.7825333072
H       -1.4898561425   -1.8931308741    1.8767226389
H       -2.8003406699    0.3089719327    0.9457412423
H       -1.0291947439    1.6126125385   -0.6619588443
C        1.6003380203    1.4440766896   -1.5751185853
H        2.3905917359    1.8656403010   -2.1768311679
13   
From optimize.out: Frame 3 / 5, Energy=    -286.8723736548
C        1.4387132508    0.3638207217   -0.8354413519
C        0.1646252823   -1.1217420470    0.6704812992
C       -1.0984903649   -1.1403721453    1.2057641532
C       -1.7823866461    0.0180032733    0.7207434250
C       -0.9136017149    0.7020691223   -0.0928719001
N        0.2817031436    0.0051752231   -0.1283637876
H        2.2515331025   -0.3563799157   -0.7097689675
H        0.9972136527   -1.8020469045    0.7795458383
H       -1.4935662493   -1.8973196241    1.8697002580
H       -2.7988744174    0.3112241960    0.9469866511
H       -1.0246061354    1.6182049404   -0.6535522891
C        1.5950973973    1.4368784880   -1.5852719472
H        2.3826396989    1.8624846717   -2.1879513815
13   
From optimize.out: Frame 4 / 5, Energy=    -286.8723756901
C        1.4396696490    0.3651931586   -0.8338948567
C        0.1638867592   -1.1224281911    0.6689854999
C       -1.0987430259   -1.1405190418    1.2056334287
C       -1.7825456759    0.0180966663    0.7214202310
C       -0.9138226221    0.7023053666   -0.0921876805
N        0.2820986617    0.0063627157   -0.1271844754
H        2.2545377507   -0.3519436458   -0.7035952845
H        0.9957911859   -1.8041475097    0.7760316639
H       -1.4939123742   -1.8979006138    1.8690138022
H       -2.7990343601    0.3111635976    0.9477024609
H       -1.0245983357    1.6187524986   -0.6523531024
C        1.5945938784    1.4349132660   -1.5885109264
H        2.3820785091    1.8601517329   -2.1910607607
