13   
From optimize.out: Frame 30 / 31, Energy=    -286.8405101568
C        1.3124298484   -0.0975946439    0.0436157441
C        0.4498855437   -1.2273034426    0.4519224280
C       -0.8926964123   -1.1033291819    0.4848436928
C       -1.5382567658    0.1827420806    0.2616387570
C       -0.8211695858    1.2682934622   -0.0838731046
N        0.5722795659    1.2083535336   -0.3343067327
H        2.2232983203    0.0643887170    0.6254488622
H        0.9378922942   -2.1508412213    0.7558459933
H       -1.5110716912   -1.9466871404    0.7809235959
H       -2.5984363969    0.2871612308    0.4746464774
H       -1.2414452168    2.2700125292   -0.1119807278
C        1.1871675708    0.4342154903   -1.3192912543
H        1.9201229259    0.8105885861   -2.0294337316
13   
From optimize.out: Frame 29 / 31, Energy=    -286.8405050267
C        1.3140047430   -0.0995163323    0.0427334185
C        0.4508212149   -1.2271141850    0.4530246297
C       -0.8920740181   -1.1030399775    0.4829405683
C       -1.5377714158    0.1820711482    0.2581522633
C       -0.8205887596    1.2693418645   -0.0822369403
N        0.5722215152    1.2107360791   -0.3352013913
H        2.2250025545    0.0616288020    0.6244029922
H        0.9373838106   -2.1492050011    0.7626751660
H       -1.5104825487   -1.9463021129    0.7790762621
H       -2.5980994043    0.2862346264    0.4707340708
H       -1.2414635440    2.2707941470   -0.1071184678
C        1.1855935830    0.4340152179   -1.3180403428
H        1.9154522692    0.8103557236   -2.0311422286
13   
From optimize.out: Frame 28 / 31, Energy=    -286.8404918441
C        1.3154820355   -0.1020949698    0.0414911123
C        0.4513015713   -1.2269885235    0.4547810081
C       -0.8921833790   -1.1031539183    0.4803285337
C       -1.5370854324    0.1809830035    0.2524211208
C       -0.8191370683    1.2707191853   -0.0801435121
N        0.5733455230    1.2164548417   -0.3317156786
H        2.2305416417    0.0564417712    0.6170043149
H        0.9383238616   -2.1458855442    0.7741716765
H       -1.5105719331   -1.9461539714    0.7773202399
H       -2.5980990390    0.2845307501    0.4621321730
H       -1.2421148982    2.2715083312   -0.1001021499
C        1.1805024673    0.4356768020   -1.3158725869
H        1.9096946497    0.8079622423   -2.0318162517
13   
From optimize.out: Frame 27 / 31, Energy=    -286.8404749921
C        1.3168304721   -0.1042400797    0.0385243109
C        0.4510722317   -1.2273125305    0.4550976990
C       -0.8928251277   -1.1034076198    0.4803683061
C       -1.5374844242    0.1801669521    0.2483932218
C       -0.8184652896    1.2706972478   -0.0795322453
N        0.5742844932    1.2201132596   -0.3298604011
H        2.2352468025    0.0497844702    0.6100302849
H        0.9361858255   -2.1440646938    0.7835488524
H       -1.5095012101   -1.9460251387    0.7812791248
H       -2.5993346952    0.2826613555    0.4539555741
H       -1.2420064287    2.2713492472   -0.0952703067
C        1.1781993025    0.4386827279   -1.3157095394
H        1.9077980481    0.8115948022   -2.0308248814
13   
From optimize.out: Frame 26 / 31, Energy=    -286.8404509770
C        1.3174498199   -0.1059077877    0.0361498194
C        0.4495878931   -1.2284317885    0.4520160726
C       -0.8941588000   -1.1041914399    0.4823578255
C       -1.5384287781    0.1788151584    0.2454095773
C       -0.8185191701    1.2689570406   -0.0807809264
N        0.5744532981    1.2221936093   -0.3291189122
H        2.2376616559    0.0475696878    0.6051176810
H        0.9363499231   -2.1423860101    0.7860943722
H       -1.5114065451   -1.9440645694    0.7895498414
H       -2.6007187424    0.2815527392    0.4484409262
H       -1.2420492936    2.2699828302   -0.0901866604
C        1.1781821771    0.4420974768   -1.3165569924
H        1.9115965621    0.8138130534   -2.0284926242
13   
From optimize.out: Frame 25 / 31, Energy=    -286.8403813133
C        1.3179362297   -0.1063429799    0.0305168407
C        0.4467468550   -1.2281555717    0.4532153824
C       -0.8974042452   -1.1066509874    0.4814496170
C       -1.5410973800    0.1752983406    0.2406108217
C       -0.8195575150    1.2653217742   -0.0868879510
N        0.5724868724    1.2215164962   -0.3361278360
H        2.2377765208    0.0489232320    0.5997962792
H        0.9329019307   -2.1395225372    0.7932026114
H       -1.5139728774   -1.9438294475    0.7979706934
H       -2.6021359222    0.2802698514    0.4489490238
H       -1.2381671563    2.2687876085   -0.0750340435
C        1.1813235251    0.4445254971   -1.3228854512
H        1.9231631624    0.8198587235   -2.0247759879
13   
From optimize.out: Frame 24 / 31, Energy=    -286.8402287879
C        1.3131158702   -0.1137314659    0.0230253344
C        0.4468264377   -1.2298027761    0.4486679247
C       -0.8960781570   -1.1049451530    0.4892613304
C       -1.5427958401    0.1722392111    0.2326731140
C       -0.8229406716    1.2606004940   -0.1005517836
N        0.5749240617    1.2187374535   -0.3313211024
H        2.2286364256    0.0351589339    0.6007010421
H        0.9350673546   -2.1400016320    0.7866996168
H       -1.5124525848   -1.9358702942    0.8233440861
H       -2.6023125600    0.2812620647    0.4476876079
H       -1.2369710735    2.2656543749   -0.0762364801
C        1.1857823474    0.4516903756   -1.3248709241
H        1.9291983898    0.8390084135   -2.0190797660
13   
From optimize.out: Frame 23 / 31, Energy=    -286.8400005792
C        1.3256161577   -0.1138505630    0.0224579959
C        0.4446915745   -1.2371973265    0.4548227441
C       -0.8955425956   -1.1036880288    0.4961190902
C       -1.5422065790    0.1715669511    0.2282284686
C       -0.8224843699    1.2614026216   -0.0940710828
N        0.5869603624    1.2195917183   -0.3050353126
H        2.2416126682    0.0382311467    0.5975557059
H        0.9309703023   -2.1541089875    0.7794888006
H       -1.5167446040   -1.9310218313    0.8314576357
H       -2.6045327091    0.2802125208    0.4306135663
H       -1.2409141494    2.2643786582   -0.0951179644
C        1.1848140091    0.4607693081   -1.3145770438
H        1.9077599328    0.8437138122   -2.0319426035
13   
From optimize.out: Frame 22 / 31, Energy=    -286.8394776420
C        1.3215580600   -0.1215846679    0.0164447399
C        0.4454473791   -1.2420510526    0.4539400573
C       -0.8916668852   -1.1001780439    0.5165165685
C       -1.5401466607    0.1721023236    0.2263166471
C       -0.8194420879    1.2630275766   -0.0907448568
N        0.6036589265    1.2227345713   -0.2616000468
H        2.2480928694    0.0055703211    0.5813124958
H        0.9286286768   -2.1624821499    0.7706183680
H       -1.5113943701   -1.9250985068    0.8587616622
H       -2.6071750838    0.2755298775    0.4041929001
H       -1.2440994749    2.2610179117   -0.1413489520
C        1.1816683444    0.4805105679   -1.3019377194
H        1.8848703062    0.8709012714   -2.0324718640
13   
From optimize.out: Frame 21 / 31, Energy=    -286.8383599967
C        1.3137071837   -0.1173214587    0.0158180462
C        0.4411543230   -1.2592531021    0.4474859622
C       -0.8895662119   -1.1006615076    0.5467287569
C       -1.5334740923    0.1770668777    0.2411568824
C       -0.8097449080    1.2624581900   -0.0782323871
N        0.6234487825    1.2326503551   -0.2094873300
H        2.2582612607   -0.0294388865    0.5582626540
H        0.9262608715   -2.1826587323    0.7562665749
H       -1.5105863557   -1.9216808575    0.8949011395
H       -2.6085945017    0.2713733416    0.3616040805
H       -1.2416784028    2.2491065780   -0.2143723771
C        1.1737626664    0.5140419357   -1.2866005737
H        1.8570493846    0.9043172668   -2.0335314287
13   
From optimize.out: Frame 20 / 31, Energy=    -286.8373712531
C        1.3135030531   -0.1105776600    0.0170821504
C        0.4328053391   -1.2674152540    0.4509206073
C       -0.8961239391   -1.1034871725    0.5684054705
C       -1.5356273833    0.1779141161    0.2590537531
C       -0.8018879439    1.2579937918   -0.0617883464
N        0.6330855320    1.2335477098   -0.1977399461
H        2.2708116236   -0.0416470090    0.5405447408
H        0.9158819673   -2.1938275527    0.7515781146
H       -1.5160886825   -1.9255750435    0.9140135237
H       -2.6148515779    0.2665199691    0.3354949869
H       -1.2327583334    2.2362105453   -0.2514215007
C        1.1763677376    0.5370913494   -1.2895017306
H        1.8548826075    0.9332522103   -2.0366418236
13   
From optimize.out: Frame 19 / 31, Energy=    -286.8353689595
C        1.2891342636   -0.0997032589   -0.0009261933
C        0.4199972360   -1.2729372717    0.4106082171
C       -0.9007932398   -1.1034901684    0.5956461481
C       -1.5473509172    0.1733869324    0.2814281875
C       -0.8153476929    1.2445483551   -0.0744698220
N        0.6190700432    1.2430279308   -0.1910114792
H        2.2408673205   -0.0801337997    0.5417539832
H        0.9054206613   -2.1988140722    0.6945654862
H       -1.5073043461   -1.9120075798    0.9921441173
H       -2.6240877217    0.2651771463    0.3815469567
H       -1.2527948327    2.2110102545   -0.3053091871
C        1.2146322125    0.5788169845   -1.3145551928
H        1.9585570132    0.9511185470   -2.0114212217
13   
From optimize.out: Frame 18 / 31, Energy=    -286.8335889647
C        1.2879510166   -0.1192870041    0.0278157544
C        0.4495297657   -1.2510200805    0.4562594086
C       -0.8771638432   -1.0882016720    0.5739039264
C       -1.5357284741    0.1876708576    0.2336365636
C       -0.7972525869    1.2765949065   -0.0439457600
N        0.6429252653    1.2550587599   -0.1006917184
H        2.2942983182   -0.1024155103    0.4695448044
H        0.9387580310   -2.1778588659    0.7597631617
H       -1.4844609767   -1.9199472896    0.9197553594
H       -2.6181745699    0.2507021492    0.2585405541
H       -1.2205016262    2.2467446069   -0.2855340046
C        1.1310949603    0.5181183928   -1.2553931314
H        1.7887247199    0.9238407495   -2.0136549182
13   
From optimize.out: Frame 17 / 31, Energy=    -286.8311844337
C        1.3274452099   -0.1024950224    0.0342770283
C        0.4215491821   -1.2812118680    0.4655249416
C       -0.8965992861   -1.1042533562    0.5835925966
C       -1.5396101639    0.1946355998    0.2760919249
C       -0.7950331280    1.2622100631   -0.0576501868
N        0.6365164101    1.2431425094   -0.1580584550
H        2.3388551920   -0.0463830213    0.4614136799
H        0.8953315576   -2.2225692304    0.7504232543
H       -1.5161571169   -1.9308160456    0.9164303831
H       -2.6209335941    0.2702454251    0.3017141443
H       -1.2231562952    2.2220454761   -0.3272641450
C        1.1822896036    0.4886650066   -1.2588412137
H        1.7895024288    1.0067844638   -1.9876539524
13   
From optimize.out: Frame 16 / 31, Energy=    -286.8265056700
C        1.2740356130   -0.1186004228    0.0330155478
C        0.4091113096   -1.2889912259    0.4884916193
C       -0.9010849885   -1.1185987366    0.6256368994
C       -1.5089973694    0.1715500420    0.2641779117
C       -0.7516256906    1.2147061834   -0.1044496893
N        0.6541506039    1.2283200336   -0.1452919505
H        2.3057207024   -0.1611368510    0.3911128834
H        0.9050949500   -2.2182431399    0.7746045611
H       -1.5456380967   -1.9054176029    0.9981076473
H       -2.5870227760    0.2917186836    0.2864269475
H       -1.1972664170    2.1576729131   -0.4048938532
C        1.1512005294    0.5882398452   -1.2728338559
H        1.7923216299    1.1587802782   -1.9341046686
13   
From optimize.out: Frame 15 / 31, Energy=    -286.8233446887
C        1.2458543314   -0.1124995611    0.0174401711
C        0.4130774363   -1.2794109504    0.4943904629
C       -0.9025258840   -1.1165986529    0.6322778005
C       -1.5103804396    0.1591839359    0.2502946216
C       -0.7442671818    1.2124596525   -0.1028918475
N        0.6467346495    1.2367358661   -0.1128755287
H        2.2815740605   -0.1837365485    0.3583837686
H        0.9111672187   -2.2011186549    0.7906623988
H       -1.5414912925   -1.8976952490    1.0232977315
H       -2.5877410028    0.2838112394    0.2666225428
H       -1.1955882583    2.1612836132   -0.3755754251
C        1.1521198163    0.5550494010   -1.3356959872
H        1.8314665463    1.1825359087   -1.9063307093
13   
From optimize.out: Frame 14 / 31, Energy=    -286.8135227659
C        1.2383398865   -0.1284109356    0.0053168863
C        0.4152540641   -1.2644901292    0.5334522783
C       -0.9131672147   -1.1225885700    0.6328491196
C       -1.4894603152    0.1394827867    0.2306325990
C       -0.6947375088    1.1860501880   -0.1202834485
N        0.6739522323    1.2150542468   -0.0778124520
H        2.2798375087   -0.1997151176    0.3158882115
H        0.9276702983   -2.1725799281    0.8312777993
H       -1.5732486971   -1.8885519090    1.0251614365
H       -2.5648585830    0.2883671409    0.2222012393
H       -1.1512114548    2.1392326605   -0.3801339082
C        1.0831626096    0.5514615692   -1.3716037927
H        1.7684671740    1.2566879972   -1.8469459685
13   
From optimize.out: Frame 13 / 31, Energy=    -286.8019991563
C        1.2280450868   -0.1492882478   -0.0093400447
C        0.4268914643   -1.2187866610    0.5687030728
C       -0.9153716073   -1.1161316528    0.6170420022
C       -1.4717477048    0.1198278285    0.1825655855
C       -0.6545663446    1.1739797818   -0.1145195033
N        0.6901214790    1.1887767234   -0.0200680750
H        2.2742729710   -0.2074052969    0.2791028697
H        0.9759950646   -2.1022865400    0.8682592164
H       -1.5933785402   -1.8731564075    1.0087934021
H       -2.5462923138    0.2799838167    0.1402324645
H       -1.1154385464    2.1444470189   -0.3116871583
C        0.9976593746    0.5053995474   -1.4110917776
H        1.7038096166    1.2546400893   -1.7979920543
13   
From optimize.out: Frame 12 / 31, Energy=    -286.7933623733
C        1.2138909855   -0.1779548936   -0.0512975370
C        0.4339860301   -1.2032352076    0.5642084641
C       -0.9223096814   -1.1019073720    0.5984373020
C       -1.4855564509    0.1129574005    0.1489810556
C       -0.6521512034    1.1832003397   -0.1045505243
N        0.6866094390    1.1622290628   -0.0199873770
H        2.2672087691   -0.1351851606    0.2280090268
H        0.9863947263   -2.0792413962    0.8857220856
H       -1.5771900861   -1.8654389282    1.0209657242
H       -2.5604427240    0.2702795742    0.1134064279
H       -1.1015709326    2.1731290227   -0.2257540896
C        1.0018326985    0.4218952485   -1.4649582680
H        1.7092984301    1.2392723096   -1.6931822904
13   
From optimize.out: Frame 11 / 31, Energy=    -286.7906594834
C        1.2218937019   -0.1238768277   -0.0508347291
C        0.4439794382   -1.1746223453    0.5715619083
C       -0.9207050910   -1.0905583110    0.5554769239
C       -1.5077331663    0.1227628479    0.1327603487
C       -0.6764255079    1.2344139693   -0.0286646404
N        0.6573599375    1.2106172946    0.0429928272
H        2.2749514682   -0.0386277617    0.2418202532
H        0.9819665467   -2.0556235040    0.9137308247
H       -1.5483389549   -1.8980907911    0.9334807218
H       -2.5847297899    0.2446922013    0.0656896441
H       -1.1279601289    2.2291317955   -0.0688388995
C        1.0613832273    0.2448724739   -1.5313772457
H        1.7243583191    1.0949089584   -1.7777979373
13   
From optimize.out: Frame 10 / 31, Energy=    -286.7876856930
C        1.2003651557   -0.0705057113   -0.0987351217
C        0.4318309060   -1.1861608663    0.4875851138
C       -0.9336368236   -1.0828952295    0.5691964724
C       -1.5573181173    0.1277476235    0.1789029974
C       -0.7387458363    1.2636947790    0.0072184969
N        0.5961271251    1.2535993855    0.0040954677
H        2.2211203746    0.0318675209    0.2983025686
H        0.9675926930   -2.0670337402    0.8305683445
H       -1.5215947034   -1.9016522326    0.9812537119
H       -2.6373751732    0.2239338792    0.1417350139
H       -1.1983467928    2.2543439705    0.0105017915
C        1.2249422818    0.1723524698   -1.5951360062
H        1.9450389104    0.9807081515   -1.8154888506
13   
From optimize.out: Frame 9 / 31, Energy=    -286.7818203522
C        1.2014879977    0.0307606643   -0.0949962723
C        0.4391343763   -1.1777266659    0.4543116462
C       -0.9262304159   -1.0785973720    0.5432012030
C       -1.5824806162    0.1425911320    0.2134648512
C       -0.7845322799    1.3140516007    0.0879251251
N        0.5468467734    1.3381581529    0.0461920622
H        2.2140760858    0.1105380749    0.3351859681
H        0.9560103931   -2.0645732893    0.8015335722
H       -1.4894992188   -1.9359545470    0.8995702931
H       -2.6626537334    0.1982743268    0.1463400493
H       -1.2610286438    2.2934521617    0.1173176041
C        1.2630115256    0.0883234414   -1.6058746203
H        2.0858577562    0.7407023193   -1.9441714819
13   
From optimize.out: Frame 8 / 31, Energy=    -286.7768364136
C        1.1978843191    0.0856651681   -0.0840181932
C        0.4475360700   -1.1688916622    0.4361087418
C       -0.9145286916   -1.0758338191    0.5305278064
C       -1.5827596571    0.1505721539    0.2301476437
C       -0.8016075253    1.3387825474    0.1363997696
N        0.5258779460    1.3834851699    0.0846981574
H        2.2154806520    0.1468353219    0.3392546418
H        0.9695601743   -2.0551960745    0.7818456102
H       -1.4778523816   -1.9509651307    0.8387853483
H       -2.6613371373    0.1867492817    0.1306231024
H       -1.2937085080    2.3098471713    0.1626889442
C        1.2277555203    0.0931677728   -1.5966264390
H        2.1476992192    0.5557820995   -1.9904351336
13   
From optimize.out: Frame 7 / 31, Energy=    -286.7725904992
C        1.1940325889    0.0292912530   -0.1171168579
C        0.4350955834   -1.1108321457    0.3947621505
C       -0.9246305224   -1.0629933683    0.5643858942
C       -1.6138479944    0.1427138622    0.2219672851
C       -0.8155758817    1.3160160567    0.1607360375
N        0.5215237245    1.3132484015    0.1589603568
H        2.2062704571    0.1227626193    0.3153440204
H        1.0025852497   -1.9543609503    0.7587609200
H       -1.4879110301   -1.9316938934    0.8883852805
H       -2.6888215684    0.1701409913    0.0845984665
H       -1.2865681199    2.2975229654    0.1874329123
C        1.2562562490    0.1315253928   -1.6132868834
H        2.2015912643    0.5366588155   -2.0049295825
13   
From optimize.out: Frame 6 / 31, Energy=    -286.7627965255
C        1.2042578642    0.0425493640   -0.1799494426
C        0.4212855749   -1.1205886838    0.4549313088
C       -0.9373809213   -1.0788186527    0.6079645546
C       -1.5901114732    0.1321721756    0.2124914403
C       -0.8021275993    1.3036247616    0.2193492359
N        0.5363129568    1.2880443310    0.2210771179
H        2.1947799159    0.0593744238    0.2995486919
H        1.0352970614   -1.9160287132    0.8476011739
H       -1.5647126112   -1.9297442501    0.8647094311
H       -2.6536144241    0.1641345621   -0.0047445673
H       -1.2985712608    2.2766063254    0.2090962812
C        1.2571234169    0.2097329354   -1.6557251400
H        2.1974614997    0.5689414208   -2.0963500858
13   
From optimize.out: Frame 5 / 31, Energy=    -286.7611069162
C        1.2039011442    0.1217791635   -0.0739627147
C        0.4383939559   -1.1856118778    0.3773271233
C       -0.8921033904   -1.0800397973    0.6044590065
C       -1.5218710823    0.1496459461    0.2125461687
C       -0.7816000359    1.3462825187    0.2476338562
N        0.5392111514    1.3764460904    0.2785092507
H        2.1939758930    0.1415082611    0.3954165971
H        1.0810353046   -1.9857908423    0.7426959148
H       -1.5813462978   -1.8986706431    0.8195571912
H       -2.5772653238    0.1719075963   -0.0525350940
H       -1.3270469730    2.2914687791    0.1565120348
C        1.1655094381    0.1395801966   -1.5645114232
H        2.0592062161    0.4114946088   -2.1436479114
13   
From optimize.out: Frame 4 / 31, Energy=    -286.7470026665
C        1.1669815711    0.1305904627   -0.0501461637
C        0.4533639280   -1.1502588782    0.3339281829
C       -0.8590445776   -1.0546198984    0.6252339522
C       -1.4873431501    0.1547554516    0.1939978070
C       -0.7806622945    1.3613958122    0.2601755312
N        0.5362905631    1.3851000990    0.3567707055
H        2.1078486767   -0.0121942749    0.4801968233
H        1.1967659875   -1.8948665232    0.6695981647
H       -1.5696152078   -1.8627504745    0.8394888297
H       -2.5352376731    0.1613866490   -0.1111959380
H       -1.3485731664    2.2935382362    0.1309784362
C        1.1194286219    0.1556503571   -1.5474861273
H        1.9997967212    0.3322729812   -2.1815402037
13   
From optimize.out: Frame 3 / 31, Energy=    -286.7230985656
C        1.2085817826    0.1562782812   -0.0272562867
C        0.3651817523   -1.1751851568    0.2980642103
C       -0.8887763298   -1.0698929857    0.6878190249
C       -1.4688436209    0.1318357510    0.2126194714
C       -0.7608658666    1.3339158543    0.2522254429
N        0.5270509844    1.3893358152    0.3869490494
H        2.1028851497   -0.0329101105    0.5545564701
H        1.2271442102   -1.8584635436    0.5541923219
H       -1.6359744910   -1.8444451513    0.9306247661
H       -2.5144335705    0.1492319462   -0.1122925601
H       -1.3417047286    2.2499614462    0.0603485874
C        1.1646484148    0.1956314711   -1.5601524607
H        2.0151063135    0.3747063827   -2.2376980370
13   
From optimize.out: Frame 2 / 31, Energy=    -286.6622810488
C        1.2427393243    0.2701068551   -0.1294818585
C        0.3053250235   -1.4602233054    0.5242469225
C       -0.9218304732   -1.1547126666    0.7588142210
C       -1.3678479441    0.0901464658    0.2148138357
C       -0.6857863791    1.3133534300    0.2281360962
N        0.5485394292    1.4613522131    0.3778152458
H        2.1333790802    0.0424518023    0.4380912596
H        1.0376666675   -2.2636716351    0.9083638458
H       -1.7891843083   -1.8174290615    0.9332101578
H       -2.3968790534    0.1277345828   -0.1642567947
H       -1.2990656313    2.1962664675   -0.0103950707
C        1.1841308980    0.4672933569   -1.6946920087
H        2.0088133668    0.7273314950   -2.3846658519
13   
From optimize.out: Frame 1 / 31, Energy=    -286.5797851733
C        1.1986085785    0.2979072353   -0.2628368740
C        0.2708664376   -1.6181915947    0.7671292362
C       -0.9244730876   -1.2048821613    0.8291323040
C       -1.2683937605    0.0472248529    0.2095926140
C       -0.6134235030    1.2849080037    0.2155411474
N        0.5813039724    1.4614104517    0.3920407848
H        2.0627552240   -0.0561559695    0.2761959691
H        0.8846402643   -2.4752179307    1.2809050117
H       -1.8571983329   -1.7953993547    0.9051737988
H       -2.2683543685    0.0809592302   -0.2446646043
H       -1.2302961002    2.1508970915   -0.0680655413
C        1.1672981789    0.7510827131   -1.8188725855
H        1.9966664969    1.0754574326   -2.4812712608
13   
C5H5N+CH->C6H6N atoms 1-13 frame 167 charge +0.000 sz -1.000 sz^2 3.935
C        1.1986085785    0.2979072353   -0.2628368740
C        0.2708664376   -1.6181915947    0.7671292362
C       -0.9244730876   -1.2048821613    0.8291323040
C       -1.2683937605    0.0472248529    0.2095926140
C       -0.6134235030    1.2849080037    0.2155411474
N        0.5813039724    1.4614104517    0.3920407848
H        2.0627552240   -0.0561559695    0.2761959691
H        0.8846402643   -2.4752179307    1.2809050117
H       -1.8571983329   -1.7953993547    0.9051737988
H       -2.2683543685    0.0809592302   -0.2446646043
H       -1.2302961002    2.1508970915   -0.0680655413
C        1.1672981789    0.7510827131   -1.8188725855
H        1.9966664969    1.0754574326   -2.4812712608
13   
C5H5N+CH->C6H6N atoms 1-13 frame 168 charge +0.000 sz -1.000 sz^2 3.953
C        1.1985465904    0.2963586404   -0.2725533381
C        0.2671469428   -1.6193200223    0.7577119803
C       -0.9285080976   -1.2039173551    0.8308956947
C       -1.2735011666    0.0504724759    0.2086830005
C       -0.6192553414    1.2759148238    0.2113188833
N        0.5726142879    1.4418412374    0.3872480044
H        2.0493172511   -0.0736926679    0.2738648195
H        0.8913609208   -2.4525973718    1.3044495487
H       -1.8536375928   -1.7961732832    0.9072077749
H       -2.2723224545    0.0842670539   -0.2434370090
H       -1.2287253786    2.1539791496   -0.0472831797
C        1.1864716965    0.7513745328   -1.8305425249
H        2.0104923419    1.0914927866   -2.4875636545
13   
C5H5N+CH->C6H6N atoms 1-13 frame 169 charge -0.000 sz -1.000 sz^2 3.963
C        1.1991258453    0.2949179658   -0.2820738821
C        0.2647963996   -1.6208046472    0.7486856082
C       -0.9337434646   -1.2027383944    0.8319808261
C       -1.2791492609    0.0534446781    0.2069383962
C       -0.6268201659    1.2668981746    0.2063507635
N        0.5652191622    1.4221733525    0.3823876808
H        2.0381708509   -0.0909641670    0.2703928916
H        0.8945409223   -2.4263277810    1.3251078585
H       -1.8492515310   -1.7980507484    0.9113194342
H       -2.2761240307    0.0872972543   -0.2421824616
H       -1.2279924039    2.1568335693   -0.0254858787
C        1.2067071626    0.7509645644   -1.8410276083
H        2.0245205142    1.1063561793   -2.4923936284
13   
C5H5N+CH->C6H6N atoms 1-13 frame 170 charge +0.000 sz -1.000 sz^2 3.968
C        1.2003909265    0.2936079233   -0.2914229891
C        0.2638208072   -1.6225661198    0.7401170764
C       -0.9400300157   -1.2013005215    0.8324195624
C       -1.2853494922    0.0560651594    0.2044096546
C       -0.6360433925    1.2579705229    0.2006704744
N        0.5591901502    1.4024730105    0.3774608013
H        2.0294421201   -0.1078716001    0.2658088486
H        0.8942857721   -2.3967099542    1.3427066601
H       -1.8444172237   -1.8011212627    0.9176690780
H       -2.2799834901    0.0900337508   -0.2408780689
H       -1.2281940077    2.1594417233   -0.0028167648
C        1.2279535211    0.7498718927   -1.8502902335
H        2.0389343247    1.1201054753   -2.4958540993
13   
C5H5N+CH->C6H6N atoms 1-13 frame 171 charge +0.000 sz -1.000 sz^2 3.964
C        1.2023918401    0.2924573998   -0.3006372185
C        0.2641674342   -1.6244982765    0.7320543757
C       -0.9471795014   -1.1995631806    0.8322373640
C       -1.2921144914    0.0582720639    0.2011586215
C       -0.6467821971    1.2492642738    0.1943313896
N        0.5545537681    1.3828080276    0.3724724469
H        2.0231639177   -0.1243139694    0.2601108361
H        0.8908769226   -2.3642300351    1.3572020849
H       -1.8395444754   -1.8054516662    0.9263768167
H       -2.2841979860    0.0924868132   -0.2395110125
H       -1.2293989945    2.1618030021    0.0205730247
C        1.2501433745    0.7481331020   -1.8582925817
H        2.0539203887    1.1328324454   -2.4980761475
13   
C5H5N+CH->C6H6N atoms 1-13 frame 172 charge -0.000 sz -1.000 sz^2 3.949
C        1.2051746998    0.2914903614   -0.3097600162
C        0.2657232546   -1.6264734918    0.7245109280
C       -0.9549853742   -1.1974939629    0.8314471176
C       -1.2994614891    0.0600166974    0.1972512904
C       -0.6588322171    1.2409275656    0.1874037255
N        0.5512926606    1.3632433837    0.3674314653
H        2.0192880950   -0.1401754942    0.2532598247
H        0.8847652563   -2.3295615812    1.3686968191
H       -1.8350455214   -1.8110633091    0.9375186098
H       -2.2891263341    0.0946957241   -0.2380779050
H       -1.2316404832    2.1639286707    0.0445314580
C        1.2731910392    0.7458007986   -1.8650073278
H        2.0696564137    1.1446646377   -2.4992059893
13   
C5H5N+CH->C6H6N atoms 1-13 frame 173 charge +0.000 sz -1.000 sz^2 3.924
C        1.2087740722    0.2907268307   -0.3188462172
C        0.2683120915   -1.6283502216    0.7174509063
C       -0.9632465508   -1.1950698480    0.8300407154
C       -1.3074198384    0.0612682240    0.1927507583
C       -0.6719458235    1.2331200835    0.1799714302
N        0.5493465877    1.3438407919    0.3623506411
H        2.0176917951   -0.1553394015    0.2451847628
H        0.8765704923   -2.2935660839    1.3774696200
H       -1.8312896685   -1.8179060875    0.9511082137
H       -2.2951654457    0.0967318165   -0.2365779060
H       -1.2349117787    2.1658352205    0.0689093683
C        1.2969906038    0.7429476003   -1.8704205121
H        2.0862934630    1.1557610751   -2.4993917808
13   
C5H5N+CH->C6H6N atoms 1-13 frame 174 charge -0.000 sz -1.000 sz^2 3.894
C        1.2132075554    0.2901809823   -0.3279647325
C        0.2716970430   -1.6299816265    0.7107759945
C       -0.9717867493   -1.1922804774    0.8279835568
C       -1.3160356514    0.0620156082    0.1877114432
C       -0.6858489014    1.2260091112    0.1721302744
N        0.5486167637    1.3246570781    0.3572459335
H        2.0181874815   -0.1696985974    0.2357864960
H        0.8670678275   -2.2572781142    1.3839962607
H       -1.8285626515   -1.8258331873    0.9670797193
H       -2.3027261632    0.0986977753   -0.2350103126
H       -1.2391670497    2.1675400020    0.0935673954
C        1.3214161829    0.7396683057   -1.8745352936
H        2.1039343124    1.1663031398   -2.4987667350
13   
C5H5N+CH->C6H6N atoms 1-13 frame 175 charge -0.000 sz -1.000 sz^2 3.848
C        1.2184752428    0.2898681444   -0.3372062509
C        0.2755912799   -1.6312273706    0.7043165996
C       -0.9804675560   -1.1891286396    0.8252101013
C       -1.3253745362    0.0622706897    0.1821740097
C       -0.7002607338    1.2197647687    0.1639871835
N        0.5489712002    1.3057450375    0.3521342814
H        2.0205283208   -0.1831829424    0.2249490014
H        0.8571591348   -2.2218663506    1.3889640919
H       -1.8270306562   -1.8345881688    0.9852690210
H       -2.3122009519    0.1007224805   -0.2333697971
H       -1.2443250597    2.1690573309    0.1183806381