13   
From optimize.out: Frame 1 / 2, Energy=    -286.8405101568
C        1.3124298484   -0.0975946439    0.0436157441
C        0.4498855437   -1.2273034426    0.4519224280
C       -0.8926964123   -1.1033291819    0.4848436928
C       -1.5382567658    0.1827420806    0.2616387570
C       -0.8211695858    1.2682934622   -0.0838731046
N        0.5722795659    1.2083535336   -0.3343067327
H        2.2232983203    0.0643887170    0.6254488622
H        0.9378922942   -2.1508412213    0.7558459933
H       -1.5110716912   -1.9466871404    0.7809235959
H       -2.5984363969    0.2871612308    0.4746464774
H       -1.2414452168    2.2700125292   -0.1119807278
C        1.1871675708    0.4342154903   -1.3192912543
H        1.9201229259    0.8105885861   -2.0294337316
13   
From optimize.out: Frame 30 / 31, Energy=    -286.8405101568
C        1.3124298484   -0.0975946439    0.0436157441
C        0.4498855437   -1.2273034426    0.4519224280
C       -0.8926964123   -1.1033291819    0.4848436928
C       -1.5382567658    0.1827420806    0.2616387570
C       -0.8211695858    1.2682934622   -0.0838731046
N        0.5722795659    1.2083535336   -0.3343067327
H        2.2232983203    0.0643887170    0.6254488622
H        0.9378922942   -2.1508412213    0.7558459933
H       -1.5110716912   -1.9466871404    0.7809235959
H       -2.5984363969    0.2871612308    0.4746464774
H       -1.2414452168    2.2700125292   -0.1119807278
C        1.1871675708    0.4342154903   -1.3192912543
H        1.9201229259    0.8105885861   -2.0294337316
13   
From optimize.out: Frame 29 / 31, Energy=    -286.8405050267
C        1.3207076815   -0.1138037972    0.0226807722
C        0.4455298692   -1.2342937153    0.4524059369
C       -0.8957528940   -1.1041816626    0.4934262601
C       -1.5424379636    0.1718309268    0.2299737433
C       -0.8226635454    1.2610876509   -0.0966158535
N        0.5822340795    1.2192562750   -0.3153569291
H        2.2365172992    0.0370247838    0.5987907821
H        0.9325790880   -2.1485694654    0.7823202651
H       -1.5150592608   -1.9329256727    0.8282716957
H       -2.6036609252    0.2806246442    0.4373180142
H       -1.2393658255    2.2648795927   -0.0877037896
C        1.1851942456    0.4572042921   -1.3186191322
H        1.9161781516    0.8418661477   -2.0268917652
13   
From optimize.out: Frame 28 / 31, Energy=    -286.8404918441
C        1.3180674985   -0.1196892115    0.0161661070
C        0.4435386525   -1.2496992195    0.4510705157
C       -0.8907329093   -1.1003929957    0.5299491457
C       -1.5371799842    0.1743096035    0.2329147328
C       -0.8151306452    1.2627744228   -0.0851817141
N        0.6124576526    1.2271432070   -0.2384303218
H        2.2526138164   -0.0099950487    0.5710643543
H        0.9275759319   -2.1714528176    0.7642374476
H       -1.5110351205   -1.9235789930    0.8748295589
H       -2.6078061682    0.2736818488    0.3852575749
H       -1.2430230471    2.2557220388   -0.1738157428
C        1.1781534176    0.4954188785   -1.2951187034
H        1.8725009050    0.8857582866   -2.0329429548
13   
From optimize.out: Frame 27 / 31, Energy=    -286.8404749921
C        1.3104821762   -0.1092296150    0.0148497462
C        0.4312175827   -1.2680997909    0.4459232821
C       -0.8967027689   -1.1034875439    0.5717823609
C       -1.5370806912    0.1773529038    0.2618273997
C       -0.8035564816    1.2563270284   -0.0633604054
N        0.6313481020    1.2347229254   -0.1969058517
H        2.2670995783   -0.0464180238    0.5406946446
H        0.9145851315   -2.1944457065    0.7445105445
H       -1.5149997322   -1.9238931530    0.9236989823
H       -2.6159965364    0.2663535061    0.3412038191
H       -1.2352421580    2.2330865914   -0.2581016874
C        1.1811111930    0.5422638675   -1.2926074829
H        1.8677346046    0.9354670106   -2.0335153518
13   
From optimize.out: Frame 26 / 31, Energy=    -286.8404509770
C        1.2890938265   -0.1003725273    0.0000560538
C        0.4210065011   -1.2721882584    0.4121683324
C       -0.8999857125   -1.1029676888    0.5949031144
C       -1.5469537238    0.1738750812    0.2797949236
C       -0.8147292983    1.2456435360   -0.0734266717
N        0.6198852880    1.2434390807   -0.1879248294
H        2.2426933083   -0.0808952703    0.5392862569
H        0.9065599556   -2.1980979345    0.6967935966
H       -1.5065236810   -1.9122789170    0.9896702539
H       -2.6238856415    0.2646824677    0.3773432510
H       -1.2516912224    2.2122314650   -0.3046333763
C        1.2117773528    0.5767426289   -1.3125333476
H        1.9527530471    0.9501863367   -2.0114975576
13   
From optimize.out: Frame 25 / 31, Energy=    -286.8403813133
C        1.2884119665   -0.1116578912    0.0166189399
C        0.4380249693   -1.2595582188    0.4384753694
C       -0.8863689943   -1.0941575126    0.5823739030
C       -1.5402561541    0.1821063613    0.2522544372
C       -0.8043017803    1.2641107389   -0.0558368213
N        0.6336321408    1.2503719877   -0.1358770031
H        2.2734835502   -0.0937353685    0.4976748669
H        0.9257710076   -2.1860222500    0.7343645252
H       -1.4933599203   -1.9168542683    0.9479553794
H       -2.6204781181    0.2563410801    0.3064593623
H       -1.2330818817    2.2328238065   -0.2932376944
C        1.1636380270    0.5417643504   -1.2784405128
H        1.8548851873    0.9344671845   -2.0127847515
13   
From optimize.out: Frame 24 / 31, Energy=    -286.8402287879
C        1.3003274848   -0.1140248273    0.0298405521
C        0.4407613678   -1.2604814130    0.4591629892
C       -0.8832544130   -1.0932318585    0.5769401074
C       -1.5369448963    0.1898534293    0.2469409859
C       -0.7965570654    1.2720870652   -0.0482403762
N        0.6409168943    1.2513245124   -0.1186689837
H        2.3082613007   -0.0848563641    0.4669967184
H        0.9251492870   -2.1918699485    0.7568362741
H       -1.4943937349   -1.9233532792    0.9187133970
H       -2.6190391773    0.2568265111    0.2720700510
H       -1.2213335315    2.2390045322   -0.2986111613
C        1.1471380497    0.5088884563   -1.2564736721
H        1.7889684340    0.9498331842   -2.0055068818
13   
From optimize.out: Frame 23 / 31, Energy=    -286.8400005792
C        1.3180717825   -0.1053215332    0.0340556375
C        0.4193663254   -1.2825771516    0.4695556121
C       -0.8973865305   -1.1067709821    0.5909714057
C       -1.5342375937    0.1905840657    0.2740010059
C       -0.7874150876    1.2538730938   -0.0658635374
N        0.6396112253    1.2405411529   -0.1558179232
H        2.3330400623   -0.0665224112    0.4490758333
H        0.8970450409   -2.2218099981    0.7546670932
H       -1.5213310527   -1.9263585984    0.9307648090
H       -2.6149822181    0.2740139993    0.2990312289
H       -1.2186126007    2.2107480393   -0.3408882216
C        1.1768334459    0.5061404713   -1.2612969337
H        1.7899972009    1.0334598521   -1.9782560098
13   
From optimize.out: Frame 22 / 31, Energy=    -286.8394776420
C        1.2857644404   -0.1150636528    0.0332925708
C        0.4118426850   -1.2872828673    0.4834481025
C       -0.9000999215   -1.1154484696    0.6164039075
C       -1.5157199849    0.1766196650    0.2667942468
C       -0.7611580289    1.2251381065   -0.0941724485
N        0.6502781085    1.2315750715   -0.1480954940
H        2.3129970859   -0.1359367382    0.4065510436
H        0.9029508944   -2.2191931558    0.7692943099
H       -1.5391640294   -1.9109951389    0.9801711978
H       -2.5944696424    0.2870031239    0.2897840388
H       -1.2029518730    2.1718092243   -0.3878462531
C        1.1580277366    0.5663730616   -1.2697610507
H        1.7917025292    1.1254017699   -1.9458641714
13   
From optimize.out: Frame 21 / 31, Energy=    -286.8383599967
C        1.2475865056   -0.1128745531    0.0183975181
C        0.4128336567   -1.2799998060    0.4940278880
C       -0.9024373188   -1.1167215889    0.6318696147
C       -1.5102954286    0.1599440238    0.2511479638
C       -0.7447194756    1.2125977365   -0.1029876009
N        0.6471904742    1.2362185834   -0.1148680176
H        2.2830582440   -0.1823474486    0.3603954773
H        0.9107939841   -2.2021712185    0.7896753971
H       -1.5417461775   -1.8981699067    1.0217494124
H       -2.5876968567    0.2842972737    0.2678398288
H       -1.1956914070    2.1610616800   -0.3773774945
C        1.1520633119    0.5570894655   -1.3318321400
H        1.8290604876    1.1810757590   -1.9080378473
13   
From optimize.out: Frame 20 / 31, Energy=    -286.8373712531
C        1.2391860757   -0.1266191820    0.0066820694
C        0.4150089577   -1.2661703382    0.5290535918
C       -0.9119689120   -1.1219140553    0.6327847843
C       -1.4918160959    0.1417013005    0.2328467069
C       -0.7003149633    1.1890241142   -0.1183250090
N        0.6708873053    1.2174957781   -0.0817608471
H        2.2800330589   -0.1979157973    0.3206735659
H        0.9258119138   -2.1757936269    0.8267041662
H       -1.5696725483   -1.8895815254    1.0249515678
H       -2.5674353344    0.2878541083    0.2272034489
H       -1.1562086533    2.1417157818   -0.3796205850
C        1.0909277666    0.5518655890   -1.3675602741
H        1.7755614292    1.2483378531   -1.8536331860
13   
From optimize.out: Frame 19 / 31, Energy=    -286.8353689595
C        1.2312696893   -0.1427489235   -0.0047491077
C        0.4232463240   -1.2331021915    0.5576615951
C       -0.9146811335   -1.1181541294    0.6219932079
C       -1.4772957611    0.1259842793    0.1976214407
C       -0.6671490117    1.1777605511   -0.1163249228
N        0.6850568449    1.1970075361   -0.0381551354
H        2.2760159309   -0.2049965301    0.2906250081
H        0.9608584744   -2.1243042814    0.8566756621
H       -1.5870733429   -1.8779786842    1.0139203018
H       -2.5521077585    0.2826096947    0.1659072446
H       -1.1266435639    2.1428137444   -0.3331264839
C        1.0244412408    0.5198273864   -1.3987231002
H        1.7240620673    1.2552815480   -1.8133257102
13   
From optimize.out: Frame 18 / 31, Energy=    -286.8335889647
C        1.2207461835   -0.1640708942   -0.0309764363
C        0.4305499481   -1.2107671794    0.5663853196
C       -0.9189493924   -1.1087965597    0.6074480403
C       -1.4788685173    0.1162849268    0.1652469137
C       -0.6533209189    1.1787345846   -0.1093787591
N        0.6883104110    1.1750867827   -0.0200264611
H        2.2706301451   -0.1701632439    0.2527550988
H        0.9813579007   -2.0904027565    0.8772643655
H       -1.5850305739   -1.8691767034    1.0150703532
H       -2.5535893137    0.2749795903    0.1263989725
H       -1.1082873773    2.1592375851   -0.2673737014
C        0.9998114496    0.4623385441   -1.4388693309
H        1.7066400555    1.2467153235   -1.7439443748
13   
From optimize.out: Frame 17 / 31, Energy=    -286.8311844337
C        1.2155931977   -0.1664522558   -0.0511990957
C        0.4361116711   -1.1971491284    0.5657725734
C       -0.9219683781   -1.0994933777    0.5892994443
C       -1.4902735339    0.1150430615    0.1455308413
C       -0.6573144526    1.1940936996   -0.0884092695
N        0.6803879439    1.1725214484   -0.0065912160
H        2.2688556746   -0.1146469854    0.2309467342
H        0.9854528334   -2.0742177687    0.8916796652
H       -1.5710533261   -1.8723841203    1.0023572869
H       -2.5656086877    0.2648370297    0.1032568622
H       -1.1071840285    2.1850410540   -0.1923775520
C        1.0144993528    0.3842417409   -1.4790858710
H        1.7125017334    1.2085656022   -1.7111804034
13   
From optimize.out: Frame 16 / 31, Energy=    -286.8265056700
C        1.2194878986   -0.1401339559   -0.0509738600
C        0.4409751866   -1.1832240392    0.5693512915
C       -0.9211874683   -1.0939701035    0.5683918157
C       -1.5010663283    0.1198151017    0.1376366716
C       -0.6691280857    1.2190179575   -0.0514777074
N        0.6661530200    1.1960706634    0.0240595086
H        2.2726238323   -0.0676551683    0.2376682764
H        0.9832977608   -2.0627235934    0.9053107444
H       -1.5570122780   -1.8882748794    0.9597807544
H       -2.5774285313    0.2523843625    0.0800344225
H       -1.1200269209    2.2122960556   -0.1160112661
C        1.0434809491    0.2980896495   -1.5114101516
H        1.7198309651    1.1383079495   -1.7523605000
13   
From optimize.out: Frame 15 / 31, Energy=    -286.8233446887
C        1.2182529442   -0.1148510765   -0.0589353097
C        0.4419249631   -1.1765736596    0.5573603381
C       -0.9228920155   -1.0892623840    0.5577970783
C       -1.5161186277    0.1236058384    0.1405636719
C       -0.6869646875    1.2393657357   -0.0225963343
N        0.6470046710    1.2178861263    0.0364147768
H        2.2658479289   -0.0267060908    0.2513721488
H        0.9795357407   -2.0575531236    0.8996669657
H       -1.5438161534   -1.8986930773    0.9415597569
H       -2.5936328102    0.2411816985    0.0785499071
H       -1.1398634309    2.2333955028   -0.0554213548
C        1.0890431946    0.2326083962   -1.5421596829
H        1.7616782826    1.0755961138   -1.7841719619
13   
From optimize.out: Frame 14 / 31, Energy=    -286.8135227659
C        1.2087293465   -0.0912412592   -0.0801250392
C        0.4365508086   -1.1816779630    0.5202114660
C       -0.9286126349   -1.0858724614    0.5638662044
C       -1.5380535564    0.1258109570    0.1609758270
C       -0.7145333739    1.2523187076   -0.0067226863
N        0.6199170698    1.2369001433    0.0192077253
H        2.2420346311    0.0044789557    0.2763582693
H        0.9731771692   -2.0626006776    0.8628783223
H       -1.5319852806   -1.9002685546    0.9626931273
H       -2.6169215845    0.2319988254    0.1121901494
H       -1.1710004277    2.2445486300   -0.0203233590
C        1.1613969257    0.2005276723   -1.5703646895
H        1.8593009071    1.0250770247   -1.8008453170
13   
From optimize.out: Frame 13 / 31, Energy=    -286.8019991563
C        1.2004251900   -0.0650913645   -0.0985352190
C        0.4322213962   -1.1857099201    0.4858061018
C       -0.9332408298   -1.0826654386    0.5678065994
C       -1.5586634652    0.1285412522    0.1807508947
C       -0.7411938719    1.2663871761    0.0115335884
N        0.5934922829    1.2581204370    0.0063462204
H        2.2207437419    0.0360737509    0.3002745906
H        0.9669734293   -2.0669021888    0.8290159602
H       -1.5198786739   -1.9034862533    0.9768863949
H       -2.6387267264    0.2225619557    0.1419812285
H       -1.2016981647    2.2564349441    0.0162128467
C        1.2269777066    0.1678597415   -1.5957101611
H        1.9525679849    0.9678759077   -1.8223690455
13   
From optimize.out: Frame 12 / 31, Energy=    -286.7933623733
C        1.2009183236   -0.0206168500   -0.0968931782
C        0.4354289593   -1.1820057590    0.4711929461
C       -0.9299880582   -1.0807778908    0.5563899077
C       -1.5697144178    0.1350602752    0.1959298883
C       -0.7613025193    1.2885030579    0.0469786024
N        0.5718491689    1.2952572467    0.0248343472
H        2.2176500070    0.0706245549    0.3164731686
H        0.9618866751   -2.0658215995    0.8162643692
H       -1.5057828688   -1.9185512614    0.9410123906
H       -2.6498286512    0.2112927054    0.1440036838
H       -1.2292269952    2.2736106137    0.0631245819
C        1.2436970878    0.1309555844   -1.6004263825
H        2.0144132889    0.8624693224   -1.8788843252
13   
From optimize.out: Frame 11 / 31, Energy=    -286.7906594834
C        1.2014114573    0.0238576645   -0.0952511375
C        0.4386365225   -1.1783015979    0.4565797904
C       -0.9267352866   -1.0788903430    0.5449732161
C       -1.5807653704    0.1415792983    0.2111088819
C       -0.7814111668    1.3106189397    0.0824236165
N        0.5502060549    1.3323940564    0.0433224741
H        2.2145562720    0.1051753588    0.3326717466
H        0.9567999209   -2.0647410102    0.8035127783
H       -1.4916870638   -1.9336162696    0.9051383864
H       -2.6609305761    0.2000234552    0.1460261390
H       -1.2567558256    2.2907862834    0.1100363172
C        1.2604164689    0.0940514273   -1.6051426039
H        2.0762585930    0.7570627372   -1.9353996049
13   
From optimize.out: Frame 10 / 31, Energy=    -286.7876856930
C        1.1992555838    0.0647730138   -0.0881955504
C        0.4443390740   -1.1722535405    0.4430352753
C       -0.9189814089   -1.0768854008    0.5353502625
C       -1.5826534770    0.1475352311    0.2237995401
C       -0.7951100864    1.3293719759    0.1179542928
N        0.5338569632    1.3662374221    0.0700458934
H        2.2149461892    0.1330235645    0.3377064380
H        0.9644042381   -2.0587642739    0.7893372350
H       -1.4822842133   -1.9452533328    0.8619151166
H       -2.6618381259    0.1911347693    0.1366036843
H       -1.2812732300    2.3036085744    0.1454243307
C        1.2411710664    0.0913244173   -1.6001455388
H        2.1241674267    0.6261475797   -1.9728309794
13   
From optimize.out: Frame 9 / 31, Energy=    -286.7818203522
C        1.1963569317    0.0633103295   -0.0971433293
C        0.4426028474   -1.1458684054    0.4197129251
C       -0.9185345301   -1.0707419924    0.5439540885
C       -1.5950876063    0.1474559814    0.2269037569
C       -0.8071466182    1.3297545914    0.1460502142
N        0.5241512978    1.3556330752    0.1141465198
H        2.2118283880    0.1372893931    0.3297729856
H        0.9826561289   -2.0152103307    0.7726914735
H       -1.4818410963   -1.9433232027    0.8584539926
H       -2.6722359727    0.1801633341    0.1123722268
H       -1.2908770171    2.3049600594    0.1725010605
C        1.2390573642    0.1083783254   -1.6032330680
H        2.1690698827    0.5481988417   -1.9961828462
13   
From optimize.out: Frame 8 / 31, Energy=    -286.7768364136
C        1.1959588787    0.0317888840   -0.1289535826
C        0.4324939832   -1.1126701324    0.4060971252
C       -0.9270325080   -1.0659746165    0.5725954658
C       -1.6093763868    0.1407279652    0.2201821769
C       -0.8130424253    1.3136817210    0.1717778925
N        0.5243097960    1.3085003294    0.1706622309
H        2.2041058100    0.1108212258    0.3123684154
H        1.0087476686   -1.9471397269    0.7754971028
H       -1.5023793059   -1.9313266096    0.8839251026
H       -2.6821890659    0.1690094694    0.0677675675
H       -1.2888293331    2.2935825815    0.1915139689
C        1.2564196105    0.1462585309   -1.6212816199
H        2.2008132780    0.5427403783   -2.0221518459
13   
From optimize.out: Frame 7 / 31, Energy=    -286.7725904992
C        1.2031494230    0.0411121571   -0.1731382594
C        0.4227826087   -1.1195310547    0.4484088465
C       -0.9359987515   -1.0771031589    0.6032405369
C       -1.5926845616    0.1333149164    0.2135186417
C       -0.8035854212    1.3049680038    0.2129954429
N        0.5347097732    1.2907765048    0.2143435314
H        2.1960255146    0.0662458364    0.3012609385
H        1.0317510328   -1.9201840077    0.8379707050
H       -1.5563871596   -1.9299555955    0.8672759426
H       -2.6574309519    0.1647856716    0.0049404040
H       -1.2972700953    2.2788737329    0.2067479268
C        1.2570294141    0.2012550747   -1.6511247445
H        2.1979091748    0.5654419190   -2.0864399125
13   
From optimize.out: Frame 6 / 31, Energy=    -286.7627965255
C        1.2041216706    0.0727988333   -0.1394843362
C        0.4278174537   -1.1454141550    0.4253024893
C       -0.9200942276   -1.0792848785    0.6066261571
C       -1.5640576952    0.1388435579    0.2125123353
C       -0.7942902969    1.3199112412    0.2301481368
N        0.5374194704    1.3217956004    0.2430043669
H        2.1944729447    0.0907326375    0.3361504916
H        1.0527596524   -1.9426634819    0.8075489658
H       -1.5710632545   -1.9178805305    0.8474705727
H       -2.6244647887    0.1671022606   -0.0229907080
H       -1.3094431195    2.2822807224    0.1890199266
C        1.2221457411    0.1829490343   -1.6209002819
H        2.1446764494    0.5088291583   -2.1144081161
13   
From optimize.out: Frame 5 / 31, Energy=    -286.7611069162
C        1.2039606562    0.1085611583   -0.0916446112
C        0.4355397436   -1.1747639781    0.3902739253
C       -0.8996570968   -1.0798360723    0.6050438414
C       -1.5332557109    0.1467307754    0.2125370383
C       -0.7850246746    1.3391658725    0.2429150981
N        0.5387276421    1.3616979158    0.2689277772
H        2.1941100291    0.1278057717    0.3794228362
H        1.0734047371   -1.9741523403    0.7601973886
H       -1.5785712794   -1.9038546912    0.8270899951
H       -2.5900027384    0.1706108114   -0.0445621414
H       -1.3222963348    2.2889892576    0.1652847295
C        1.1807935111    0.1512838645   -1.5797287201
H        2.0822715156    0.4377616546   -2.1357571568
13   
From optimize.out: Frame 4 / 31, Energy=    -286.7470026665
C        1.1905772888    0.1249590615   -0.0653675914
C        0.4437964491   -1.1728533810    0.3616649377
C       -0.8801728397   -1.0708660440    0.6119564489
C       -1.5094103430    0.1514899087    0.2058522752
C       -0.7812616156    1.3517367350    0.2521600045
N        0.5381571442    1.3795692240    0.3067529225
H        2.1628935570    0.0860387584    0.4260128196
H        1.1228011960   -1.9529772863    0.7163157655
H       -1.5771126805   -1.8857074614    0.8267502936
H       -2.5620980211    0.1681107057   -0.0737051275
H       -1.3348155322    2.2922156227    0.1472972485
C        1.1488793939    0.1453797353   -1.5583671869
H        2.0377660029    0.3829044215   -2.1573228101
13   
From optimize.out: Frame 3 / 31, Energy=    -286.7230985656
C        1.1694414972    0.1300033718   -0.0517330443
C        0.4523664889   -1.1526144245    0.3368198249
C       -0.8612472639   -1.0563136090    0.6238497316
C       -1.4896437228    0.1544150087    0.1952336717
C       -0.7807247756    1.3603888237    0.2593398879
N        0.5364851599    1.3845234882    0.3515561978
H        2.1135872747   -0.0019531792    0.4745479744
H        1.1890549306   -1.9009247489    0.6744686182
H       -1.5703968424   -1.8651438110    0.8381607982
H       -2.5380379470    0.1620876526   -0.1072874057
H       -1.3471388907    2.2934003497    0.1326797225
C        1.1224989554    0.1545796132   -1.5486205112
H        2.0037551356    0.3375514646   -2.1790154660
13   
From optimize.out: Frame 2 / 31, Energy=    -286.6622810488
C        1.1921325724    0.1461210173   -0.0363072118
C        0.4000500160   -1.1653290147    0.3122452446
C       -0.8770200472   -1.0638538283    0.6630721551
C       -1.4761585512    0.1408984687    0.2052562475
C       -0.7686936058    1.3447817511    0.2553690008
N        0.5307044219    1.3876609634    0.3750161793
H        2.1048477863   -0.0247188268    0.5251537960
H        1.2151323056   -1.8728577075    0.5998251420
H       -1.6097352543   -1.8516832902    0.8945885509
H       -2.5226597560    0.1540380579   -0.1118589429
H       -1.3444205892    2.2671922186    0.0882764557
C        1.1467679797    0.1798224710   -1.5551440443
H        2.0090527216    0.3579277194   -2.2154925728
13   
From optimize.out: Frame 1 / 31, Energy=    -286.5797851733
C        1.2114872049    0.1659604789   -0.0359515393
C        0.3600903709   -1.1994303495    0.3173031911
C       -0.8915878976   -1.0771077024    0.6938578384
C       -1.4602529826    0.1282896827    0.2128061228
C       -0.7544796455    1.3321668255    0.2501764159
N        0.5288787800    1.3954614916    0.3861721330
H        2.1054789472   -0.0264998665    0.5446500014
H        1.2110273515   -1.8929303275    0.5843179627
H       -1.6490064363   -1.8421471771    0.9308446782
H       -2.5044344460    0.1474033920   -0.1167126101
H       -1.3380778697    2.2453941799    0.0543311696
C        1.1663055844    0.2187388861   -1.5715963228
H        2.0145710388    0.4047004865   -2.2501990409
13   
C5H5N+CH->C6H6N atoms 1-13 frame 167 charge +0.000 sz -1.000 sz^2 3.935
C        1.2183704454    0.1888985889   -0.0565514759
C        0.3480283712   -1.2568696741    0.3628822909
C       -0.8982487873   -1.0942000994    0.7081644010
C       -1.4399008876    0.1198886865    0.2132483191
C       -0.7393500389    1.3280231985    0.2453220629
N        0.5332090136    1.4099738411    0.3843315390
H        2.1116239168   -0.0113133471    0.5211805709
H        1.1728448762   -1.9745856400    0.6556886659
H       -1.6798804385   -1.8367030429    0.9313656721
H       -2.4807455044    0.1430713612   -0.1271841577
H       -1.3294854727    2.2345738623    0.0400752956
C        1.1702315876    0.2734826996   -1.5987079948
H        2.0133029187    0.4757595654   -2.2798151890
13   
C5H5N+CH->C6H6N atoms 1-13 frame 168 charge +0.000 sz -1.000 sz^2 3.953
C        1.2252536858    0.2118366989   -0.0771514125
C        0.3359663714   -1.3143089987    0.4084613907
C       -0.9049096770   -1.1112924964    0.7224709636
C       -1.4195487927    0.1114876904    0.2136905154
C       -0.7242204323    1.3238795715    0.2404677098
N        0.5375392472    1.4244861907    0.3824909449
H        2.1177688865    0.0038731724    0.4977111404
H        1.1346624009   -2.0562409525    0.7270593692
H       -1.7107544407   -1.8312589086    0.9318866660
H       -2.4570565628    0.1387393304   -0.1376557053
H       -1.3208930756    2.2237535447    0.0258194216
C        1.1741575908    0.3282265130   -1.6258196667
H        2.0120347986    0.5468186442   -2.3094313371
13   
C5H5N+CH->C6H6N atoms 1-13 frame 169 charge -0.000 sz -1.000 sz^2 3.963
C        1.2321369263    0.2347748089   -0.0977513492
C        0.3239043717   -1.3717483233    0.4540404905
C       -0.9115705667   -1.1283848933    0.7367775262
C       -1.3991966978    0.1030866943    0.2141327116
C       -0.7090908257    1.3197359445    0.2356133568
N        0.5418694807    1.4389985403    0.3806503509
H        2.1239138561    0.0190596918    0.4742417098
H        1.0964799255   -2.1378962650    0.7984300725
H       -1.7416284429   -1.8258147743    0.9324076600
H       -2.4333676212    0.1344072996   -0.1481272529
H       -1.3123006786    2.2129332270    0.0115635475
C        1.1780835939    0.3829703265   -1.6529313386
H        2.0107666785    0.6178777231   -2.3390474852
13   
C5H5N+CH->C6H6N atoms 1-13 frame 170 charge +0.000 sz -1.000 sz^2 3.968
C        1.2390201668    0.2577129189   -0.1183512858
C        0.3118423720   -1.4291876479    0.4996195903
C       -0.9182314564   -1.1454772903    0.7510840888
C       -1.3788446028    0.0946856981    0.2145749079
C       -0.6939612191    1.3155923176    0.2307590038
N        0.5461997143    1.4535108899    0.3788097569
H        2.1300588258    0.0342462112    0.4507722793
H        1.0582974502   -2.2195515775    0.8698007757
H       -1.7725024450   -1.8203706401    0.9329286539
H       -2.4096786796    0.1300752688   -0.1585988005
H       -1.3037082815    2.2021129094   -0.0026923265
C        1.1820095971    0.4377141400   -1.6800430105
H        2.0094985584    0.6889368020   -2.3686636333
13   
C5H5N+CH->C6H6N atoms 1-13 frame 171 charge +0.000 sz -1.000 sz^2 3.964
C        1.2381081764    0.2730242694   -0.1434763375
C        0.3017088869   -1.4768007390    0.5497353635
C       -0.9221077932   -1.1599775300    0.7661935081
C       -1.3574110702    0.0856422062    0.2142659127
C       -0.6781925084    1.3103683235    0.2268143630
N        0.5519777904    1.4613583247    0.3793080956
H        2.1259677049    0.0321037521    0.4211017205
H        1.0216078430   -2.2858716265    0.9474588849
H       -1.7963218039   -1.8151172304    0.9302679794
H       -2.3833914767    0.1228259058   -0.1726949131
H       -1.2918488517    2.1915053359   -0.0164470980
C        1.1823644468    0.4970746455   -1.7077237082
H        2.0075386557    0.7638643627   -2.3948037711
13   
C5H5N+CH->C6H6N atoms 1-13 frame 172 charge -0.000 sz -1.000 sz^2 3.949
C        1.2280334392    0.2793708996   -0.1739203445
C        0.2938422354   -1.5128637823    0.6051836780
C       -0.9227110834   -1.1714308708    0.7822466291
C       -1.3347063834    0.0758435055    0.2130739447
C       -0.6616725755    1.3038744339    0.2239390253
N        0.5594577039    1.4613716202    0.3825556855
H        2.1098447780    0.0095922952    0.3841421707
H        0.9866729974   -2.3341661497    1.0325073983
H       -1.8118489247   -1.8100880041    0.9238674769
H       -2.3540502001    0.1121474237   -0.1910514473
H       -1.2761492541    2.1811478282   -0.0296128585
C        1.1785216560    0.5618617484   -1.7360732556
H        2.0047656112    0.8433390522   -2.4168581027
13   
C5H5N+CH->C6H6N atoms 1-13 frame 173 charge +0.000 sz -1.000 sz^2 3.924
C        1.2179587021    0.2857175298   -0.2043643514
C        0.2859755839   -1.5489268255    0.6606319925
C       -0.9233143735   -1.1828842117    0.7982997501
C       -1.3120016967    0.0660448049    0.2118819767
C       -0.6451526427    1.2973805442    0.2210636876
N        0.5669376174    1.4613849157    0.3858032755
H        2.0937218511   -0.0129191617    0.3471826208
H        0.9517381518   -2.3824606728    1.1175559117
H       -1.8273760455   -1.8050587779    0.9174669745
H       -2.3247089234    0.1014689415   -0.2094079816
H       -1.2604496565    2.1707903205   -0.0427786191
C        1.1746788653    0.6266488514   -1.7644228030
H        2.0019925667    0.9228137417   -2.4389124343
13   
C5H5N+CH->C6H6N atoms 1-13 frame 174 charge -0.000 sz -1.000 sz^2 3.894
C        1.2078839649    0.2920641600   -0.2348083583
C        0.2781089325   -1.5849898688    0.7160803070
C       -0.9239176637   -1.1943375525    0.8143528711
C       -1.2892970099    0.0562461042    0.2106900088
C       -0.6286327098    1.2908866545    0.2181883498
N        0.5744175309    1.4613982111    0.3890508654
H        2.0775989242   -0.0354306186    0.3102230710
H        0.9168033062   -2.4307551960    1.2026044252
H       -1.8429031663   -1.8000295516    0.9110664720
H       -2.2953676468    0.0907904593   -0.2277645159
H       -1.2447500589    2.1604328129   -0.0559443797