13   
From optimize.out: Frame 1 / 2, Energy=    -286.8405101568
C        1.3124298484   -0.0975946439    0.0436157441
C        0.4498855437   -1.2273034426    0.4519224280
C       -0.8926964123   -1.1033291819    0.4848436928
C       -1.5382567658    0.1827420806    0.2616387570
C       -0.8211695858    1.2682934622   -0.0838731046
N        0.5722795659    1.2083535336   -0.3343067327
H        2.2232983203    0.0643887170    0.6254488622
H        0.9378922942   -2.1508412213    0.7558459933
H       -1.5110716912   -1.9466871404    0.7809235959
H       -2.5984363969    0.2871612308    0.4746464774
H       -1.2414452168    2.2700125292   -0.1119807278
C        1.1871675708    0.4342154903   -1.3192912543
H        1.9201229259    0.8105885861   -2.0294337316
13   
From optimize.out: Frame 30 / 31, Energy=    -286.8405101568
C        1.3195438176   -0.1163982466    0.0198089320
C        0.4446520872   -1.2410848772    0.4518172472
C       -0.8935399493   -1.1025115160    0.5095265335
C       -1.5401201044    0.1729235944    0.2312702108
C       -0.8193428398    1.2618312255   -0.0915753763
N        0.5955574460    1.2227330474   -0.2814456050
H        2.2436130783    0.0162971730    0.5865682246
H        0.9303735618   -2.1586570645    0.7743488712
H       -1.5132853112   -1.9288054041    0.8487956580
H       -2.6054882602    0.2775640727    0.4143683679
H       -1.2409780275    2.2608426958   -0.1256642620
C        1.1820904587    0.4740503129   -1.3082595091
H        1.8969240429    0.8612149868   -2.0295592928
13   
From optimize.out: Frame 29 / 31, Energy=    -286.8405050267
C        1.3140954952   -0.1142121137    0.0154768034
C        0.4370868067   -1.2593345557    0.4483752012
C       -0.8938589864   -1.1020134351    0.5518548292
C       -1.5371279900    0.1759032073    0.2480546575
C       -0.8090699118    1.2593982878   -0.0737551317
N        0.6223495102    1.2311122758   -0.2166863107
H        2.2601991887   -0.0290676961    0.5551614589
H        0.9207733861   -2.1834928902    0.7539075867
H       -1.5131111629   -1.9237435008    0.9004197057
H       -2.6120949998    0.2698444112    0.3621891202
H       -1.2389486365    2.2438691381   -0.2179515142
C        1.1797022369    0.5199489438   -1.2938037196
H        1.8700050637    0.9117879275   -2.0332426867
13   
From optimize.out: Frame 28 / 31, Energy=    -286.8404918441
C        1.2965776251   -0.1034716285    0.0052323772
C        0.4245793657   -1.2707577008    0.4239792131
C       -0.8988370082   -1.1031495864    0.5868131465
C       -1.5434991427    0.1750919738    0.2735080743
C       -0.8108199218    1.2493816975   -0.0699044780
N        0.6238961347    1.2403892918   -0.1910672954
H        2.2512330794   -0.0688316574    0.5397790527
H        0.9093679703   -2.1968200173    0.7134897903
H       -1.5094894573   -1.9163427463    0.9665868594
H       -2.6211252381    0.2652671652    0.3646980383
H       -1.2459356831    2.2195286884   -0.2883519056
C        1.2010472418    0.5646784860   -1.3055612735
H        1.9230050341    0.9450360341   -2.0192015993
13   
From optimize.out: Frame 27 / 31, Energy=    -286.8404749921
C        1.2886229497   -0.1081659392    0.0114940007
C        0.4327590624   -1.2634662445    0.4303353650
C       -0.8905823212   -1.0968835845    0.5862507302
C       -1.5423285367    0.1795594133    0.2607760993
C       -0.8075282950    1.2583965601   -0.0612795270
N        0.6293785473    1.2482267863   -0.1519818017
H        2.2639563388   -0.0897623458    0.5105503913
H        0.9198266648   -2.1897587455    0.7227392128
H       -1.4974330916   -1.9154385490    0.9608629243
H       -2.6215324845    0.2589220980    0.3283924733
H       -1.2388400412    2.2264520608   -0.2967637814
C        1.1785334454    0.5525874370   -1.2889896227
H        1.8851677618    0.9393310530   -2.0123864640
13   
From optimize.out: Frame 26 / 31, Energy=    -286.8404509770
C        1.3020070658   -0.1132010197    0.0302395297
C        0.4387362267   -1.2625728783    0.4601466997
C       -0.8845920842   -1.0945134001    0.5782682356
C       -1.5366886374    0.1899225875    0.2495023437
C       -0.7956917343    1.2703630274   -0.0499084911
N        0.6407933066    1.2503038168   -0.1221853050
H        2.3106067267   -0.0831209694    0.4653004225
H        0.9224890883   -2.1947039146    0.7566309509
H       -1.4969434783   -1.9236377468    0.9198541197
H       -2.6186551671    0.2584533874    0.2746220529
H       -1.2210759826    2.2363299226   -0.3026128833
C        1.1499488582    0.5086283466   -1.2569302164
H        1.7890658116    0.9577488405   -2.0029274590
13   
From optimize.out: Frame 25 / 31, Energy=    -286.8403813133
C        1.3087862804   -0.1081215305    0.0338363233
C        0.4172039445   -1.2839296284    0.4735484738
C       -0.8981663903   -1.1092649919    0.5982809996
C       -1.5289154197    0.1865705362    0.2719297004
C       -0.7798685066    1.2456143276   -0.0739998444
N        0.6426770104    1.2379641979   -0.1535984081
H        2.3272794801   -0.0864728880    0.4368537191
H        0.8987424512   -2.2210578875    0.7588711237
H       -1.5264564555   -1.9219429633    0.9449647740
H       -2.6090866676    0.2777472233    0.2963734800
H       -1.2141115272    2.1995565755   -0.3543845005
C        1.1714284686    0.5234520112   -1.2637296184
H        1.7904873319    1.0598850179   -1.9689462225
13   
From optimize.out: Frame 23 / 31, Energy=    -286.8400005792
C        1.2722545496   -0.1142890038    0.0280217112
C        0.4121933567   -1.2847056361    0.4871919338
C       -0.9009270480   -1.1158989838    0.6218767027
C       -1.5138004163    0.1707187148    0.2612575519
C       -0.7553409761    1.2207004901   -0.0972918353
N        0.6491854983    1.2332182546   -0.1363374044
H        2.3024027337   -0.1523599323    0.3902181365
H        0.9057263009   -2.2131696630    0.7765064932
H       -1.5400777650   -1.9064567193    0.9948843337
H       -2.5920729807    0.2860456142    0.2820187188
H       -1.2003826376    2.1680060288   -0.3841417105
C        1.1559171267    0.5630879083   -1.2917259277
H        1.8049222579    1.1451029276   -1.9324787038
13   
From optimize.out: Frame 22 / 31, Energy=    -286.8394776420
C        1.2435163150   -0.1195341241    0.0127211289
C        0.4138876372   -1.2732991287    0.5109986017
C       -0.9070555826   -1.1192374516    0.6323130342
C       -1.5013417908    0.1511050284    0.2422806076
C       -0.7232045256    1.2011758048   -0.1104189081
N        0.6586721032    1.2271469779   -0.0988268749
H        2.2815924762   -0.1898906515    0.3411493491
H        0.9180704970   -2.1893907029    0.8076166395
H       -1.5552771103   -1.8940086495    1.0233009262
H       -2.5778797094    0.2860206373    0.2481506207
H       -1.1765611558    2.1516881724   -0.3784643205
C        1.1224418132    0.5545583840   -1.3491431965
H        1.8031390326    1.2136657036   -1.8816776080
13   
From optimize.out: Frame 21 / 31, Energy=    -286.8383599967
C        1.2351173213   -0.1349093227    0.0008068316
C        0.4192426849   -1.2491744311    0.5437571363
C       -0.9133629019   -1.1199815808    0.6272382796
C       -1.4843531357    0.1336232841    0.2147421135
C       -0.6832687879    1.1832350243   -0.1172970325
N        0.6781699686    1.2069655159   -0.0593489886
H        2.2779683912   -0.2015550541    0.3052296252
H        0.9438246586   -2.1493298477    0.8421084997
H       -1.5786159672   -1.8836180581    1.0192818708
H       -2.5595574797    0.2851586574    0.1956992766
H       -1.1410131990    2.1422800974   -0.3557241922
C        1.0567559449    0.5353990383   -1.3835769109
H        1.7490925019    1.2519066771   -1.8329165090
13   
From optimize.out: Frame 20 / 31, Energy=    -286.8373712531
C        1.2249614115   -0.1555303024   -0.0204709858
C        0.4276244552   -1.2197135486    0.5628910005
C       -0.9172397260   -1.1125447678    0.6132741593
C       -1.4782385442    0.1201700373    0.1782146466
C       -0.6588598111    1.1783444320   -0.1121610699
N        0.6870071834    1.1838672191   -0.0272879666
H        2.2727874409   -0.1841158416    0.2679240268
H        0.9731467820   -2.1039821338    0.8690174865
H       -1.5858488123   -1.8727023684    1.0146096960
H       -2.5529958714    0.2780358560    0.1422241526
H       -1.1156400137    2.1526589568   -0.2937112142
C        1.0096770008    0.4853659060   -1.4227886143
H        1.7136185048    1.2501465555   -1.7717353175
13   
From optimize.out: Frame 19 / 31, Energy=    -286.8353689595
C        1.2168154934   -0.1658873933   -0.0464022516
C        0.4347924223   -1.2003793498    0.5659179177
C       -0.9212522703   -1.1017001060    0.5936043176
C       -1.4875682474    0.1153376337    0.1502075223
C       -0.6563671806    1.1904504953   -0.0933832628
N        0.6822671645    1.1731299494   -0.0097780756
H        2.2692765816   -0.1278155224    0.2361197099
H        0.9844815094   -2.0780568712    0.8882603352
H       -1.5743687495   -1.8716233163    1.0053728447
H       -2.5627576748    0.2672428597    0.1087462043
H       -1.1074457444    2.1789204337   -0.2101667473
C        1.0110153608    0.4027664158   -1.4695464494
H        1.7111113349    1.2176147714   -1.7189520649
13   
From optimize.out: Frame 18 / 31, Energy=    -286.8335889647
C        1.2187149307   -0.1453572585   -0.0510185617
C        0.4400099414   -1.1859877039    0.5686410356
C       -0.9213424528   -1.0950662887    0.5725412810
C       -1.4989243195    0.1188680112    0.1392034004
C       -0.6667834745    1.2140713256   -0.0588073878
N        0.6689781765    1.1913969315    0.0179763645
H        2.2718759789   -0.0769814730    0.2363342750
H        0.9837254706   -2.0650048029    0.9026054309
H       -1.5597989566   -1.8851210950    0.9682307727
H       -2.5750826875    0.2548558006    0.0846433004
H       -1.1174780361    2.2068868489   -0.1311674208
C        1.0377290711    0.3151879595   -1.5049948625
H        1.7183763576    1.1522517447   -1.7441876275
13   
From optimize.out: Frame 17 / 31, Energy=    -286.8311844337
C        1.2183399209   -0.1166317266   -0.0583745920
C        0.4418580712   -1.1770420398    0.5582048500
C       -0.9227719658   -1.0895939444    0.5585432560
C       -1.5150585080    0.1233388603    0.1403575259
C       -0.6857084719    1.2379326603   -0.0246304230
N        0.6483532717    1.2163496832    0.0355446066
H        2.2663251496   -0.0295900970    0.2504069975
H        0.9798006964   -2.0579172751    0.9000644519
H       -1.5447455444   -1.8979593331    0.9428430452
H       -2.5924915576    0.2419706919    0.0786544601
H       -1.1384663636    2.2319094880   -0.0596886469
C        1.0858342873    0.2372201811   -1.5399940215
H        1.7587310143    1.0800128511   -1.7819315097
13   
From optimize.out: Frame 16 / 31, Energy=    -286.8265056700
C        1.2092766721   -0.0925981264   -0.0789072555
C        0.4368596638   -1.1813846163    0.5223464290
C       -0.9282838683   -1.0860672819    0.5635174089
C       -1.5367929458    0.1256842278    0.1598027309
C       -0.7129489886    1.2515742943   -0.0076349523
N        0.6214738069    1.2358073988    0.0201966226
H        2.2434031924    0.0026867365    0.2749223053
H        0.9735425993   -2.0623105923    0.8649925828
H       -1.5326652064   -1.9001780112    0.9614785826
H       -2.6155831677    0.2325265694    0.1102568290
H       -1.1692109699    2.2439076545   -0.0223404572
C        1.1572387230    0.2023713665   -1.5687437346
H        1.8536904892    1.0279803803   -1.7998870915
13   
From optimize.out: Frame 15 / 31, Energy=    -286.8233446887
C        1.2006135259   -0.0656844368   -0.0981176812
C        0.4323195860   -1.1856184765    0.4865864059
C       -0.9331358636   -1.0827381730    0.5677172323
C       -1.5581960381    0.1284793299    0.1803024017
C       -0.7405892192    1.2660681072    0.0111195412
N        0.5940915897    1.2576391666    0.0066379157
H        2.2212266134    0.0353571897    0.2997321751
H        0.9671141284   -2.0668046317    0.8297839492
H       -1.5201532484   -1.9034132768    0.9765644955
H       -2.6382321918    0.2227759813    0.1413055751
H       -1.2010019485    2.2561653658    0.0153842157
C        1.2254903527    0.1686006411   -1.5951353328
H        1.9504527134    0.9691732131   -1.8218808933
13   
From optimize.out: Frame 14 / 31, Energy=    -286.8135227659
C        1.2009092357   -0.0214364699   -0.0969234394
C        0.4353698472   -1.1820740229    0.4714622516
C       -0.9300480035   -1.0808126764    0.5566003057
C       -1.5695107600    0.1349401363    0.1956501550
C       -0.7609319375    1.2880954848    0.0463253870
N        0.5722480294    1.2945728532    0.0244936299
H        2.2177070214    0.0699878189    0.3161746454
H        0.9619804188   -2.0658415136    0.8164993680
H       -1.5060426401   -1.9182736287    0.9416735119
H       -2.6496240541    0.2115003862    0.1439664120
H       -1.2287196669    2.2732940837    0.0622600465
C        1.2433889666    0.1316356903   -1.6003394673
H        2.0132735431    0.8644118581   -1.8778428063
13   
From optimize.out: Frame 13 / 31, Energy=    -286.8019991563
C        1.2014041073    0.0231947926   -0.0952756113
C        0.4385887153   -1.1783568067    0.4567975926
C       -0.9267837677   -1.0789184760    0.5451433765
C       -1.5806006611    0.1414821353    0.2108826461
C       -0.7811114568    1.3102893128    0.0818953251
N        0.5505286354    1.3318405496    0.0430469172
H        2.2146023827    0.1046603952    0.3324303143
H        0.9568757366   -2.0647571159    0.8037028348
H       -1.4918971552   -1.9333917327    0.9056730717
H       -2.6607651071    0.2001914181    0.1459959952
H       -1.2563455213    2.2905302880    0.1093371196
C        1.2601672743    0.0946014666   -1.6050723108
H        2.0753368175    0.7586337732   -1.9345572710
13   
From optimize.out: Frame 12 / 31, Energy=    -286.7933623733
C        1.1992469540    0.0647686591   -0.0882221897
C        0.4443339049   -1.1721749865    0.4429658399
C       -0.9189800784   -1.0768671106    0.5353758779
C       -1.5826904960    0.1475349951    0.2238087820
C       -0.7951459216    1.3293731151    0.1180379401
N        0.5338280674    1.3662058508    0.0701771900
H        2.2149369069    0.1330362648    0.3376828185
H        0.9644585777   -2.0586346049    0.7892876771
H       -1.4822828941   -1.9452475864    0.8619048121
H       -2.6618690824    0.1911021051    0.1365315422
H       -1.2813018225    2.3036125980    0.1455049436
C        1.2411647735    0.0913751903   -1.6001547310
H        2.1243011106    0.6259155102   -1.9729005027
13   
From optimize.out: Frame 10 / 31, Energy=    -286.7876856930
C        1.1962282787    0.0531224171   -0.1074245860
C        0.4393356044   -1.1351385328    0.4153122203
C       -0.9212811254   -1.0692011491    0.5532111463
C       -1.5997058223    0.1452814479    0.2247313036
C       -0.8090521769    1.3245597473    0.1543655477
N        0.5242025253    1.3403995009    0.1324127224
H        2.2093324064    0.1287347293    0.3241477285
H        0.9910890644   -1.9932095203    0.7735982690
H       -1.4884791637   -1.9394458349    0.8666864017
H       -2.6754528696    0.1765583409    0.0979557446
H       -1.2902151939    2.3012827931    0.1786461418
C        1.2446689420    0.1206214255   -1.6090664637
H        2.1793295305    0.5464346350   -2.0045761762
13   
From optimize.out: Frame 9 / 31, Energy=    -286.7818203522
C        1.1989880885    0.0357165631   -0.1475675639
C        0.4284028059   -1.1155604801    0.4239220737
C       -0.9308097788   -1.0706628138    0.5855055247
C       -1.6023445073    0.1376050194    0.2173749838
C       -0.8090584084    1.3100108337    0.1891418921
N        0.5286910656    1.3010336925    0.1890641514
H        2.2007017687    0.0920426463    0.3076890926
H        1.0184384533   -1.9357839065    0.8018157849
H       -1.5251315642   -1.9307490331    0.8769111970
H       -2.6717590458    0.1672300811    0.0412999382
H       -1.2923852308    2.2873860841    0.1979316826
C        1.2566765066    0.1694273014   -1.6338538373
H        2.1995898466    0.5523040118   -2.0492349198
13   
From optimize.out: Frame 8 / 31, Energy=    -286.7768364136
C        1.2036508316    0.0574536443   -0.1557822214
C        0.4253791844   -1.1328795154    0.4364924108
C       -0.9277964531   -1.0782283177    0.6049865726
C       -1.5779210828    0.1361661534    0.2129996683
C       -0.7987917296    1.3126745465    0.2218414489
N        0.5361072212    1.3067737066    0.2291245287
H        2.1952248216    0.0788741962    0.3192542169
H        1.0425856210   -1.9317771466    0.8222815725
H       -1.5639559313   -1.9237282298    0.8570618957
H       -2.6404296063    0.1659803854   -0.0094642595
H       -1.3035479806    2.2806307892    0.1976052232
C        1.2390391682    0.1918142636   -1.6355373517
H        2.1704559356    0.5362455244   -2.1008637050
13   
From optimize.out: Frame 7 / 31, Energy=    -286.7725904992
C        1.2040243172    0.0944216443   -0.1105592220
C        0.4324865466   -1.1631598044    0.4041233288
C       -0.9077374186   -1.0796181443    0.6056694488
C       -1.5454340323    0.1436123701    0.2125272714
C       -0.7886880661    1.3315530809    0.2378673662
N        0.5382104242    1.3459215549    0.2586783199
H        2.1942535167    0.1131479971    0.3623140515
H        1.0652421956   -1.9617024464    0.7789189982
H       -1.5756027973   -1.9094001515    0.8351479573
H       -2.6036281568    0.1692236196   -0.0360333451
H       -1.3172145003    2.2863368734    0.1746690229
C        1.1971431314    0.1638034675   -1.5960069088
H        2.1069448396    0.4658599385   -2.1273162890
13   
From optimize.out: Frame 6 / 31, Energy=    -286.7627965255
C        1.1943576780    0.1203271587   -0.0727900405
C        0.4414641840   -1.1733930659    0.3697460959
C       -0.8856765424   -1.0733998008    0.6100038501
C       -1.5161459253    0.1501456001    0.2077405150
C       -0.7823245639    1.3481858534    0.2495486031
N        0.5383182923    1.3745211296    0.2960684835
H        2.1717112493    0.0978366537    0.4128525837
H        1.1088482172   -1.9589585872    0.7287109730
H       -1.5775246898   -1.8908334951    0.8268462488
H       -2.5699802446    0.1688169086   -0.0654731312
H       -1.3312792444    2.2913042739    0.1523781581
C        1.1578941495    0.1470474701   -1.5644011624
H        2.0503374400    0.3983999009   -2.1512311770
13   
From optimize.out: Frame 5 / 31, Energy=    -286.7611069162
C        1.1744270807    0.1288135025   -0.0549492084
C        0.4503449584   -1.1573884595    0.3426803759
C       -0.8657114941   -1.0597462876    0.6210443030
C       -1.4943063415    0.1537250260    0.1977384246
C       -0.7808514072    1.3583479391    0.2576462722
N        0.5368795534    1.3833548593    0.3409878465
H        2.1252178109    0.0188026629    0.4630993345
H        1.1734267709   -1.9132030812    0.6843396678
H       -1.5719809975   -1.8699944358    0.8354692489
H       -2.5437133204    0.1635083911   -0.0993659020
H       -1.3442320143    2.2931208922    0.1361277550
C        1.1287216643    0.1524095142   -1.5509195907
H        2.0117777364    0.3482494767   -2.1738985274
13   
From optimize.out: Frame 4 / 31, Energy=    -286.7470026665
C        1.1882549580    0.1433667179   -0.0389432892
C        0.4089902318   -1.1631562539    0.3164447259
C       -0.8743246804   -1.0625653013    0.6563695448
C       -1.4784629944    0.1432082724    0.2035435175
C       -0.7707495787    1.3474488001    0.2560475746
N        0.5316922761    1.3871248091    0.3710071686
H        2.1063412531   -0.0208284690    0.5165059087
H        1.2106760159   -1.8776540057    0.6125807569
H       -1.6030128231   -1.8539835210    0.8849457700
H       -2.5252876921    0.1554136306   -0.1110777257
H       -1.3448851122    2.2716708529    0.0958644058
C        1.1426207140    0.1755087896   -1.5540292560
H        2.0081474320    0.3544456782   -2.2092591020
13   
From optimize.out: Frame 3 / 31, Energy=    -286.7230985656
C        1.2123436618    0.1688145858   -0.0385147156
C        0.3585895395   -1.2065773189    0.3229744352
C       -0.8924166882   -1.0792344482    0.6956379527
C       -1.4577206443    0.1272443768    0.2128611437
C       -0.7525971228    1.3316512488    0.2495724062
N        0.5294175755    1.3972672112    0.3859431144
H        2.1062435437   -0.0246102623    0.5417297843
H        1.2062764429   -1.9030904055    0.5931983636
H       -1.6528479778   -1.8414697830    0.9309095036
H       -2.5014869159    0.1468643729   -0.1180155473
H       -1.3370087485    2.2440478466    0.0525573623
C        1.1667940829    0.2255504627   -1.5749697311
H        2.0144132512    0.4135421131   -2.2538840721
13   
From optimize.out: Frame 2 / 31, Energy=    -286.6622810488
C        1.2192515131    0.1918347101   -0.0591883066
C        0.3464844125   -1.2642220158    0.3687165015
C       -0.8991013937   -1.0963879584    0.7099956679
C       -1.4372957812    0.1188133432    0.2133049211
C       -0.7374134208    1.3274928064    0.2447006966
N        0.5337632916    1.4118314492    0.3840959395
H        2.1124104845   -0.0093694440    0.5181764396
H        1.1679574475   -1.9850376737    0.6648242503
H       -1.6838323689   -1.8360061834    0.9314323603
H       -2.4777132753    0.1425168531   -0.1285245355
H       -1.3283856297    2.2331888413    0.0382505169
C        1.1707341234    0.2804900108   -1.6021783398
H        2.0131405969    0.4848552612   -2.2836061117
13   
From optimize.out: Frame 1 / 31, Energy=    -286.5797851733
C        1.2261590909    0.2148539231   -0.0798610790
C        0.3343797648   -1.3218644302    0.4144567566
C       -0.9057858345   -1.1135407894    0.7243528146
C       -1.4168717268    0.1103826434    0.2137486808
C       -0.7222303200    1.3233345287    0.2398291798
N        0.5381088357    1.4263951105    0.3822488376
H        2.1185771811    0.0058707708    0.4946240276
H        1.1296399693   -2.0669816972    0.7364473010
H       -1.7148155331   -1.8305428002    0.9319551963
H       -2.4539405760    0.1381695054   -0.1390331077
H       -1.3197628523    2.2223302659    0.0239442380
C        1.1746740078    0.3354273835   -1.6293858712
H        2.0118679931    0.5561655857   -2.3133269744
13   
C5H5N+CH->C6H6N atoms 1-13 frame 167 charge +0.000 sz -1.000 sz^2 3.935
C        1.2330664025    0.2378722492   -0.1005330550
C        0.3222755834   -1.3795046242    0.4601952497
C       -0.9124700178   -1.1306929597    0.7387094083
C       -1.3964484591    0.1019522684    0.2141924235
C       -0.7070478041    1.3191764112    0.2349578508
N        0.5424542124    1.4409582108    0.3804018069
H        2.1247436401    0.0211103986    0.4710725228
H        1.0913239671   -2.1489225641    0.8080675927
H       -1.7457975039   -1.8250796274    0.9324780122
H       -2.4301687925    0.1338223252   -0.1495412750
H       -1.3111404070    2.2114721089    0.0096385101
C        1.1786137405    0.3903626399   -1.6565923546
H        2.0105954383    0.6274731632   -2.3430466923
13   
C5H5N+CH->C6H6N atoms 1-13 frame 168 charge +0.000 sz -1.000 sz^2 3.953
C        1.2388910960    0.2598798804   -0.1219071460
C        0.3104082155   -1.4359261612    0.5067122993
C       -0.9187800607   -1.1475294582    0.7532224717
C       -1.3758111904    0.0934058045    0.2145311769
C       -0.6917295290    1.3148529841    0.2302007326
N        0.5470174651    1.4546215097    0.3788802850
H        2.1294798238    0.0339429965    0.4465731095
H        1.0531048992   -2.2289376206    0.8807914547
H       -1.7758735151   -1.8196271435    0.9325520980
H       -2.4059583442    0.1290492920   -0.1605937737
H       -1.3020298582    2.2006116568   -0.0046389909
C        1.1820598178    0.4461152234   -1.6839605623
H        2.0092211803    0.6995410360   -2.3723631550
13   
C5H5N+CH->C6H6N atoms 1-13 frame 170 charge +0.000 sz -1.000 sz^2 3.968
C        1.2364623137    0.2740610888   -0.1484498327
C        0.3004237488   -1.4826921898    0.5587936955
C       -0.9222063499   -1.1618486088    0.7688160314
C       -1.3537019116    0.0840414383    0.2140711865
C       -0.6754937241    1.3093074471    0.2263446325
N        0.5531997489    1.4613604968    0.3798386392
H        2.1233337777    0.0284261606    0.4150638116
H        1.0159007005   -2.2937612770    0.9613528630
H       -1.7988583971   -1.8142956292    0.9292223592
H       -2.3785981294    0.1210814121   -0.1756937343
H       -1.2892840818    2.1898132783   -0.0185979267
C        1.1817366680    0.5076586117   -1.7123550412
H        2.0070856364    0.7768477712   -2.3984066841
13   
C5H5N+CH->C6H6N atoms 1-13 frame 171 charge +0.000 sz -1.000 sz^2 3.964
C        1.2263519589    0.2804301564   -0.1790014694
C        0.2925292861   -1.5188827281    0.6144380384
C       -0.9228117729   -1.1733424410    0.7849259056
C       -1.3309169562    0.0742080959    0.2128750045
C       -0.6589153878    1.3027905994    0.2234591295
N        0.5607061064    1.4613738392    0.3830977105
H        2.1071538508    0.0058351181    0.3779735973
H        0.9808423485   -2.3422265376    1.0467020515
H       -1.8144404115   -1.8092486229    0.9227992289
H       -2.3491531216    0.1103651779   -0.1941151650
H       -1.2735289809    2.1794191533   -0.0318102327
C        1.1778802917    0.5726747588   -1.7408048138
H        2.0043027883    0.8566034305   -2.4205389852
13   
C5H5N+CH->C6H6N atoms 1-13 frame 172 charge -0.000 sz -1.000 sz^2 3.949
C        1.2162417170    0.2867991530   -0.2095527652
C        0.2846349114   -1.5550728624    0.6700817604
C       -0.9234171891   -1.1848361450    0.8010356000
C       -1.3081322550    0.0643748633    0.2116788358
C       -0.6423372364    1.2962738244    0.2205736587
N        0.5682123802    1.4613871816    0.3863567454
H        2.0909741045   -0.0167556723    0.3408837969
H        0.9457843877   -2.3906912573    1.1320502876
H       -1.8300222520   -1.8042016730    0.9163761701
H       -2.3197084423    0.0996490633   -0.2125363903
H       -1.2577740557    2.1690251444   -0.0450223912
C        1.1740239585    0.6376901804   -1.7692542690
H        2.0015199712    0.9363581997   -2.4426710394
13   
C5H5N+CH->C6H6N atoms 1-13 frame 173 charge +0.000 sz -1.000 sz^2 3.924
C        1.2061618914    0.2930807244   -0.2404218755
C        0.2766064399   -1.5911930988    0.7251384954
C       -0.9241941186   -1.1962507566    0.8171684031
C       -1.2856417116    0.0547134446    0.2104474703
C       -0.6260640831    1.2893916910    0.2175160838
N        0.5753204604    1.4605590583    0.3893990402
H        2.0742695042   -0.0400265730    0.3038151246
H        0.9111301092   -2.4380247750    1.2181316066
H       -1.8454000054   -1.7992045139    0.9100615835
H       -2.2905307252    0.0891102399   -0.2308445564
H       -1.2420031454    2.1587976654   -0.0572977346
C        1.1710046515    0.7025054134   -1.7981124100
H        1.9993407327    1.0165414802   -2.4650012310
13   
C5H5N+CH->C6H6N atoms 1-13 frame 174 charge -0.000 sz -1.000 sz^2 3.894
C        1.1990948735    0.2965606588   -0.2717415032
C        0.2685277879   -1.6195089576    0.7586953684
C       -0.9291713502   -1.2037910590    0.8302276728
C       -1.2736043659    0.0499994421    0.2080742197
C       -0.6202603583    1.2765448217    0.2110027097
N        0.5742939343    1.4431102048    0.3875179368
H        2.0521579475   -0.0722504117    0.2730913715
H        0.8880285375   -2.4512334173    1.3004180995
H       -1.8533292933   -1.7970603978    0.9088361186
H       -2.2719954794    0.0838091875   -0.2434905588
H       -1.2295547784    2.1535766445   -0.0479057414
C        1.1860283297    0.7507833755   -1.8287612389
H        2.0097842151    1.0894599084   -2.4859644547
13   
C5H5N+CH->C6H6N atoms 1-13 frame 175 charge -0.000 sz -1.000 sz^2 3.848
C        1.2026150900    0.2927834828   -0.2990440214
C        0.2649201555   -1.6241732444    0.7337602418
C       -0.9463997099   -1.1996150916    0.8318382312
C       -1.2913989760    0.0575706903    0.2012550448
C       -0.6458521175    1.2510168341    0.1949967422
N        0.5562831770    1.3861820983    0.3732727552
H        2.0258763361   -0.1211284266    0.2602367008
H        0.8896863076   -2.3683189779    1.3527295832
H       -1.8407063466   -1.8056172939    0.9266357357
H       -2.2840852810    0.0919208992   -0.2396930294
H       -1.2299251036    2.1612460047    0.0170266764
C        1.2470109960    0.7480228947   -1.8560449684
H        2.0519754724    1.1301101305   -2.4969696920
13   
C5H5N+CH->C6H6N atoms 1-13 frame 176 charge -0.000 sz -1.000 sz^2 3.791
C        1.2118324485    0.2905489665   -0.3242063800
C        0.2705494672   -1.6290590512    0.7136938553
C       -0.9682713873   -1.1932429592    0.8284170623
C       -1.3128437126    0.0614123330    0.1895383785
C       -0.6802795742    1.2295268390    0.1752605269
N        0.5495545463    1.3328972674    0.3593922910
H        2.0190514440   -0.1631339830    0.2388815065
H        0.8708968292   -2.2731618004    1.3803936072
H       -1.8304116411   -1.8229539228    0.9616453128
H       -2.3006966377    0.0979157381   -0.2356246494
H       -1.2379011188    2.1667108277    0.0832715352
C        1.3114070447    0.7408792030   -1.8720483394
H        2.0971122917    1.1616605418   -2.4986147069
13   
C5H5N+CH->C6H6N atoms 1-13 frame 177 charge +0.000 sz -1.000 sz^2 3.728
C        1.2264216447    0.2899874446   -0.3488970342
C        0.2802526851   -1.6315721198    0.6961909216
C       -0.9909318587   -1.1847120184    0.8200886019
C       -1.3383649501    0.0616742649    0.1745585808
C       -0.7177614248    1.2145452485    0.1539601179
N        0.5510956444    1.2837367133    0.3460423640
H        2.0262198775   -0.1974858731    0.2086013015
H        0.8474785871   -2.1850362218    1.3946046773
H       -1.8275312281   -1.8454565550    1.0106686132
H       -2.3284821064    0.1037336180   -0.2311427131
H       -1.2519837866    2.1704725715    0.1481380644