13   
From optimize.out: Frame 1 / 2, Energy=    -286.8443435620
C        0.0080890000    0.0012360000   -0.0000000000
C       -0.1232250000    0.0026740000   -0.0000000000
C       -0.2281980000    0.0430050000   -0.0000000000
C       -0.1192670000   -0.1675740000    0.0000000000
C        0.0853430000   -0.0067890000   -0.0000000000
N       -0.3705720000    0.0068210000   -0.0000000000
H        0.1416230000   -0.0000040000   -0.0000000000
H        0.1469550000    0.0002600000   -0.0000000000
H        0.1806880000   -0.0046830000   -0.0000000000
H        0.1493220000    0.0784980000    0.0000000000
H        0.1458680000   -0.0000230000   -0.0000000000
C       -0.1817780000    1.0428410000    0.0000000000
H        0.1651530000    0.0037390000    0.0000000000
