13   
From optimize.out: Frame 1 / 28, Energy=    -286.6338440059
C        0.0106350000   -0.0606280000   -0.0000000000
C       -0.1806460000    0.1004910000   -0.0000000000
C       -0.1040840000    0.1983080000   -0.0000000000
C       -0.1396890000    0.0203430000   -0.0000000000
C       -0.0572970000   -0.0882470000   -0.0000000000
N       -0.3140200000    0.8245680000   -0.0000000000
H        0.1929730000    0.0036380000   -0.0000000000
H        0.1434430000    0.0005950000   -0.0000000000
H        0.1788130000   -0.0095670000   -0.0000000000
H        0.1590750000    0.0042710000    0.0000000000
H        0.1465780000    0.0020940000   -0.0000000000
C       -0.1700860000    0.0009580000    0.0000000000
H        0.1343040000    0.0031750000    0.0000000000
13   
From optimize.out: Frame 2 / 28, Energy=    -286.6764359092
C       -0.0042810000   -0.0577580000   -0.0000000000
C       -0.1755100000    0.0899550000   -0.0000000000
C       -0.1057600000    0.2347780000   -0.0000000000
C       -0.1335990000    0.0249010000   -0.0000000000
C       -0.0627400000   -0.0998960000   -0.0000000000
N       -0.3112590000    0.8075370000   -0.0000000000
H        0.1878830000    0.0032190000   -0.0000000000
H        0.1456080000   -0.0017490000   -0.0000000000
H        0.1790690000   -0.0118170000   -0.0000000000
H        0.1582000000    0.0040400000    0.0000000000
H        0.1501220000    0.0029050000   -0.0000000000
C       -0.1654530000    0.0013610000    0.0000000000
H        0.1377210000    0.0025250000    0.0000000000
13   
From optimize.out: Frame 3 / 28, Energy=    -286.7110581098
C       -0.0168390000   -0.0523690000   -0.0000000000
C       -0.1718300000    0.0799530000   -0.0000000000
C       -0.1061450000    0.2817620000   -0.0000000000
C       -0.1335880000    0.0288450000   -0.0000000000
C       -0.0623360000   -0.1124370000   -0.0000000000
N       -0.3091280000    0.7763310000   -0.0000000000
H        0.1808520000    0.0026060000   -0.0000000000
H        0.1475070000   -0.0030710000   -0.0000000000
H        0.1784120000   -0.0143490000   -0.0000000000
H        0.1566650000    0.0041140000    0.0000000000
H        0.1516940000    0.0035910000   -0.0000000000
C       -0.1551330000    0.0030400000    0.0000000000
H        0.1398700000    0.0019830000    0.0000000000
13   
From optimize.out: Frame 4 / 28, Energy=    -286.7381895624
C       -0.0276550000   -0.0457480000   -0.0000000000
C       -0.1686410000    0.0690640000   -0.0000000000
C       -0.1066830000    0.3328730000   -0.0000000000
C       -0.1392680000    0.0311740000   -0.0000000000
C       -0.0565400000   -0.1238330000   -0.0000000000
N       -0.3074660000    0.7388370000   -0.0000000000
H        0.1735080000    0.0018660000   -0.0000000000
H        0.1491560000   -0.0034330000   -0.0000000000
H        0.1771260000   -0.0168300000   -0.0000000000
H        0.1549590000    0.0046480000    0.0000000000
H        0.1521710000    0.0040930000   -0.0000000000
C       -0.1424530000    0.0058300000    0.0000000000
H        0.1417880000    0.0014590000    0.0000000000
13   
From optimize.out: Frame 5 / 28, Energy=    -286.7589836152
C       -0.0364180000   -0.0387440000   -0.0000000000
C       -0.1659930000    0.0569550000   -0.0000000000
C       -0.1073500000    0.3849100000   -0.0000000000
C       -0.1486100000    0.0313460000   -0.0000000000
C       -0.0469190000   -0.1336710000   -0.0000000000
N       -0.3062300000    0.6994970000   -0.0000000000
H        0.1666390000    0.0010980000   -0.0000000000
H        0.1505440000   -0.0031290000   -0.0000000000
H        0.1751550000   -0.0190400000   -0.0000000000
H        0.1533780000    0.0056410000    0.0000000000
H        0.1520250000    0.0044590000   -0.0000000000
C       -0.1295930000    0.0097520000    0.0000000000
H        0.1433700000    0.0009240000    0.0000000000
13   
From optimize.out: Frame 6 / 28, Energy=    -286.7746303565
C       -0.0424980000   -0.0317500000   -0.0000000000
C       -0.1642270000    0.0436540000   -0.0000000000
C       -0.1075580000    0.4368580000   -0.0000000000
C       -0.1592240000    0.0291140000   -0.0000000000
C       -0.0354780000   -0.1419150000   -0.0000000000
N       -0.3059300000    0.6600340000   -0.0000000000
H        0.1608080000    0.0004120000   -0.0000000000
H        0.1515830000   -0.0024180000   -0.0000000000
H        0.1726020000   -0.0209230000   -0.0000000000
H        0.1520370000    0.0071050000    0.0000000000
H        0.1516830000    0.0047490000   -0.0000000000
C       -0.1183350000    0.0147280000    0.0000000000
H        0.1445390000    0.0003520000    0.0000000000
13   
From optimize.out: Frame 7 / 28, Energy=    -286.7863103670
C       -0.0456460000   -0.0244740000   -0.0000000000
C       -0.1635760000    0.0291040000   -0.0000000000
C       -0.1066610000    0.4907550000   -0.0000000000
C       -0.1696600000    0.0243820000   -0.0000000000
C       -0.0235210000   -0.1484490000   -0.0000000000
N       -0.3070810000    0.6184560000   -0.0000000000
H        0.1562460000   -0.0001100000   -0.0000000000
H        0.1522400000   -0.0014660000   -0.0000000000
H        0.1696450000   -0.0225860000   -0.0000000000
H        0.1509860000    0.0090440000    0.0000000000
H        0.1512700000    0.0050150000   -0.0000000000
C       -0.1095290000    0.0206210000    0.0000000000
H        0.1452880000   -0.0002930000    0.0000000000
13   
From optimize.out: Frame 8 / 28, Energy=    -286.7951204704
C       -0.0462290000   -0.0161310000   -0.0000000000
C       -0.1639690000    0.0131200000   -0.0000000000
C       -0.1042390000    0.5501740000   -0.0000000000
C       -0.1799560000    0.0169410000   -0.0000000000
C       -0.0110820000   -0.1522560000   -0.0000000000
N       -0.3100420000    0.5702000000   -0.0000000000
H        0.1529220000   -0.0004290000   -0.0000000000
H        0.1525320000   -0.0003470000   -0.0000000000
H        0.1664300000   -0.0241770000   -0.0000000000
H        0.1502410000    0.0114680000    0.0000000000
H        0.1507300000    0.0052740000   -0.0000000000
C       -0.1030130000    0.0271910000    0.0000000000
H        0.1456740000   -0.0010270000    0.0000000000
13   
From optimize.out: Frame 9 / 28, Energy=    -286.8020878170
C       -0.0451970000   -0.0056340000   -0.0000000000
C       -0.1650410000   -0.0045120000   -0.0000000000
C       -0.1001730000    0.6185150000   -0.0000000000
C       -0.1912480000    0.0063880000   -0.0000000000
C        0.0028860000   -0.1506260000   -0.0000000000
N       -0.3148680000    0.5092030000   -0.0000000000
H        0.1506300000   -0.0005250000   -0.0000000000
H        0.1525270000    0.0009110000   -0.0000000000
H        0.1629310000   -0.0257810000   -0.0000000000
H        0.1497570000    0.0143670000    0.0000000000
H        0.1499470000    0.0054770000   -0.0000000000
C       -0.0979680000    0.0340330000    0.0000000000
H        0.1458170000   -0.0018170000    0.0000000000
13   
From optimize.out: Frame 10 / 28, Energy=    -286.8081450679
C       -0.0435640000    0.0077970000   -0.0000000000
C       -0.1663840000   -0.0235200000   -0.0000000000
C       -0.0947240000    0.6950720000   -0.0000000000
C       -0.2047110000   -0.0073140000   -0.0000000000
C        0.0195510000   -0.1386940000   -0.0000000000
N       -0.3210670000    0.4308610000   -0.0000000000
H        0.1491620000   -0.0003650000   -0.0000000000
H        0.1523350000    0.0022690000   -0.0000000000
H        0.1589080000   -0.0272510000   -0.0000000000
H        0.1493620000    0.0175860000    0.0000000000
H        0.1488510000    0.0054810000   -0.0000000000
C       -0.0936430000    0.0406320000    0.0000000000
H        0.1459230000   -0.0025540000    0.0000000000
13   
From optimize.out: Frame 11 / 28, Energy=    -286.8139213023
C       -0.0417440000    0.0232200000   -0.0000000000
C       -0.1676850000   -0.0420810000   -0.0000000000
C       -0.0886840000    0.7695540000   -0.0000000000
C       -0.2198600000   -0.0225580000   -0.0000000000
C        0.0382970000   -0.1129750000   -0.0000000000
N       -0.3273050000    0.3399590000   -0.0000000000
H        0.1483750000    0.0001090000   -0.0000000000
H        0.1520240000    0.0035580000   -0.0000000000
H        0.1542230000   -0.0281030000   -0.0000000000
H        0.1487080000    0.0205910000    0.0000000000
H        0.1475130000    0.0051230000   -0.0000000000
C       -0.0900980000    0.0466810000    0.0000000000
H        0.1462360000   -0.0030780000    0.0000000000
13   
From optimize.out: Frame 12 / 28, Energy=    -286.8195054972
C       -0.0393820000    0.0379320000   -0.0000000000
C       -0.1687340000   -0.0575230000   -0.0000000000
C       -0.0829420000    0.8281330000   -0.0000000000
C       -0.2342330000   -0.0364730000   -0.0000000000
C        0.0560830000   -0.0785430000   -0.0000000000
N       -0.3323080000    0.2527070000   -0.0000000000
H        0.1481280000    0.0008740000   -0.0000000000
H        0.1515490000    0.0045300000   -0.0000000000
H        0.1493200000   -0.0278800000   -0.0000000000
H        0.1475380000    0.0226920000   -0.0000000000
H        0.1462380000    0.0044850000   -0.0000000000
C       -0.0880880000    0.0523690000    0.0000000000
H        0.1468310000   -0.0033040000    0.0000000000
13   
From optimize.out: Frame 13 / 28, Energy=    -286.8246806829
C       -0.0359400000    0.0498400000   -0.0000000000
C       -0.1694040000   -0.0687400000   -0.0000000000
C       -0.0779050000    0.8660080000   -0.0000000000
C       -0.2454390000   -0.0471730000   -0.0000000000
C        0.0698910000   -0.0455570000   -0.0000000000
N       -0.3361260000    0.1829900000   -0.0000000000
H        0.1482540000    0.0017790000   -0.0000000000
H        0.1508570000    0.0050670000   -0.0000000000
H        0.1450320000   -0.0266220000   -0.0000000000
H        0.1460220000    0.0236440000   -0.0000000000
H        0.1453920000    0.0038330000   -0.0000000000
C       -0.0882020000    0.0582190000    0.0000000000
H        0.1475670000   -0.0032880000    0.0000000000
13   
From optimize.out: Frame 14 / 28, Energy=    -286.8292075862
C       -0.0317810000    0.0588770000   -0.0000000000
C       -0.1694830000   -0.0765850000   -0.0000000000
C       -0.0738780000    0.8875820000   -0.0000000000
C       -0.2527900000   -0.0545530000   -0.0000000000
C        0.0792740000   -0.0187130000   -0.0000000000
N       -0.3389080000    0.1321100000   -0.0000000000
H        0.1485440000    0.0026450000   -0.0000000000
H        0.1500010000    0.0052360000   -0.0000000000
H        0.1418350000   -0.0248210000   -0.0000000000
H        0.1444990000    0.0236960000   -0.0000000000
H        0.1448540000    0.0032800000   -0.0000000000
C       -0.0904180000    0.0643450000    0.0000000000
H        0.1482510000   -0.0031000000    0.0000000000
13   
From optimize.out: Frame 15 / 28, Energy=    -286.8329166414
C       -0.0275420000    0.0658860000   -0.0000000000
C       -0.1687530000   -0.0822600000   -0.0000000000
C       -0.0710600000    0.8982290000   -0.0000000000
C       -0.2566710000   -0.0593680000   -0.0000000000
C        0.0849650000    0.0017940000   -0.0000000000
N       -0.3408960000    0.0962630000   -0.0000000000
H        0.1489420000    0.0033480000   -0.0000000000
H        0.1490970000    0.0051870000   -0.0000000000
H        0.1396750000   -0.0229850000   -0.0000000000
H        0.1432250000    0.0232170000   -0.0000000000
H        0.1444950000    0.0028330000   -0.0000000000
C       -0.0942380000    0.0706250000    0.0000000000
H        0.1487600000   -0.0027700000    0.0000000000
13   
From optimize.out: Frame 16 / 28, Energy=    -286.8356786418
C       -0.0236860000    0.0719280000   -0.0000000000
C       -0.1671820000   -0.0867520000   -0.0000000000
C       -0.0692930000    0.9020110000   -0.0000000000
C       -0.2580350000   -0.0625360000   -0.0000000000
C        0.0879790000    0.0176460000   -0.0000000000
N       -0.3420920000    0.0709230000   -0.0000000000
H        0.1493880000    0.0038060000   -0.0000000000
H        0.1482460000    0.0050590000   -0.0000000000
H        0.1383330000   -0.0215410000   -0.0000000000
H        0.1423040000    0.0224980000   -0.0000000000
H        0.1441230000    0.0024630000   -0.0000000000
C       -0.0991280000    0.0767790000    0.0000000000
H        0.1490420000   -0.0022840000    0.0000000000
13   
From optimize.out: Frame 17 / 28, Energy=    -286.8373944974
C       -0.0203420000    0.0779650000   -0.0000000000
C       -0.1649380000   -0.0907120000   -0.0000000000
C       -0.0681890000    0.9011860000   -0.0000000000
C       -0.2577810000   -0.0647580000   -0.0000000000
C        0.0890350000    0.0304350000   -0.0000000000
N       -0.3428920000    0.0530210000   -0.0000000000
H        0.1499510000    0.0039560000   -0.0000000000
H        0.1475290000    0.0049510000   -0.0000000000
H        0.1375420000   -0.0208280000   -0.0000000000
H        0.1417900000    0.0217740000   -0.0000000000
H        0.1437600000    0.0021460000   -0.0000000000
C       -0.1045230000    0.0824850000    0.0000000000
H        0.1490580000   -0.0016200000    0.0000000000
13   
From optimize.out: Frame 18 / 28, Energy=    -286.8380145638
C       -0.0186110000    0.0838020000   -0.0000000000
C       -0.1631240000   -0.0937830000   -0.0000000000
C       -0.0674200000    0.8982930000   -0.0000000000
C       -0.2573590000   -0.0661490000   -0.0000000000
C        0.0892590000    0.0392070000   -0.0000000000
N       -0.3427920000    0.0430560000   -0.0000000000
H        0.1504190000    0.0037450000   -0.0000000000
H        0.1471360000    0.0049690000   -0.0000000000
H        0.1372340000   -0.0211310000   -0.0000000000
H        0.1417570000    0.0214360000   -0.0000000000
H        0.1431050000    0.0018870000   -0.0000000000
C       -0.1084050000    0.0856310000    0.0000000000
H        0.1488000000   -0.0009630000    0.0000000000
13   
From optimize.out: Frame 19 / 28, Energy=    -286.8381686588
C       -0.0184860000    0.0871870000   -0.0000000000
C       -0.1626490000   -0.0948320000   -0.0000000000
C       -0.0670120000    0.8955460000   -0.0000000000
C       -0.2574840000   -0.0664870000   -0.0000000000
C        0.0891360000    0.0419840000   -0.0000000000
N       -0.3432340000    0.0415400000   -0.0000000000
H        0.1508030000    0.0034940000   -0.0000000000
H        0.1471140000    0.0050630000   -0.0000000000
H        0.1370900000   -0.0216160000   -0.0000000000
H        0.1420680000    0.0216460000   -0.0000000000
H        0.1430270000    0.0017410000   -0.0000000000
C       -0.1089200000    0.0854700000    0.0000000000
H        0.1485480000   -0.0007380000    0.0000000000
13   
From optimize.out: Frame 20 / 28, Energy=    -286.8382541295
C       -0.0190720000    0.0918610000   -0.0000000000
C       -0.1630520000   -0.0960140000   -0.0000000000
C       -0.0664460000    0.8929640000   -0.0000000000
C       -0.2584240000   -0.0667080000   -0.0000000000
C        0.0897280000    0.0451560000   -0.0000000000
N       -0.3419880000    0.0398740000   -0.0000000000
H        0.1508470000    0.0031100000   -0.0000000000
H        0.1470570000    0.0051700000   -0.0000000000
H        0.1371210000   -0.0220020000   -0.0000000000
H        0.1422880000    0.0220470000   -0.0000000000
H        0.1422810000    0.0015350000   -0.0000000000
C       -0.1086890000    0.0835650000    0.0000000000
H        0.1483490000   -0.0005590000    0.0000000000
13   
From optimize.out: Frame 21 / 28, Energy=    -286.8382822900
C       -0.0189540000    0.0939760000   -0.0000000000
C       -0.1632800000   -0.0961960000   -0.0000000000
C       -0.0663070000    0.8900090000   -0.0000000000
C       -0.2585750000   -0.0665090000   -0.0000000000
C        0.0891750000    0.0458430000   -0.0000000000
N       -0.3432970000    0.0407680000   -0.0000000000
H        0.1512550000    0.0029960000   -0.0000000000
H        0.1471100000    0.0052060000   -0.0000000000
H        0.1369480000   -0.0218430000   -0.0000000000
H        0.1425520000    0.0224120000   -0.0000000000
H        0.1429820000    0.0014280000   -0.0000000000
C       -0.1079180000    0.0825200000    0.0000000000
H        0.1483090000   -0.0006080000    0.0000000000
13   
From optimize.out: Frame 22 / 28, Energy=    -286.8383004279
C       -0.0189970000    0.0947550000   -0.0000000000
C       -0.1637160000   -0.0963240000   -0.0000000000
C       -0.0662280000    0.8897230000   -0.0000000000
C       -0.2586990000   -0.0664240000   -0.0000000000
C        0.0892030000    0.0464330000   -0.0000000000
N       -0.3428350000    0.0402160000   -0.0000000000
H        0.1511680000    0.0029660000   -0.0000000000
H        0.1470980000    0.0051830000   -0.0000000000
H        0.1369540000   -0.0214910000   -0.0000000000
H        0.1425160000    0.0224730000   -0.0000000000
H        0.1428940000    0.0013960000   -0.0000000000
C       -0.1077180000    0.0817330000    0.0000000000
H        0.1483600000   -0.0006380000    0.0000000000
13   
From optimize.out: Frame 23 / 28, Energy=    -286.8383156150
C       -0.0189690000    0.0965650000   -0.0000000000
C       -0.1640750000   -0.0966630000   -0.0000000000
C       -0.0661650000    0.8883980000   -0.0000000000
C       -0.2587500000   -0.0662530000   -0.0000000000
C        0.0891060000    0.0475650000   -0.0000000000
N       -0.3424600000    0.0392180000   -0.0000000000
H        0.1511710000    0.0029350000   -0.0000000000
H        0.1471100000    0.0051640000   -0.0000000000
H        0.1368300000   -0.0207710000   -0.0000000000
H        0.1425320000    0.0226040000   -0.0000000000
H        0.1429110000    0.0013420000   -0.0000000000
C       -0.1076370000    0.0805720000    0.0000000000
H        0.1483980000   -0.0006780000    0.0000000000
13   
From optimize.out: Frame 24 / 28, Energy=    -286.8383224635
C       -0.0189050000    0.0977710000   -0.0000000000
C       -0.1642510000   -0.0968240000   -0.0000000000
C       -0.0660570000    0.8875790000   -0.0000000000
C       -0.2586240000   -0.0661560000   -0.0000000000
C        0.0888900000    0.0484850000   -0.0000000000
N       -0.3423300000    0.0385370000   -0.0000000000
H        0.1512310000    0.0028660000   -0.0000000000
H        0.1471320000    0.0051640000   -0.0000000000
H        0.1367020000   -0.0202890000   -0.0000000000
H        0.1426180000    0.0226710000   -0.0000000000
H        0.1429320000    0.0013040000   -0.0000000000
C       -0.1076820000    0.0795720000    0.0000000000
H        0.1483450000   -0.0006810000    0.0000000000
13   
From optimize.out: Frame 25 / 28, Energy=    -286.8383304683
C       -0.0188750000    0.0991640000   -0.0000000000
C       -0.1641140000   -0.0969340000   -0.0000000000
C       -0.0660720000    0.8865050000   -0.0000000000
C       -0.2583710000   -0.0659550000   -0.0000000000
C        0.0886930000    0.0490870000   -0.0000000000
N       -0.3422710000    0.0379870000   -0.0000000000
H        0.1513590000    0.0028240000   -0.0000000000
H        0.1472130000    0.0051940000   -0.0000000000
H        0.1364350000   -0.0195920000   -0.0000000000
H        0.1427510000    0.0227660000   -0.0000000000
H        0.1430040000    0.0012870000   -0.0000000000
C       -0.1079620000    0.0783560000    0.0000000000
H        0.1482120000   -0.0006880000    0.0000000000
13   
From optimize.out: Frame 26 / 28, Energy=    -286.8383348570
C       -0.0189070000    0.0993580000   -0.0000000000
C       -0.1639810000   -0.0967860000   -0.0000000000
C       -0.0660400000    0.8866150000   -0.0000000000
C       -0.2581700000   -0.0658510000   -0.0000000000
C        0.0885540000    0.0491050000   -0.0000000000
N       -0.3422630000    0.0379830000   -0.0000000000
H        0.1514140000    0.0027680000   -0.0000000000
H        0.1472340000    0.0052270000   -0.0000000000
H        0.1363230000   -0.0193260000   -0.0000000000
H        0.1428530000    0.0227860000   -0.0000000000
H        0.1430110000    0.0012870000   -0.0000000000
C       -0.1081160000    0.0775230000    0.0000000000
H        0.1480890000   -0.0006870000    0.0000000000
13   
From optimize.out: Frame 27 / 28, Energy=    -286.8383371760
C       -0.0189920000    0.0987440000   -0.0000000000
C       -0.1638600000   -0.0964400000   -0.0000000000
C       -0.0661600000    0.8872320000   -0.0000000000
C       -0.2580780000   -0.0657490000   -0.0000000000
C        0.0886510000    0.0484280000   -0.0000000000
N       -0.3422870000    0.0383560000   -0.0000000000
H        0.1514300000    0.0027770000   -0.0000000000
H        0.1472830000    0.0052540000   -0.0000000000
H        0.1362240000   -0.0191990000   -0.0000000000
H        0.1428710000    0.0227850000   -0.0000000000
H        0.1430430000    0.0013090000   -0.0000000000
C       -0.1081500000    0.0772050000    0.0000000000
H        0.1480260000   -0.0007030000    0.0000000000
