13   
From optimize.out: Frame 28 / 29, Energy=    -286.8383370206
C        1.2440743142    0.2527275317    0.2503193254
C        0.5757887268   -1.1281582300   -0.2004073058
C       -0.7355507221   -0.8966105992   -0.7898570614
C       -1.0558106964    0.2139392876    0.2086124757
C       -0.4448641129    1.4714079870   -0.3979024983
N        0.8381818064    1.4624731756   -0.4190815764
H        2.2826029050    0.1720494619    0.5547101703
H        1.2235943286   -1.9933004274   -0.3012312881
H       -1.1404786482   -1.1003669026   -1.7784177914
H       -2.0651052431    0.2854326388    0.6198920614
H       -1.0204750992    2.2493841864   -0.8970717314
C        0.1461730167   -0.3443211364    1.0534239816
H        0.1518694241   -0.6446569734    2.0970112387
13   
From optimize.out: Frame 27 / 29, Energy=    -286.8383341292
C        1.2443441635    0.2530338521    0.2502018682
C        0.5747754135   -1.1288840442   -0.2004259133
C       -0.7355233807   -0.8971110965   -0.7901896588
C       -1.0556000915    0.2139438966    0.2082527686
C       -0.4446880862    1.4721042777   -0.3972395505
N        0.8384921483    1.4630086153   -0.4181603523
H        2.2827005142    0.1718050157    0.5550715553
H        1.2243212784   -1.9925583192   -0.3017907886
H       -1.1416671073   -1.1018849959   -1.7780566249
H       -2.0648081653    0.2851753097    0.6198463483
H       -1.0200858059    2.2495308638   -0.8973771858
C        0.1464091162   -0.3434156308    1.0532539408
H        0.1513300027   -0.6447477442    2.0966135930
13   
From optimize.out: Frame 26 / 29, Energy=    -286.8383275800
C        1.2449383817    0.2547509655    0.2518388956
C        0.5745776297   -1.1285929390   -0.2010350207
C       -0.7359753494   -0.8966457101   -0.7899009058
C       -1.0547642170    0.2152915692    0.2080906673
C       -0.4444172973    1.4727948383   -0.3984624772
N        0.8390572887    1.4641826221   -0.4174023058
H        2.2831774632    0.1738564914    0.5571160758
H        1.2254618578   -1.9912848287   -0.3024551771
H       -1.1455769988   -1.1064062386   -1.7750743105
H       -2.0638132762    0.2871463165    0.6202129300
H       -1.0192841607    2.2498540430   -0.8997838584
C        0.1466742346   -0.3433948414    1.0527680609
H        0.1499444436   -0.6515522882    2.0940874259
13   
From optimize.out: Frame 25 / 29, Energy=    -286.8383147938
C        1.2454303876    0.2563047704    0.2520320854
C        0.5745942409   -1.1268417887   -0.2020523114
C       -0.7346841644   -0.8940967419   -0.7921276048
C       -1.0537344318    0.2155809696    0.2075443616
C       -0.4437674164    1.4733764939   -0.3990978333
N        0.8399961546    1.4658852734   -0.4161343638
H        2.2832939682    0.1740116172    0.5585353071
H        1.2244160834   -1.9905818388   -0.3004754459
H       -1.1500095025   -1.1123343866   -1.7727810979
H       -2.0629809221    0.2873949991    0.6194872972
H       -1.0192785865    2.2499781040   -0.8998676158
C        0.1467730631   -0.3422545187    1.0526884227
H        0.1499511260   -0.6564229527    2.0922487990
13   
From optimize.out: Frame 24 / 29, Energy=    -286.8382942351
C        1.2458526116    0.2563780800    0.2531433652
C        0.5768467230   -1.1240968654   -0.2046133283
C       -0.7324682470   -0.8901329968   -0.7941649781
C       -1.0534290090    0.2168801534    0.2066485866
C       -0.4427045086    1.4738609051   -0.3998770636
N        0.8406254235    1.4673700240   -0.4131365486
H        2.2837822313    0.1765489912    0.5602113763
H        1.2232832494   -1.9905805243   -0.3016567037
H       -1.1560467530   -1.1231120232   -1.7674095442
H       -2.0632111267    0.2893401647    0.6170874660
H       -1.0181348855    2.2514257752   -0.8992802903
C        0.1463655094   -0.3433368128    1.0522279063
H        0.1492387817   -0.6605448711    2.0908197563
13   
From optimize.out: Frame 23 / 29, Energy=    -286.8382730619
C        1.2456491151    0.2567365520    0.2531848424
C        0.5793823597   -1.1213771968   -0.2061366221
C       -0.7304421314   -0.8867387712   -0.7964070563
C       -1.0538996073    0.2168477793    0.2057726843
C       -0.4413561433    1.4740868147   -0.3991624679
N        0.8417896539    1.4675994961   -0.4136815751
H        2.2829680064    0.1751804988    0.5619939355
H        1.2236975415   -1.9894898732   -0.3028740697
H       -1.1607968860   -1.1308101737   -1.7636370489
H       -2.0642044648    0.2890004722    0.6146588459
H       -1.0170622339    2.2528960747   -0.8963173277
C        0.1454508268   -0.3441702690    1.0517763575
H        0.1488239632   -0.6597614039    2.0908295021
13   
From optimize.out: Frame 22 / 29, Energy=    -286.8382388843
C        1.2453347135    0.2542577737    0.2525123099
C        0.5823208842   -1.1200886311   -0.2085695036
C       -0.7278774755   -0.8850940332   -0.7980705927
C       -1.0552110137    0.2172133402    0.2036759785
C       -0.4398398330    1.4756056541   -0.3962290935
N        0.8424444785    1.4677659969   -0.4113616114
H        2.2823856187    0.1748239206    0.5627795154
H        1.2251579502   -1.9889691475   -0.3084008973
H       -1.1654629153   -1.1428268378   -1.7582097659
H       -2.0664069923    0.2883923700    0.6099440365
H       -1.0141877746    2.2572942458   -0.8909268575
C        0.1441448554   -0.3453536783    1.0507159852
H        0.1471975038   -0.6530209733    2.0921404963
13   
From optimize.out: Frame 21 / 29, Energy=    -286.8382014486
C        1.2449532582    0.2529275792    0.2519792480
C        0.5843527816   -1.1196865100   -0.2097007739
C       -0.7268386298   -0.8855574201   -0.7985776338
C       -1.0563063313    0.2172507307    0.2018067646
C       -0.4389159696    1.4773137660   -0.3933098447
N        0.8434757194    1.4677164209   -0.4114022467
H        2.2813368315    0.1723859864    0.5641364132
H        1.2282421127   -1.9873546762   -0.3136391617
H       -1.1689291770   -1.1515646727   -1.7542176384
H       -2.0681236037    0.2870672925    0.6064775453
H       -1.0116156671    2.2616883788   -0.8860462374
C        0.1429289225   -0.3457073498    1.0495395105
H        0.1454397527   -0.6464795258    2.0929540549
13   
From optimize.out: Frame 20 / 29, Energy=    -286.8381146572
C        1.2460490942    0.2498737085    0.2502638507
C        0.5864999822   -1.1182880150   -0.2116931120
C       -0.7267202232   -0.8869301689   -0.7971914884
C       -1.0567156582    0.2186709490    0.2008826227
C       -0.4405243753    1.4820339385   -0.3914632894
N        0.8461107386    1.4704898271   -0.4077608954
H        2.2787917716    0.1648347286    0.5732880062
H        1.2310062946   -1.9847300750   -0.3231737465
H       -1.1732993911   -1.1597045527   -1.7487260148
H       -2.0697537807    0.2850846008    0.6032512347
H       -1.0122778701    2.2646662357   -0.8887733232
C        0.1413694216   -0.3461402024    1.0479286150
H        0.1494639959   -0.6398609743    2.0931675404
13   
From optimize.out: Frame 19 / 29, Energy=    -286.8379872775
C        1.2438036174    0.2493122061    0.2466938062
C        0.5881851910   -1.1163667899   -0.2153579600
C       -0.7313714736   -0.8888882481   -0.7982490040
C       -1.0536501308    0.2181283014    0.2042622273
C       -0.4359031848    1.4804882759   -0.3908489314
N        0.8451401121    1.4687311346   -0.4078831714
H        2.2698975467    0.1750460951    0.5931478572
H        1.2313289287   -1.9836048787   -0.3295395207
H       -1.1829672656   -1.1553811842   -1.7494216864
H       -2.0674479774    0.2902116564    0.6042928028
H       -1.0080833052    2.2556635365   -0.8981451653
C        0.1387309012   -0.3517845823    1.0476106593
H        0.1623370404   -0.6415555228    2.0934380864
13   
From optimize.out: Frame 18 / 29, Energy=    -286.8376206169
C        1.2459171857    0.2494977412    0.2448134256
C        0.5901341200   -1.1091103484   -0.2170338796
C       -0.7337704891   -0.8801280541   -0.7966285293
C       -1.0512977752    0.2193088414    0.2149424674
C       -0.4380284007    1.4762783977   -0.4009168020
N        0.8458688009    1.4701578807   -0.4070550457
H        2.2637990560    0.1740991471    0.6150174872
H        1.2250311720   -1.9829221338   -0.3277481378
H       -1.1844649698   -1.1285325637   -1.7534143548
H       -2.0650263066    0.2962251724    0.6144990443
H       -1.0185345106    2.2314729905   -0.9285802409
C        0.1381633096   -0.3576251772    1.0502502031
H        0.1822088079   -0.6587218938    2.0918543626
13   
From optimize.out: Frame 17 / 29, Energy=    -286.8361820835
C        1.2479176196    0.2524527923    0.2442072465
C        0.5924415312   -1.0974652010   -0.2165021472
C       -0.7348813851   -0.8546287645   -0.7978552972
C       -1.0489352801    0.2175374744    0.2390745556
C       -0.4390053034    1.4540667433   -0.4234579707
N        0.8414591270    1.4654401964   -0.4125404244
H        2.2589861133    0.1871033169    0.6352542259
H        1.2073178382   -1.9873460214   -0.3086386607
H       -1.1757364734   -1.0578278505   -1.7702463472
H       -2.0598272769    0.3137635858    0.6410983367
H       -1.0373468906    2.1736224703   -0.9793324380
C        0.1391025063   -0.3683709282    1.0589369140
H        0.2085078740   -0.6983478139    2.0900020067
13   
From optimize.out: Frame 16 / 29, Energy=    -286.8336497256
C        1.2508661159    0.2553031585    0.2460928783
C        0.5950977364   -1.0864055160   -0.2133962719
C       -0.7323203239   -0.8236084977   -0.7997799754
C       -1.0494412688    0.2145774798    0.2633710651
C       -0.4428537504    1.4267214858   -0.4469600237
N        0.8363328677    1.4589322223   -0.4208054129
H        2.2606484711    0.1967194331    0.6421456946
H        1.1868508696   -1.9932720920   -0.2852807789
H       -1.1577841330   -0.9822765277   -1.7874407100
H       -2.0563220870    0.3293375289    0.6693529680
H       -1.0578535402    2.1147499787   -1.0236038676
C        0.1414433128   -0.3755517319    1.0682690178
H        0.2253357297   -0.7352269217    2.0880354167
13   
From optimize.out: Frame 15 / 29, Energy=    -286.8301676394
C        1.2540059829    0.2574914229    0.2493333114
C        0.5979616881   -1.0763866384   -0.2089966521
C       -0.7278614835   -0.7897892742   -0.8027825654
C       -1.0522526721    0.2100340730    0.2870868395
C       -0.4476491103    1.3943208619   -0.4687792331
N        0.8299922704    1.4496733591   -0.4311316805
H        2.2670130821    0.2075443820    0.6386885065
H        1.1637006809   -2.0005610944   -0.2607915694
H       -1.1337517073   -0.9056954131   -1.8045592261
H       -2.0545795159    0.3409824778    0.6977265056
H       -1.0750816078    2.0575779169   -1.0600384656
C        0.1447314488   -0.3790594690    1.0775715458
H        0.2337709435   -0.7661326047    2.0866726832
13   
From optimize.out: Frame 14 / 29, Energy=    -286.8259276455
C        1.2585601453    0.2585206510    0.2542433449
C        0.6012700174   -1.0668067648   -0.2038108720
C       -0.7226359243   -0.7543658735   -0.8062688340
C       -1.0576557228    0.2044014171    0.3098483420
C       -0.4542010735    1.3579990954   -0.4884349159
N        0.8240243077    1.4384744433   -0.4420478360
H        2.2780650191    0.2181057953    0.6274244737
H        1.1385821162   -2.0081215303   -0.2377536152
H       -1.1058349757   -0.8306004707   -1.8204907678
H       -2.0555331838    0.3467548046    0.7256434809
H       -1.0884591691    2.0039561082   -1.0905215254
C        0.1490051229   -0.3781232646    1.0864332453
H        0.2348133205   -0.7901944110    2.0857354794
13   
From optimize.out: Frame 13 / 29, Energy=    -286.8211256967
C        1.2649000613    0.2581186182    0.2607470260
C        0.6046878262   -1.0577112541   -0.1984525597
C       -0.7180092601   -0.7192464633   -0.8106468925
C       -1.0653192950    0.1976078851    0.3312085624
C       -0.4620491388    1.3185998399   -0.5052564147
N        0.8196117912    1.4252439453   -0.4524804926
H        2.2928599368    0.2303110316    0.6106438141
H        1.1120455390   -2.0155363554   -0.2170440539
H       -1.0767082410   -0.7585679522   -1.8355309424
H       -2.0592625818    0.3465815059    0.7524351958
H       -1.0971046710    1.9546504926   -1.1157167432
C        0.1540502433   -0.3726758068    1.0948989625
H        0.2302977898   -0.8073754868    2.0851945383
13   
From optimize.out: Frame 12 / 29, Energy=    -286.8160039523
C        1.2733965386    0.2566863898    0.2690343810
C        0.6080063287   -1.0487617175   -0.1935743501
C       -0.7145449301   -0.6866038497   -0.8153359371
C       -1.0744068642    0.1901724682    0.3506011888
C       -0.4715576847    1.2785993676   -0.5195946346
N        0.8179894884    1.4116547046   -0.4612795908
H        2.3105219717    0.2429970311    0.5904438922
H        1.0839709521   -2.0225026006   -0.1977535300
H       -1.0474620313   -0.6914972433   -1.8492991821
H       -2.0650468597    0.3422165265    0.7772159196
H       -1.1032802586    1.9103644747   -1.1367919220
C        0.1597070346   -0.3631439620    1.1027030472
H        0.2227063145   -0.8201815892    2.0836307179
13   
From optimize.out: Frame 11 / 29, Energy=    -286.8108015394
C        1.2829814213    0.2549843664    0.2783913281
C        0.6111339334   -1.0403085078   -0.1895722286
C       -0.7120791403   -0.6586921905   -0.8194884502
C       -1.0834388332    0.1825536835    0.3676109177
C       -0.4818703737    1.2407193523   -0.5311670509
N        0.8175300900    1.3991206491   -0.4682874556
H        2.3293212831    0.2563266648    0.5668919663
H        1.0535170211   -2.0295989208   -0.1773650390
H       -1.0171517475   -0.6306603837   -1.8614193100
H       -2.0713830836    0.3362902285    0.7988855817
H       -1.1081691485    1.8720581256   -1.1536742780
C        0.1657555545   -0.3509644183    1.1095557450
H        0.2138530235   -0.8318286491    2.0796382735
13   
From optimize.out: Frame 10 / 29, Energy=    -286.8055572059
C        1.2928041581    0.2529252876    0.2880524914
C        0.6139809651   -1.0331221841   -0.1862618878
C       -0.7102461380   -0.6367778993   -0.8227609385
C       -1.0916555640    0.1744818738    0.3820001282
C       -0.4922442641    1.2070116663   -0.5388789508
N        0.8166986586    1.3874711806   -0.4745113349
H        2.3480983724    0.2708078834    0.5388270689
H        1.0203524981   -2.0373339345   -0.1547460944
H       -0.9842615049   -0.5761271640   -1.8717961622
H       -2.0776494030    0.3294876140    0.8165197756
H       -1.1118180496    1.8409493004   -1.1654057431
C        0.1720054811   -0.3371724323    1.1155038325
H        0.2039347903   -0.8426011917    2.0734578152
13   
From optimize.out: Frame 9 / 29, Energy=    -286.7998229683
C        1.3030777508    0.2493809398    0.2981155030
C        0.6163378570   -1.0278229089   -0.1828518120
C       -0.7086664114   -0.6202986667   -0.8250835132
C       -1.0994657196    0.1647875395    0.3939785106
C       -0.5024351477    1.1776301234   -0.5416668568
N        0.8151477201    1.3750983259   -0.4811645657
H        2.3666574979    0.2871263320    0.5052013435
H        0.9853367121   -2.0457275166   -0.1326130090
H       -0.9480723528   -0.5263025318   -1.8800744735
H       -2.0844902707    0.3207040216    0.8296942944
H       -1.1132818919    1.8170108355   -1.1717621202
C        0.1783365167   -0.3220635839    1.1209623261
H        0.1915177397   -0.8495229096    2.0672643727
13   
From optimize.out: Frame 8 / 29, Energy=    -286.7928241251
C        1.3149255489    0.2434198160    0.3093385539
C        0.6183336921   -1.0242269119   -0.1786702750
C       -0.7072523606   -0.6074125678   -0.8262858789
C       -1.1080409118    0.1523397091    0.4039415501
C       -0.5125353152    1.1508031249   -0.5396024541
N        0.8132497497    1.3608872066   -0.4881657037
H        2.3850672738    0.3050156344    0.4667668179
H        0.9504962455   -2.0543286712   -0.1154655898
H       -0.9100390032   -0.4791045619   -1.8853082115
H       -2.0931713463    0.3087872460    0.8384625872
H       -1.1113455524    1.7984946104   -1.1740130140
C        0.1850121118   -0.3054245897    1.1259858675
H        0.1752998676   -0.8492500450    2.0630157506
13   
From optimize.out: Frame 7 / 29, Energy=    -286.7836888550
C        1.3295564478    0.2353555462    0.3224304536
C        0.6205887298   -1.0213667577   -0.1736008010
C       -0.7063179237   -0.5966557518   -0.8258798057
C       -1.1185686731    0.1368155830    0.4120194987
C       -0.5228993735    1.1248165836   -0.5333164310
N        0.8116199306    1.3450310292   -0.4950725915
H        2.4033421329    0.3217285645    0.4261810769
H        0.9182560366   -2.0622881424   -0.1062564161
H       -0.8728218789   -0.4335328672   -1.8864459229
H       -2.1048953691    0.2931074340    0.8428987429
H       -1.1056670363    1.7835092462   -1.1735337584
C        0.1925579091   -0.2866851217    1.1297957951
H        0.1552490678   -0.8398353459    2.0607801594
13   
From optimize.out: Frame 6 / 29, Energy=    -286.7714670414
C        1.3479804375    0.2262314446    0.3377991692
C        0.6240029180   -1.0180861598   -0.1679467333
C       -0.7065296739   -0.5872540219   -0.8231809797
C       -1.1319696083    0.1189236405    0.4180901116
C       -0.5341875729    1.0987680377   -0.5236144485
N        0.8111166090    1.3285120359   -0.5016024663
H        2.4220299966    0.3334586599    0.3872888756
H        0.8904597702   -2.0687010024   -0.1055158680
H       -0.8391113265   -0.3897174580   -1.8828583608
H       -2.1205478306    0.2739339390    0.8430320295
H       -1.0973773928    1.7705012946   -1.1712610741
C        0.2016331585   -0.2653871768    1.1310351903
H        0.1325005150   -0.8211832333    2.0587345545
13   
From optimize.out: Frame 5 / 29, Energy=    -286.7550986063
C        1.3710242948    0.2168806234    0.3555080234
C        0.6294189601   -1.0137451211   -0.1621498993
C       -0.7089251922   -0.5789542487   -0.8176983285
C       -1.1489086110    0.1001085406    0.4218440388
C       -0.5471800764    1.0724516867   -0.5112991614
N        0.8131451428    1.3122782880   -0.5072514887
H        2.4423262098    0.3380735613    0.3539593075
H        0.8677979385   -2.0731451900   -0.1119334557
H       -0.8110930994   -0.3485773493   -1.8746121337
H       -2.1407104767    0.2526141633    0.8387560095
H       -1.0887898126    1.7583756392   -1.1676248560
C        0.2130314473   -0.2416530010    1.1283408669
H        0.1088632749   -0.7947075925    2.0541610773
13   
From optimize.out: Frame 4 / 29, Energy=    -286.7334054802
C        1.3992742138    0.2076374213    0.3753089292
C        0.6376134852   -1.0085706612   -0.1563681979
C       -0.7149611950   -0.5716446398   -0.8095054560
C       -1.1698135107    0.0819833583    0.4227820183
C       -0.5625610732    1.0461367379   -0.4971989981
N        0.8191480488    1.2966258990   -0.5109593122
H        2.4655708248    0.3358871963    0.3290957558
H        0.8502457626   -2.0759964192   -0.1230495104
H       -0.7904193069   -0.3110404561   -1.8624906459
H       -2.1656596056    0.2312408013    0.8297366703
H       -1.0827319517    1.7468106114   -1.1629271895
C        0.2277179313   -0.2163563360    1.1209281554
H        0.0865763768   -0.7627135132    2.0446477808
13   
From optimize.out: Frame 3 / 29, Energy=    -286.7052180975
C        1.4323492692    0.1986969728    0.3964574187
C        0.6491381344   -1.0033406975   -0.1504871694
C       -0.7258705687   -0.5651468763   -0.7991551437
C       -1.1941220309    0.0654718268    0.4204833104
C       -0.5801620404    1.0201171592   -0.4819009314
N        0.8292241107    1.2806205564   -0.5113284006
H        2.4920757537    0.3288381414    0.3137213993
H        0.8377219487   -2.0782121098   -0.1360388222
H       -0.7779654901   -0.2772507879   -1.8475869741
H       -2.1945745887    0.2114829846    0.8158664281
H       -1.0811340665    1.7363176695   -1.1573311641
C        0.2460220468   -0.1904558558    1.1086112550
H        0.0672975218   -0.7271389834    2.0286887940
13   
From optimize.out: Frame 2 / 29, Energy=    -286.6694943869
C        1.4687045160    0.1901245400    0.4182879570
C        0.6641191405   -0.9981151471   -0.1446806362
C       -0.7416296988   -0.5588275247   -0.7865139850
C       -1.2189771453    0.0506456371    0.4149767486
C       -0.5991013022    0.9942756136   -0.4661310482
N        0.8408699503    1.2610069777   -0.5063287136
H        2.5205407881    0.3185686373    0.3072949578
H        0.8302794663   -2.0806788977   -0.1496019362
H       -0.7732538380   -0.2450926554   -1.8297364344
H       -2.2240495527    0.1940515524    0.7977367140
H       -1.0855257418    1.7275521087   -1.1526639452
C        0.2670295526   -0.1643312941    1.0917345707
H        0.0509938650   -0.6891795476    2.0056257506
13   
From optimize.out: Frame 1 / 29, Energy=    -286.6260970256
C        1.5016504910    0.1824607602    0.4348558164
C        0.6783765924   -0.9899140995   -0.1422213337
C       -0.7563226370   -0.5545761174   -0.7713309541
C       -1.2350042970    0.0342070830    0.4069351893
C       -0.6132198268    0.9659002333   -0.4464541158
N        0.8496681874    1.2317807937   -0.4922840033
H        2.5446567413    0.3049887538    0.3051069209
H        0.8247187801   -2.0796791319   -0.1642286630
H       -0.7715945612   -0.2143172713   -1.8059364445
H       -2.2435388475    0.1760832453    0.7771728823
H       -1.0925222499    1.7154128506   -1.1410885180
C        0.2835929541   -0.1334240706    1.0673447476
H        0.0295386731   -0.6389230293    1.9721284760
13   
C5H5N+CH->C6H6N atoms 1-13 frame 169 charge +0.000 sz -1.000 sz^2 0.808
C        1.5016504910    0.1824607602    0.4348558164
C        0.6783765924   -0.9899140995   -0.1422213337
C       -0.7563226370   -0.5545761174   -0.7713309541
C       -1.2350042970    0.0342070830    0.4069351893
C       -0.6132198268    0.9659002333   -0.4464541158
N        0.8496681874    1.2317807937   -0.4922840033
H        2.5446567413    0.3049887538    0.3051069209
H        0.8247187801   -2.0796791319   -0.1642286630
H       -0.7715945612   -0.2143172713   -1.8059364445
H       -2.2435388475    0.1760832453    0.7771728823
H       -1.0925222499    1.7154128506   -1.1410885180
C        0.2835929541   -0.1334240706    1.0673447476
H        0.0295386731   -0.6389230293    1.9721284760
13   
C5H5N+CH->C6H6N atoms 1-13 frame 170 charge +0.000 sz -1.000 sz^2 0.830
C        1.5082375729    0.1800675656    0.4282590993
C        0.6827304093   -0.9901801151   -0.1360020167
C       -0.7636618180   -0.5599407482   -0.7863604430
C       -1.2331023393    0.0259157978    0.4044327896
C       -0.6220738158    0.9403387553   -0.4548937444
N        0.8562532802    1.2332038323   -0.5003654286
H        2.5548460260    0.3119336514    0.3249945827
H        0.8013219453   -2.0719312802   -0.1686146887
H       -0.7844410519   -0.2003984212   -1.8073401209
H       -2.2502770653    0.1674565597    0.7484003954
H       -1.0885786834    1.7142745031   -1.1180469694
C        0.2852110772   -0.1228132714    1.0595817408
H        0.0535344629   -0.6279268292    2.0059548039
13   
C5H5N+CH->C6H6N atoms 1-13 frame 171 charge -0.000 sz -1.000 sz^2 0.854
C        1.5139327286    0.1781167103    0.4205469510
C        0.6861474383   -0.9904936054   -0.1305042471
C       -0.7703367128   -0.5650252040   -0.8029599046
C       -1.2316181668    0.0189139804    0.4020340569
C       -0.6302137662    0.9169167725   -0.4643883164
N        0.8628689772    1.2352942834   -0.5084688289
H        2.5666219601    0.3182685391    0.3485841432
H        0.7792030964   -2.0632723944   -0.1724174066
H       -0.8009109179   -0.1900637242   -1.8119853238
H       -2.2567971992    0.1590314678    0.7207416726
H       -1.0841441453    1.7119390328   -1.0937145847
C        0.2853709650   -0.1135389769    1.0528815495
H        0.0798757427   -0.6160868813    2.0396502389
13   
C5H5N+CH->C6H6N atoms 1-13 frame 172 charge +0.000 sz -1.000 sz^2 0.877
C        1.5188196200    0.1765708582    0.4119149595
C        0.6886437167   -0.9908089513   -0.1256213868
C       -0.7762999444   -0.5697746804   -0.8208314171
C       -1.2305405173    0.0131128428    0.3999567541
C       -0.6375267457    0.8957859512   -0.4747041206
N        0.8695425045    1.2380302465   -0.5163314546
H        2.5794729746    0.3239030471    0.3759232326
H        0.7587490258   -2.0546274619   -0.1754383172
H       -0.8208592367   -0.1833042844   -1.8202951718
H       -2.2630361896    0.1508919380    0.6947583026
H       -1.0796515351    1.7087181916   -1.0683769035
C        0.2841513406   -0.1057369000    1.0476227385
H        0.1085349867   -0.6027607976    2.0714227843
13   
C5H5N+CH->C6H6N atoms 1-13 frame 173 charge -0.000 sz -1.000 sz^2 0.900
C        1.5230260868    0.1754325667    0.4025231090
C        0.6902913782   -0.9910569059   -0.1212624264
C       -0.7814852081   -0.5741237283   -0.8396857007
C       -1.2298070713    0.0084222075    0.3983888131
C       -0.6438897986    0.8770655788   -0.4856231856
N        0.8763219828    1.2414119539   -0.5237356054
H        2.5927010803    0.3287443262    0.4069440281
H        0.7403391338   -2.0469045179   -0.1775229712
H       -0.8441098139   -0.1801114325   -1.8325567249
H       -2.2688878286    0.1431293057    0.6709760031
H       -1.0755694972    1.7050593983   -1.0424289602
C        0.2817001357   -0.0994793207    1.0440939713
H        0.1393694202   -0.5875894316    2.0998896499
13   
From optimize.out: Frame 1 / 27, Energy=    -286.5952902923
C        1.5267049730    0.1747295251    0.3925115463
C        0.6912060448   -0.9911617478   -0.1173534339
C       -0.7858100789   -0.5779954527   -0.8592599789
C       -1.2293179195    0.0047485876    0.3974768587
C       -0.6491731843    0.8608351163   -0.4969435196
N        0.8832732008    1.2454530954   -0.5304975415
H        2.6054792832    0.3326851721    0.4414609987
H        0.7243231833   -2.0409142841   -0.1785646601
H       -0.8704472187   -0.1804929592   -1.8488766815
H       -2.2742190421    0.1358320072    0.6498581701
H       -1.0723749209    1.7015344104   -1.0163487219
C        0.2782097890   -0.0947969864    1.0424981642
H        0.1721458903   -0.5704564840    2.1240387994
13   
From optimize.out: Frame 2 / 27, Energy=    -286.6429839762
C        1.4928947360    0.1803595329    0.3791214442
C        0.6793573571   -1.0000463386   -0.1163883267
C       -0.7650059940   -0.5799658316   -0.8629124047
C       -1.2136260135    0.0180262697    0.4119666522
C       -0.6322037419    0.8946000920   -0.5112766175
N        0.8697389746    1.2683913631   -0.5384705798
H        2.5663106602    0.3466733691    0.4350884222
H        0.7354066413   -2.0601864947   -0.1630796371
H       -0.8585280081   -0.2091160540   -1.8693005931
H       -2.2552409266    0.1517338411    0.6828344481
H       -1.0687211361    1.7294705223   -1.0389254857
C        0.2620386129   -0.1268333627    1.0699560240
H        0.1875788381   -0.6131069085    2.1213866537
13   
From optimize.out: Frame 3 / 27, Energy=    -286.6828384093
C        1.4553625973    0.1862530242    0.3619819680
C        0.6648005093   -1.0064256270   -0.1202225595
C       -0.7422233015   -0.5821981949   -0.8634667709
C       -1.1909498537    0.0311716306    0.4228056524
C       -0.6105957830    0.9250631621   -0.5217365238
N        0.8499441151    1.2797034384   -0.5384130733
H        2.5250617154    0.3581069355    0.4295132317
H        0.7462347618   -2.0726177587   -0.1511373496
H       -0.8448849273   -0.2374273225   -1.8817353881
H       -2.2277319167    0.1686401074    0.7118383094
H       -1.0653674925    1.7496320503   -1.0545930169
C        0.2427680403   -0.1552566248    1.0919395537
H        0.1975815355   -0.6446448205    2.1132259668
13   
From optimize.out: Frame 4 / 27, Energy=    -286.7147767287
C        1.4210062062    0.1933393181    0.3451514184
C        0.6517640188   -1.0122682595   -0.1260671467
C       -0.7239052396   -0.5833327558   -0.8623613601
C       -1.1695087369    0.0477223346    0.4291767429
C       -0.5899977102    0.9558183802   -0.5324723694
N        0.8314941031    1.2885144080   -0.5346266695
H        2.4882439345    0.3669840977    0.4289588224
H        0.7606427829   -2.0815171472   -0.1400799515
H       -0.8371101542   -0.2683078386   -1.8911950124
H       -2.2010771202    0.1893400358    0.7356151235
H       -1.0665394276    1.7667150131   -1.0703843038
C        0.2266983425   -0.1838548439    1.1098202514
H        0.2082890007   -0.6791527425    2.1084644547
13   
From optimize.out: Frame 5 / 27, Energy=    -286.7397557870
C        1.3915531292    0.2015686799    0.3296015051
C        0.6409485858   -1.0173818658   -0.1334023402
C       -0.7110614505   -0.5838751224   -0.8601001369
C       -1.1514100135    0.0672795938    0.4315728697
C       -0.5715467757    0.9871175497   -0.5430072366
N        0.8192947414    1.2985749965   -0.5284590518
H        2.4569614904    0.3711861727    0.4359038905
H        0.7796184078   -2.0869437007   -0.1295989780
H       -0.8376499330   -0.3038638688   -1.8987124789
H       -2.1775184570    0.2126167801    0.7554289433
H       -1.0730565251    1.7809646026   -1.0856782753
C        0.2142266594   -0.2122356882    1.1223675682
H        0.2196401408   -0.7150081295    2.1040837210
13   
From optimize.out: Frame 6 / 27, Energy=    -286.7589645363
C        1.3676911158    0.2106959982    0.3163304371
C        0.6326573435   -1.0209693516   -0.1419866470
C       -0.7034157719   -0.5839293499   -0.8567313108
C       -1.1368774967    0.0886723813    0.4308128453
C       -0.5557921519    1.0181275969   -0.5530230364
N        0.8145773984    1.3111292659   -0.5207285773
H        2.4315407760    0.3682612974    0.4515090604
H        0.8036336754   -2.0881369704   -0.1213835958
H       -0.8474754792   -0.3437219261   -1.9037589861
H       -2.1573084134    0.2364411558    0.7723757458
H       -1.0842346634    1.7917588235   -1.1005084057
C        0.2046801051   -0.2392301648    1.1291855971