13   
From optimize.out: Frame 28 / 29, Energy=    -286.8383370206
C        1.2440743142    0.2527275317    0.2503193254
C        0.5757887268   -1.1281582300   -0.2004073058
C       -0.7355507221   -0.8966105992   -0.7898570614
C       -1.0558106964    0.2139392876    0.2086124757
C       -0.4448641129    1.4714079870   -0.3979024983
N        0.8381818064    1.4624731756   -0.4190815764
H        2.2826029050    0.1720494619    0.5547101703
H        1.2235943286   -1.9933004274   -0.3012312881
H       -1.1404786482   -1.1003669026   -1.7784177914
H       -2.0651052431    0.2854326388    0.6198920614
H       -1.0204750992    2.2493841864   -0.8970717314
C        0.1461730167   -0.3443211364    1.0534239816
H        0.1518694241   -0.6446569734    2.0970112387
13   
From optimize.out: Frame 26 / 29, Energy=    -286.8383275800
C        1.2451844717    0.2494334215    0.2454653001
C        0.5894584817   -1.1116259503   -0.2164528859
C       -0.7329388186   -0.8831649642   -0.7971903018
C       -1.0521132700    0.2188995818    0.2112399319
C       -0.4372916488    1.4777378427   -0.3974265576
N        0.8456161852    1.4696632684   -0.4073421333
H        2.2659132293    0.1744274271    0.6074359084
H        1.2272144251   -1.9831588220   -0.3283691593
H       -1.1839457583   -1.1378402169   -1.7520302102
H       -2.0658658310    0.2941404574    0.6109608306
H       -1.0149113749    2.2398591649   -0.9180292657
C        0.1383600775   -0.3556004091    1.0493351483
H        0.1753198312   -0.6527708012    2.0924033946
13   
From optimize.out: Frame 23 / 29, Energy=    -286.8382730619
C        1.2486763787    0.2531862988    0.2446924906
C        0.5931250727   -1.0946191279   -0.2157028886
C       -0.7342223277   -0.8466460826   -0.7983505893
C       -1.0490654900    0.2167757564    0.2453269617
C       -0.4399956537    1.4470297796   -0.4295059332
N        0.8401399476    1.4637654498   -0.4146673170
H        2.2594139005    0.1895779054    0.6370276601
H        1.2020509171   -1.9888710224   -0.3026277988
H       -1.1711166607   -1.0383856523   -1.7746711038
H       -2.0589252596    0.3177713473    0.6483693165
H       -1.0426240232    2.1584723630   -0.9907251427
C        0.1397048839   -0.3702188192    1.0613384155
H        0.2128383144   -0.7078381960    2.0894959291
13   
From optimize.out: Frame 21 / 29, Energy=    -286.8382014486
C        1.2529856979    0.2567803567    0.2482803480
C        0.5970310605   -1.0796422255   -0.2104262878
C       -0.7293103627   -0.8007786716   -0.8018068879
C       -1.0513391198    0.2115104316    0.2793805103
C       -0.4460908807    1.4048492920   -0.4616891837
N        0.8320526176    1.4526819831   -0.4277762085
H        2.2649449317    0.2040268659    0.6398119035
H        1.1712232257   -1.9981925674   -0.2687492227
H       -1.1415609308   -0.9305800856   -1.7989966449
H       -2.0551457561    0.3371985065    0.6885066582
H       -1.0694834284    2.0761557091   -1.0481992146
C        0.1436629845   -0.3779196463    1.0745487331
H        0.2310299605   -0.7560899486    2.0871154971
13   
From optimize.out: Frame 18 / 29, Energy=    -286.8376206169
C        1.2594354391    0.2584651461    0.2551412482
C        0.6017418827   -1.0655510314   -0.2030710992
C       -0.7219971634   -0.7495172602   -0.8068732722
C       -1.0587137616    0.2034634967    0.3127973508
C       -0.4552845835    1.3525596033   -0.4907573052
N        0.8234151122    1.4366478304   -0.4434881767
H        2.2801076170    0.2197908598    0.6251077226
H        1.1349184556   -2.0091452269   -0.2348944369
H       -1.1018137159   -0.8206556047   -1.8225672261
H       -2.0560480674    0.3467308788    0.7293423661
H       -1.0896527738    1.9971489363   -1.0939999969
C        0.1497016562   -0.3773711843    1.0876020289
H        0.2341899028   -0.7925664438    2.0856607966
13   
From optimize.out: Frame 16 / 29, Energy=    -286.8336497256
C        1.2707287249    0.2571360960    0.2664322297
C        0.6069643502   -1.0515717875   -0.1951060618
C       -0.7156326970   -0.6968533223   -0.8138636213
C       -1.0715534533    0.1925071189    0.3445120872
C       -0.4685720911    1.2911591383   -0.5150925689
N        0.8184988762    1.4159215979   -0.4585167570
H        2.3049762595    0.2390137470    0.5967864770
H        1.0927861074   -2.0203152654   -0.2038105724
H       -1.0566450651   -0.7125568129   -1.8449760848
H       -2.0632306511    0.3435870888    0.7694350062
H       -1.1013411824    1.9242698663   -1.1301745148
C        0.1579308555   -0.3661368713    1.1002526383
H        0.2250899661   -0.8161605939    2.0841217427
13   
From optimize.out: Frame 13 / 29, Energy=    -286.8211256967
C        1.2867118838    0.2542023729    0.2820604285
C        0.6122151743   -1.0375792978   -0.1883150330
C       -0.7113830057   -0.6503696178   -0.8207312703
C       -1.0865593694    0.1794881852    0.3730756279
C       -0.4858101524    1.2279179039   -0.5340958633
N        0.8172143304    1.3946964335   -0.4706511500
H        2.3364524145    0.2618263177    0.5562335267
H        1.0409218543   -2.0325365113   -0.1687748542
H       -1.0046607464   -0.6099498491   -1.8653602135
H       -2.0737628959    0.3337067429    0.8055826662
H       -1.1095549221    1.8602436683   -1.1581296341
C        0.1681291411   -0.3457265210    1.1118146997
H        0.2100862935   -0.8359198273    2.0772910695
13   
From optimize.out: Frame 11 / 29, Energy=    -286.8108015394
C        1.3058687238    0.2479766843    0.3007593050
C        0.6168080137   -1.0269758037   -0.1818667719
C       -0.7083333050   -0.6172631023   -0.8253667532
C       -1.1014857684    0.1618552175    0.3963254931
C       -0.5048144333    1.1713105163   -0.5411805477
N        0.8147006172    1.3717506278   -0.4828138162
H        2.3709942690    0.2913404957    0.4961473637
H        0.9771293809   -2.0477536813   -0.1285736099
H       -0.9391128776   -0.5151841569   -1.8813073795
H       -2.0865352623    0.3178967996    0.8317598317
H       -1.1128257505    1.8126489883   -1.1722923609
C        0.1799090794   -0.3181439540    1.1221457163
H        0.1876973131   -0.8494586312    2.0662635294
13   
From optimize.out: Frame 8 / 29, Energy=    -286.7928241251
C        1.3320422426    0.2341245075    0.3245040259
C        0.6210493776   -1.0209241341   -0.1728379449
C       -0.7063464933   -0.5953872551   -0.8255156757
C       -1.1203767492    0.1344015729    0.4128385557
C       -0.5244223958    1.1213020712   -0.5320074236
N        0.8115520217    1.3428022596   -0.4959536129
H        2.4058635300    0.3233112081    0.4209336775
H        0.9145057188   -2.0631533759   -0.1061565001
H       -0.8682735960   -0.4276212205   -1.8859618832
H       -2.1070072248    0.2905205147    0.8429167261
H       -1.1045485840    1.7817541921   -1.1732271241
C        0.1937823566   -0.2838115681    1.1299630163
H        0.1521797958   -0.8373187723    2.0605041631
13   
From optimize.out: Frame 6 / 29, Energy=    -286.7714670414
C        1.3716108048    0.2166887209    0.3559191194
C        0.6295890905   -1.0136376917   -0.1620298626
C       -0.7090505085   -0.5788024904   -0.8175282323
C       -1.1493426276    0.0997322351    0.4218635126
C       -0.5474994086    1.0719053495   -0.5110064212
N        0.8132697720    1.3119533213   -0.5073284686
H        2.4428088023    0.3380281692    0.3534431035
H        0.8674335295   -2.0732043857   -0.1121642414
H       -0.8106638810   -0.3477980280   -1.8743604738
H       -2.1412284574    0.2521704208    0.8385687547
H       -1.0886640425    1.7581355322   -1.1675273255
C        0.2133363604   -0.2411278049    1.1281869681
H        0.1084005660   -0.7940433482    2.0539635672
13   
From optimize.out: Frame 3 / 29, Energy=    -286.7052180975
C        1.4271484506    0.2001027951    0.3931319682
C        0.6473259648   -1.0041630723   -0.1514119195
C       -0.7241551469   -0.5661686036   -0.8007826571
C       -1.1902996880    0.0680681484    0.4208447660
C       -0.5773944127    1.0242085539   -0.4843064442
N        0.8276397212    1.2831372833   -0.5112703641
H        2.4879080411    0.3299465555    0.3161389082
H        0.8396912299   -2.0778637081   -0.1339963448
H       -0.7799237647   -0.2825639742   -1.8499304711
H       -2.1900279121    0.2145897616    0.8180474256
H       -1.0813853226    1.7379676104   -1.1582110995
C        0.2431438540   -0.1945285232    1.1105480005
H        0.0703289855   -0.7327328267    2.0311982318
13   
From optimize.out: Frame 1 / 29, Energy=    -286.6260970256
C        1.4858396789    0.1861386171    0.4269048812
C        0.6715344245   -0.9938497919   -0.1434015559
C       -0.7492714787   -0.5566163727   -0.7786173084
C       -1.2273128481    0.0420959644    0.4107943430
C       -0.6064443303    0.9795176116   -0.4558970988
N        0.8454459031    1.2458064737   -0.4990240763
H        2.5330834670    0.3115057558    0.3061569624
H        0.8273873599   -2.0801589207   -0.1572092796
H       -0.7723908500   -0.2290864143   -1.8173580876
H       -2.2341859120    0.1847062570    0.7870414893
H       -1.0891646175    1.7212384948   -1.1466435791
C        0.2756441583   -0.1482564834    1.0790494523
H        0.0398350449   -0.6630411915    1.9882038575
13   
C5H5N+CH->C6H6N atoms 1-13 frame 171 charge -0.000 sz -1.000 sz^2 0.854
C        1.5121604000    0.1787238152    0.4229469664
C        0.6850840612   -0.9903960475   -0.1322151493
C       -0.7682594900   -0.5634429247   -0.7977941633
C       -1.2320800403    0.0210929413    0.4027805409
C       -0.6276806191    0.9242056778   -0.4614336119
N        0.8608101767    1.2346437364   -0.5059470562
H        2.5629572973    0.3162971263    0.3412430877
H        0.7860864673   -2.0659670339   -0.1712340033
H       -0.7957855067   -0.1932798750   -1.8105397398
H       -2.2547681379    0.1616533507    0.7293490486
H       -1.0855241706    1.7126658296   -1.1012868065
C        0.2853212080   -0.1164251311    1.0549666446
H        0.0716783540   -0.6197714652    2.0291642421
13   
C5H5N+CH->C6H6N atoms 1-13 frame 173 charge -0.000 sz -1.000 sz^2 0.900
C        1.5232735843    0.1753852695    0.4018495798
C        0.6903529125   -0.9910639592   -0.1209994484
C       -0.7817761644   -0.5743841991   -0.8410025629
C       -1.2297741635    0.0081750642    0.3983274612
C       -0.6442452391    0.8759736722   -0.4863847626
N        0.8767896269    1.2416838222   -0.5241905156
H        2.5935607356    0.3290094471    0.4092661619
H        0.7392616586   -2.0465015241   -0.1775930510
H       -0.8458816664   -0.1801370998   -1.8336546522
H       -2.2692464867    0.1426383789    0.6695552980
H       -1.0753545816    1.7048222542   -1.0406744087
C        0.2814653222   -0.0991643160    1.0439866132
H        0.1415744617   -0.5864368103    2.1015142872
13   
From optimize.out: Frame 3 / 27, Energy=    -286.6828384093
C        1.4951266689    0.1799878763    0.3800053720
C        0.6801395307   -0.9994598355   -0.1164520368
C       -0.7663793449   -0.5798357600   -0.8626712952
C       -1.2146618915    0.0171497632    0.4110101299
C       -0.6333239546    0.8923711470   -0.5103304392
N        0.8706324165    1.2668771273   -0.5379442515
H        2.5688963190    0.3457499589    0.4355090984
H        0.7346749832   -2.0589142682   -0.1641018580
H       -0.8593148372   -0.2072265427   -1.8679523387
H       -2.2564937389    0.1506841050    0.6806575678
H       -1.0689623353    1.7276263611   -1.0374351140
C        0.2631061292   -0.1247185287    1.0681434339
H        0.1865600548   -0.6102914038    2.1215617312
13   
From optimize.out: Frame 5 / 27, Energy=    -286.7397557870
C        1.4344647889    0.1905633725    0.3517445248
C        0.6568708615   -1.0099794990   -0.1237776204
C       -0.7310810559   -0.5828883092   -0.8627943876
C       -1.1779079614    0.0412388533    0.4266809672
C       -0.5980666853    0.9437705011   -0.5282667686
N        0.8387216088    1.2850628475   -0.5361099344
H        2.5026667283    0.3635066073    0.4291760036
H        0.7549986644   -2.0780309499   -0.1444115155
H       -0.8401558008   -0.2562108760   -1.8874893515
H       -2.2115187228    0.1812311603    0.7263009258
H       -1.0660803402    1.7600230277   -1.0641983124
C        0.2329933970   -0.1726519357    1.1028157658
H        0.2040945175   -0.6656348000    2.1103297031
13   
From optimize.out: Frame 8 / 27, Energy=    -286.7847929508
C        1.3810161472    0.2055991189    0.3237412702
C        0.6372873411   -1.0189660269   -0.1371929963
C       -0.7076852736   -0.5838990682   -0.8586125315
C       -1.1449927483    0.0767262156    0.4312372583
C       -0.5645898528    1.0008109588   -0.5474300111
N        0.8172116582    1.3041187077   -0.5250454308
H        2.4457362176    0.3698946070    0.4427948176
H        0.7902230638   -2.0874706245   -0.1259712316
H       -0.8419886953   -0.3214643799   -1.9009409143
H       -2.1685941109    0.2231371420    0.7629123082
H       -1.0779925647    1.7857311120   -1.0922269606
C        0.2100110943   -0.2241559025    1.1253782717
H        0.2243577234   -0.7300618601    2.1013561502
13   
From optimize.out: Frame 10 / 27, Energy=    -286.7995075528
C        1.3429689812    0.2243436194    0.3023940336
C        0.6252024969   -1.0226792675   -0.1551060235
C       -0.6993424134   -0.5829659368   -0.8508233975
C       -1.1216877204    0.1180742998    0.4257985505
C       -0.5372741993    1.0585436502   -0.5650872893
N        0.8164574081    1.3319597058   -0.5082888991
H        2.4036060291    0.3506540181    0.4855340975
H        0.8461445690   -2.0820083768   -0.1188156353
H       -0.8763803906   -0.4037893748   -1.9053137808
H       -2.1340692281    0.2662930557    0.7918822735
H       -1.1015911087    1.8009310385   -1.1201768621
C        0.1944879769   -0.2721909149    1.1301156842
H        0.2414775992   -0.7871655167    2.0878872483
13   
From optimize.out: Frame 13 / 27, Energy=    -286.8107555875
C        1.3192180715    0.2421327952    0.2906451320
C        0.6197157629   -1.0213326993   -0.1726295217
C       -0.6992711782   -0.5795674402   -0.8424246335
C       -1.1070138815    0.1530760302    0.4139731963
C       -0.5140236610    1.1084041406   -0.5775476120
N        0.8251910688    1.3627139147   -0.4864923784
H        2.3707818440    0.3108879500    0.5439229459
H        0.9199432214   -2.0622749711   -0.1399534544
H       -0.9389170696   -0.4924432718   -1.8964527965
H       -2.1085416315    0.2987052693    0.8115076544
H       -1.1176128883    1.8076819022   -1.1469461550
C        0.1826474737   -0.3107079576    1.1231035652
H        0.2478828678   -0.8172756621    2.0792940577
13   
From optimize.out: Frame 15 / 27, Energy=    -286.8147680831
C        1.3057853129    0.2523929147    0.2883456335
C        0.6164054968   -1.0197710490   -0.1850847484
C       -0.6990106255   -0.5729434029   -0.8377278917
C       -1.0992294712    0.1751170637    0.3989190560
C       -0.4937077404    1.1472812123   -0.5832604526
N        0.8365223541    1.3888137073   -0.4576285272
H        2.3443778411    0.2719057354    0.5988032854
H        0.9997228002   -2.0337541831   -0.1959897659
H       -1.0168747931   -0.5831743166   -1.8740004148
H       -2.0920675555    0.3176932124    0.8197055520
H       -1.1149307274    1.8142476111   -1.1717101859
C        0.1718173471   -0.3417074180    1.1142626433
H        0.2411897608   -0.8161010874    2.0853658162
13   
From optimize.out: Frame 18 / 27, Energy=    -286.8196371587
C        1.2987403487    0.2550022390    0.2937822688
C        0.6125227727   -1.0199810525   -0.1918371167
C       -0.6931435781   -0.5583450996   -0.8416308100
C       -1.0959858969    0.1851351569    0.3840158284
C       -0.4778700499    1.1741016174   -0.5843291170
N        0.8484622793    1.4080496943   -0.4242758859
H        2.3256719211    0.2407510284    0.6424408855
H        1.0694607913   -1.9994398018   -0.2758607171
H       -1.0956251310   -0.6773367669   -1.8401785796
H       -2.0837827640    0.3232837409    0.8180968553
H       -1.0963158507    1.8262191042   -1.1914236832
C        0.1619316623   -0.3666229569    1.1080033636
H        0.2259334952   -0.7908169033    2.1031967079
13   
From optimize.out: Frame 20 / 27, Energy=    -286.8232949038
C        1.2961310869    0.2548848157    0.3073011088
C        0.6079787896   -1.0177863837   -0.1965573827
C       -0.6788870973   -0.5192547880   -0.8608079814
C       -1.0952389871    0.1888917699    0.3739193913
C       -0.4672998625    1.1789887999   -0.5932716812
N        0.8627163338    1.4229045342   -0.3867380261
H        2.3148134872    0.2144828325    0.6780972291
H        1.1183407707   -1.9594490297   -0.3610800182
H       -1.1693591191   -0.7730906432   -1.7908779150
H       -2.0819439319    0.3178807960    0.8121104954
H       -1.0714463118    1.8365060299   -1.2077971073
C        0.1543200510   -0.3855094125    1.1042229019
H        0.2098747906   -0.7594493211    2.1214789853
13   
From optimize.out: Frame 24 / 27, Energy=    -286.8249515930
C        1.2962769279    0.2564572337    0.3276803213
C        0.5983767024   -1.0098812211   -0.1994956686
C       -0.6555670880   -0.4361023301   -0.8978182867
C       -1.0965080086    0.1893490767    0.3777461495
C       -0.4630420605    1.1394168085   -0.6288375007
N        0.8797695577    1.4303409902   -0.3513750899
H        2.3090545655    0.1945607587    0.7113660733
H        1.1429781571   -1.9167511825   -0.4340557616
H       -1.2257462167   -0.8356556108   -1.7261911241
H       -2.0828600399    0.3080682236    0.8159705689
H       -1.0522875872    1.8212218291   -1.2303396692
C        0.1485289883   -0.4011861650    1.1022645659
H        0.2010261018   -0.7398384111    2.1330854222
13   
From optimize.out: Frame 26 / 27, Energy=    -286.8249842871
C        1.2996058262    0.2660350258    0.3331908980
C        0.6002727092   -1.0020274838   -0.1978148853
C       -0.6447715862   -0.4101298348   -0.9049914339
C       -1.0991204165    0.1891478011    0.3967577251
C       -0.4610978696    1.1018594116   -0.6667973994
N        0.8776952333    1.4291047430   -0.3511848725
H        2.3162468547    0.2171485101    0.7075669742
H        1.1132013688   -1.9340755772   -0.4069191068
H       -1.2159570787   -0.8319764301   -1.7242774415
H       -2.0959177514    0.3279814911    0.8001986054
H       -1.0637964006    1.8218941947   -1.2092389750
C        0.1467154053   -0.4022628063    1.1038276730
H        0.2269237054   -0.7726990451    2.1196822387
