
Running Job 1 of 1 irc_reactant.in
qchem irc_reactant.in_39250.0 ./irc_reactant.d/ 1
/home/leeping/opt/qchem/5.0.2-openmp/exe/qcprog.exe_s irc_reactant.in_39250.0 ./irc_reactant.d/
Check license passed

                  Welcome to Q-Chem
     A Quantum Leap Into The Future Of Chemistry


 Q-Chem 5.0, Q-Chem, Inc., Pleasanton, CA (2017)

 Yihan Shao,  Zhengting Gan,  E. Epifanovsky,  A. T. B. Gilbert,  M. Wormit,  
 J. Kussmann,  A. W. Lange,  A. Behn,  Jia Deng,  Xintian Feng,  D. Ghosh,  
 M. Goldey,  P. R. Horn,  L. D. Jacobson,  I. Kaliman,  T. Kus,  A. Landau,  
 Jie Liu,  E. I. Proynov,  R. M. Richard,  R. P. Steele,  E. J. Sundstrom,  
 H. L. Woodcock III,  P. M. Zimmerman,  D. Zuev,  B. Albrecht,  E. Alguire,  
 S. A. Baeppler,  D. Barton,  Z. Benda,  Y. A. Bernard,  E. J. Berquist,  
 K. B. Bravaya,  H. Burton,  D. Casanova,  Chun-Min Chang,  Yunqing Chen,  
 A. Chien,  K. D. Closser,  M. P. Coons,  S. Dasgupta,  A. L. Dempwolff,  
 M. Diedenhofen,  Hainam Do,  R. G. Edgar,  Po-Tung Fang,  S. Fatehi,  
 Qingguo Feng,  J. Fosso-Tande,  Qinghui Ge,  A. Ghysels,  G. Gidofalvi,  
 J. Gomes,  J. Gonthier,  A. Gunina,  M. W. D. Hanson-Heine,  
 P. H. P. Harbach,  A. W. Hauser,  J. E. Herr,  E. G. Hohenstein,  
 Z. C. Holden,  Kerwin Hui,  T.-C. Jagau,  Hyunjun Ji,  B. Kaduk,  
 K. Khistyaev,  Jaehoon Kim,  P. Klunzinger,  K. Koh,  D. Kosenkov,  
 L. Koulias,  T. Kowalczyk,  C. M. Krauter,  A. Kunitsa,  Ka Un Lao,  
 A. Laurent,  K. V. Lawler,  Joonho Lee,  D. Lefrancois,  S. Lehtola,  
 D. S. Levine,  Yi-Pei Li,  You-Sheng Lin,  Fenglai Liu,  E. Livshits,  
 A. Luenser,  P. Manohar,  E. Mansoor,  S. F. Manzer,  Shan-Ping Mao,  
 Yuezhi Mao,  N. Mardirossian,  A. V. Marenich,  T. Markovich,  
 L. A. Martinez-Martinez,  S. A. Maurer,  N. J. Mayhall,  S. C. McKenzie,  
 J.-M. Mewes,  A. F. Morrison,  J. W. Mullinax,  K. Nanda,  
 T. S. Nguyen-Beck,  R. Olivares-Amaya,  J. A. Parkhill,  T. M. Perrine,  
 F. Plasser,  S. Prager,  A. Prociuk,  E. Ramos,  D. R. Rehn,  F. Rob,  
 M. Schneider,  N. Sergueev,  S. M. Sharada,  S. Sharma,  D. W. Small,  
 T. Stauch,  T. Stein,  Yu-Chuan Su,  A. J. W. Thom,  A. Tkatchenko,  
 T. Tsuchimochi,  L. Vogt,  O. Vydrov,  M. A. Watson,  J. Wenzel,  
 M. de Wergifosse,  T. A. Wesolowski,  A. White,  J. Witte,  A. Yamada,  
 Jun Yang,  K. Yao,  S. Yeganeh,  S. R. Yost,  Zhi-Qiang You,  A. Zech,  
 Igor Ying Zhang,  Xing Zhang,  Yan Zhao,  Ying Zhu,  B. R. Brooks,  
 G. K. L. Chan,  C. J. Cramer,  M. S. Gordon,  W. J. Hehre,  A. Klamt,  
 M. W. Schmidt,  C. D. Sherrill,  D. G. Truhlar,  A. Aspuru-Guzik,  R. Baer,  
 A. T. Bell,  N. A. Besley,  Jeng-Da Chai,  R. A. DiStasio Jr.,  A. Dreuw,  
 B. D. Dunietz,  T. R. Furlani,  Chao-Ping Hsu,  Yousung Jung,  Jing Kong,  
 D. S. Lambrecht,  WanZhen Liang,  C. Ochsenfeld,  V. A. Rassolov,  
 L. V. Slipchenko,  J. E. Subotnik,  T. Van Voorhis,  J. M. Herbert,  
 A. I. Krylov,  P. M. W. Gill,  M. Head-Gordon

 Contributors to earlier versions of Q-Chem not listed above: 
 R. D. Adamson,  B. Austin,  J. Baker,  G. J. O. Beran,  K. Brandhorst,  
 S. T. Brown,  E. F. C. Byrd,  A. K. Chakraborty,  C.-L. Cheng,  
 Siu Hung Chien,  D. M. Chipman,  D. L. Crittenden,  H. Dachsel,  
 R. J. Doerksen,  A. D. Dutoi,  L. Fusti-Molnar,  W. A. Goddard III,  
 A. Golubeva-Zadorozhnaya,  S. R. Gwaltney,  G. Hawkins,  A. Heyden,  
 S. Hirata,  G. Kedziora,  F. J. Keil,  C. Kelley,  Jihan Kim,  R. A. King,  
 R. Z. Khaliullin,  P. P. Korambath,  W. Kurlancheek,  A. M. Lee,  M. S. Lee,  
 S. V. Levchenko,  Ching Yeh Lin,  D. Liotard,  R. C. Lochan,  I. Lotan,  
 P. E. Maslen,  N. Nair,  D. P. O'Neill,  D. Neuhauser,  E. Neuscamman,  
 C. M. Oana,  R. Olson,  B. Peters,  R. Peverati,  P. A. Pieniazek,  
 Y. M. Rhee,  J. Ritchie,  M. A. Rohrdanz,  E. Rosta,  N. J. Russ,  
 H. F. Schaefer III,  N. E. Schultz,  N. Shenvi,  A. C. Simmonett,  A. Sodt,  
 D. Stuck,  K. S. Thanthiriwatte,  V. Vanovschi,  Tao Wang,  A. Warshel,  
 C. F. Williams,  Q. Wu,  X. Xu,  W. Zhang

 Please cite Q-Chem as follows:
 Y. Shao et al., Mol. Phys. 113, 184-215 (2015)
 DOI: 10.1080/00268976.2014.952696

 Q-Chem 5.0.2 for Intel X86 EM64T Linux

 Parts of Q-Chem use Armadillo 5.200.1 (Boston Tea Smuggler).
 http://arma.sourceforge.net/

 Q-Chem begins on Wed Mar  2 09:35:02 2022  

Host: 
0

     Scratch files written to ./irc_reactant.d//
 Dec517 15110_ 26548  26544 5633   
Processing $rem in /home/leeping/opt/qchem/5.0.2-openmp/config/preferences.
 MEM_STATIC 2000
 MEM_TOTAL  8000
 SYMMETRY   OFF
 SYM_IGNORE TRUE 

Checking the input file for inconsistencies... 	...done.

--------------------------------------------------------------
User input:
--------------------------------------------------------------
$molecule
0 2
C        1.6806220490    0.4064389654   -0.1596845201
C        1.1335791003   -0.8278867552   -0.2626938280
C       -0.3067691375   -1.0694230393   -0.0886928063
C       -1.1622985611    0.3248777942    0.0410068280
C       -0.3382750323    1.5316444022   -0.1462829207
N        0.9507733155    1.5951832289   -0.1467868137
H        2.7561286000    0.5415924400   -0.2233136675
H        1.7630345620   -1.6821874092   -0.4978504089
H       -0.7381328327   -1.9104105128   -0.6337059307
H       -2.1665022145    0.3852148665   -0.3820983531
H       -0.8793018298    2.4560415369   -0.3584331341
C       -0.9654562855   -0.6261488044    1.1361771961
H       -1.7274017331   -1.1249367133    1.7223583585
$end

$rem
method                b3lyp
basis                 6-31+g(d,p)
unrestricted          true
symmetry              off
sym_ignore            true
incdft                false
incfock               0
scf_convergence       8
thresh                14
jobtype               sp
scf_guess             read
scf_algorithm         diis
max_scf_cycles        100
scf_final_print       1
$end

--------------------------------------------------------------
 ----------------------------------------------------------------
             Standard Nuclear Orientation (Angstroms)
    I     Atom           X                Y                Z
 ----------------------------------------------------------------
    1      C       1.6806220490     0.4064389654    -0.1596845201
    2      C       1.1335791003    -0.8278867552    -0.2626938280
    3      C      -0.3067691375    -1.0694230393    -0.0886928063
    4      C      -1.1622985611     0.3248777942     0.0410068280
    5      C      -0.3382750323     1.5316444022    -0.1462829207
    6      N       0.9507733155     1.5951832289    -0.1467868137
    7      H       2.7561286000     0.5415924400    -0.2233136675
    8      H       1.7630345620    -1.6821874092    -0.4978504089
    9      H      -0.7381328327    -1.9104105128    -0.6337059307
   10      H      -2.1665022145     0.3852148665    -0.3820983531
   11      H      -0.8793018298     2.4560415369    -0.3584331341
   12      C      -0.9654562855    -0.6261488044     1.1361771961
   13      H      -1.7274017331    -1.1249367133     1.7223583585
 ----------------------------------------------------------------
 Nuclear Repulsion Energy =   268.9410504406 hartrees
 There are       25 alpha and       24 beta electrons
 Requested basis set is 6-31+G(d,p)
 There are 53 shells and 163 basis functions

 Total QAlloc Memory Limit   8000 MB
 Mega-Array Size      1956 MB
 MEM_STATIC part      2000 MB

                       Distance Matrix (Angstroms)
             C (  1)   C (  2)   C (  3)   C (  4)   C (  5)   N (  6)
   C (  2)  1.354041
   C (  3)  2.476476  1.470789
   C (  4)  2.851162  2.586920  1.640984
   C (  5)  2.311323  2.783396  2.601896  1.473220
   N (  6)  1.394976  2.432719  2.947018  2.472653  1.290613
   H (  7)  1.085831  2.123603  3.463356  3.933307  3.249842  2.091702
   H (  8)  2.117430  1.086896  2.197038  3.588349  3.855881  3.394727
   H (  9)  3.382730  2.193812  1.091043  2.373114  3.499316  3.921566
   H ( 10)  3.853607  3.518012  2.379215  1.091368  2.170789  3.352134
   H ( 11)  3.285359  3.852926  3.581823  2.186664  1.091892  2.033481
   C ( 12)  3.122055  2.530511  1.459681  1.463761  2.587302  3.201913
   H ( 13)  4.183518  3.494837  2.302430  2.290905  3.532551  4.250339
             H (  7)   H (  8)   H (  9)   H ( 10)   H ( 11)   C ( 12)
   H (  8)  2.450878
   H (  9)  4.288427  2.515230
   H ( 10)  4.927673  4.441713  2.715408
   H ( 11)  4.110928  4.911855  4.377397  2.438395
   C ( 12)  4.130621  3.351108  2.198520  2.184154  3.426541
   H ( 13)  5.163817  4.174087  2.673324  2.627186  4.227573  1.083032

 
 A cutoff of  1.0D-14 yielded   1381 shell pairs
 There are     13441 function pairs
 
 -------------------------------------------------------
 OpenMP Integral Computing Module                       
 Release: version 1.0, May 2013, Q-Chem Inc. Pittsburgh 
 -------------------------------------------------------
 Integral Job Info:
 Integral job number is                      11
 Integral operator is                         1
 short-range coefficients                     0
 long-range coefficients              100000000
 Omega coefficients                           0
 if combine SR and LR in K                    0
 Integral screening is                        0
 Integral computing path is                   2
 max size of driver memory is            800000
 size of driver memory is                593474
 size of scratch memory is              2361544
 max col of scratch BK array               1296
 max len of scratch array in speh3          155
 max len of scratch index in speh4           18
 max int batch size is                      520
 min int batch size is                       52
 fixed nKL is                                52
 max L of basis functions is                  2
 order of int derivative is                   0
 number of shells is                         53
 number of basis is                         163
 number of cartesian basis is               163
 number of contracted shell pairs          1381
 number of primitive shell pairs           4682
 maxK2 (contraction) of shell pair           36
 max number of K2 of shell pair               1
 max number of CS2 of shell pair            128
 max number of PS2 of shell pair            684
 mem total for path MDJ                  535308
 -------------------------------------------------------
 Smallest overlap matrix eigenvalue = 2.89E-05

 Scale SEOQF with 1.000000e-01/1.000000e-01/1.000000e-01

 Standard Electronic Orientation quadrupole field applied
 Nucleus-field energy     =     0.0000000054 hartrees
 Guess MOs from SCF MO coefficient file
 Reading MOs from coefficient file
 Reading MOs from coefficient file
 An unrestricted hybrid HF-DFT SCF calculation will be
 performed using Pulay DIIS extrapolation
 Exchange:     0.2000 Hartree-Fock + 0.0800 Slater + 0.7200 B88
 Correlation:  0.1900 VWN1RPA + 0.8100 LYP
 Using SG-1 standard quadrature grid
 SCF converges when DIIS error is below 1.0E-08
Using Q-Chem read-in guess as SCF_GUESS READ specified.

 using 4 threads for integral computing
 -------------------------------------------------------
 OpenMP Integral computing Module                
 Release: version 1.0, May 2013, Q-Chem Inc. Pittsburgh 
 -------------------------------------------------------
 -------------------------------------------------------
 OpenMP BLAS3 based DFT computing Module                
 Release: version 1.0, May 2013, Q-Chem Inc. Pittsburgh 
 -------------------------------------------------------
 ---------------------------------------
  Cycle       Energy         DIIS Error
 ---------------------------------------
    1    -286.8764961208      2.86E-09
    2    -286.8764961208      4.33E-09 Convergence criterion met
 ---------------------------------------
 One-Electron    Energy =  -918.1296117282
 Total Coulomb   Energy =   403.9247206675
 Alpha Exchange  Energy =    -4.0190661055
 Beta  Exchange  Energy =    -3.9266853127
 DFT   Exchange  Energy =   -31.5634999210
 DFT Correlation Energy =    -2.1034041669
 Nuclear Repu.   Energy =   268.9410504460
 Nuclear Attr.   Energy = -1202.2152024842
 Kinetic         Energy =   284.0855907560
 <S^2> = 0.7534
 SCF time:  CPU 10.56 s  wall 10.83 s
 Final Alpha MO Eigenvalues
            1           2           3           4           5           6
    1 -14.3365790 -10.2402571 -10.2350980 -10.2318651 -10.2301526 -10.2171885
            7           8           9          10          11          12
    1 -10.2059236  -0.9456101  -0.8782997  -0.7759866  -0.6773426  -0.6512835
           13          14          15          16          17          18
    1  -0.5790258  -0.5401830  -0.4998017  -0.4920947  -0.4601713  -0.4350296
           19          20          21          22          23          24
    1  -0.3867325  -0.3821358  -0.3701470  -0.3094172  -0.2670739  -0.2401733
           25          26          27          28          29          30
    1  -0.2288928  -0.0480781  -0.0014666   0.0151994   0.0220978   0.0258669
 Final Beta MO Eigenvalues
            1           2           3           4           5           6
    1 -14.3365477 -10.2395686 -10.2352080 -10.2318940 -10.2174008 -10.2162141
            7           8           9          10          11          12
    1 -10.2048656  -0.9437685  -0.8685047  -0.7738852  -0.6695798  -0.6491356
           13          14          15          16          17          18
    1  -0.5648310  -0.5351906  -0.4968697  -0.4825165  -0.4560286  -0.4320247
           19          20          21          22          23          24
    1  -0.3851024  -0.3798641  -0.3624044  -0.3000061  -0.2620655  -0.2362277
           25          26          27          28          29
    1  -0.0904498  -0.0455900   0.0007811   0.0151543   0.0236122
 SCF   energy in the final basis set = -286.87649612
 Total energy in the final basis set = -286.87649612
 
 --------------------------------------------------------------
 
                    Orbital Energies (a.u.)
 --------------------------------------------------------------
 
 Alpha MOs
 -- Occupied --
-14.337 -10.240 -10.235 -10.232 -10.230 -10.217 -10.206  -0.946
 -0.878  -0.776  -0.677  -0.651  -0.579  -0.540  -0.500  -0.492
 -0.460  -0.435  -0.387  -0.382  -0.370  -0.309  -0.267  -0.240
 -0.229
 -- Virtual --
 -0.048  -0.001   0.015   0.022   0.026   0.032   0.047   0.050
  0.068   0.073   0.075   0.092   0.099   0.113   0.116   0.121
  0.124   0.129   0.138   0.148   0.168   0.175   0.180   0.185
  0.193   0.198   0.202   0.212   0.225   0.233   0.253   0.261
  0.268   0.283   0.288   0.301   0.310   0.321   0.329   0.336
  0.353   0.385   0.463   0.505   0.592   0.628   0.649   0.666
  0.681   0.708   0.713   0.725   0.737   0.750   0.770   0.778
  0.825   0.835   0.883   0.897   0.927   0.935   0.950   0.986
  0.993   1.016   1.062   1.088   1.098   1.107   1.134   1.150
  1.183   1.205   1.239   1.311   1.350   1.372   1.441   1.476
  1.500   1.524   1.555   1.647   1.689   1.757   1.799   1.806
  1.865   1.881   1.903   1.960   1.983   2.007   2.080   2.089
  2.127   2.148   2.188   2.229   2.269   2.290   2.369   2.390
  2.405   2.417   2.436   2.454   2.476   2.505   2.520   2.528
  2.559   2.594   2.626   2.667   2.698   2.717   2.740   2.811
  2.867   2.935   3.013   3.180   3.217   3.278   3.293   3.369
  3.440   3.562   3.709   4.196   4.301   4.339   4.475   4.500
  4.576   4.734
 
 Beta MOs
 -- Occupied --
-14.337 -10.240 -10.235 -10.232 -10.217 -10.216 -10.205  -0.944
 -0.869  -0.774  -0.670  -0.649  -0.565  -0.535  -0.497  -0.483
 -0.456  -0.432  -0.385  -0.380  -0.362  -0.300  -0.262  -0.236
 -- Virtual --
 -0.090  -0.046   0.001   0.015   0.024   0.027   0.033   0.048
  0.050   0.072   0.074   0.078   0.094   0.099   0.113   0.116
  0.122   0.125   0.130   0.138   0.149   0.168   0.176   0.183
  0.188   0.193   0.201   0.206   0.213   0.228   0.235   0.257
  0.262   0.270   0.284   0.292   0.302   0.311   0.325   0.335
  0.341   0.360   0.392   0.465   0.507   0.597   0.633   0.664
  0.675   0.693   0.710   0.715   0.729   0.743   0.751   0.779
  0.791   0.830   0.840   0.885   0.899   0.928   0.937   0.952
  0.990   0.997   1.017   1.070   1.090   1.100   1.112   1.139
  1.152   1.186   1.209   1.244   1.315   1.352   1.375   1.449
  1.480   1.501   1.528   1.562   1.653   1.694   1.774   1.803
  1.816   1.883   1.889   1.907   1.967   1.987   2.012   2.087
  2.099   2.128   2.166   2.193   2.232   2.272   2.295   2.371
  2.393   2.407   2.420   2.439   2.458   2.480   2.508   2.523
  2.534   2.562   2.609   2.628   2.670   2.706   2.723   2.747
  2.818   2.873   2.940   3.017   3.181   3.217   3.283   3.294
  3.371   3.444   3.571   3.710   4.196   4.305   4.340   4.497
  4.510   4.578   4.735
 --------------------------------------------------------------
 
          Ground-State Mulliken Net Atomic Charges

     Atom                 Charge (a.u.)    Spin (a.u.)
  --------------------------------------------------------
      1 C                    -0.252481      -0.035504
      2 C                     0.086116       0.046458
      3 C                    -0.150086      -0.026442
      4 C                    -0.016120       0.028737
      5 C                    -0.054804      -0.047934
      6 N                    -0.182012       0.016326
      7 H                     0.124951       0.000846
      8 H                     0.132705       0.003088
      9 H                     0.144287       0.017131
     10 H                     0.144233       0.022664
     11 H                     0.128448       0.005043
     12 C                    -0.253929       0.991457
     13 H                     0.148691      -0.021870
  --------------------------------------------------------
  Sum of atomic charges =    -0.000000
  Sum of spin   charges =     1.000000

 -----------------------------------------------------------------
                    Cartesian Multipole Moments
 -----------------------------------------------------------------
    Charge (ESU x 10^10)
                -0.0000
    Dipole Moment (Debye)
         X      -2.1511      Y      -2.2463      Z      -0.3603
       Tot       3.1310
    Quadrupole Moments (Debye-Ang)
        XX     -37.9190     XY      -3.2343     YY     -43.0356
        XZ      -0.4922     YZ       0.2794     ZZ     -43.9383
    Octopole Moments (Debye-Ang^2)
       XXX     -14.0874    XXY     -11.2306    XYY     -15.4391
       YYY     -31.2537    XXZ      -1.7425    XYZ       3.5625
       YYZ      -3.1726    XZZ      -8.8630    YZZ      -8.6331
       ZZZ      -4.4762
    Hexadecapole Moments (Debye-Ang^3)
      XXXX    -339.0524   XXXY     -20.3428   XXYY    -122.1838
      XYYY     -46.2939   YYYY    -358.8583   XXXZ      30.0619
      XXYZ       3.6614   XYYZ      11.9251   YYYZ      20.5772
      XXZZ     -81.4446   XYZZ      -3.3300   YYZZ     -78.2161
      XZZZ      32.2318   YZZZ      15.0277   ZZZZ    -120.2837
 -----------------------------------------------------------------
 Mayer SCF Bond Order, atomic valence on the diagonal:

            1           2           3           4           5           6
    1   4.0387012   1.7167046   0.1083532  -0.0149249   0.0771641   1.1386386
    2   1.7167046   3.7416741   1.0783042   0.0003025   0.0402931  -0.1167365
    3   0.1083532   1.0783042   4.0121900   0.7172073   0.1148580   0.0628529
    4  -0.0149249   0.0003025   0.7172073   3.6371400   0.9814042  -0.0539494
    5   0.0771641   0.0402931   0.1148580   0.9814042   3.8238352   1.6406745
    6   1.1386386  -0.1167365   0.0628529  -0.0539494   1.6406745   2.6842250
    7   0.9734429  -0.0257478   0.0294844  -0.0040352   0.0091661  -0.0388256
    8   0.0431289   0.8649731   0.0099318   0.0110725   0.0013669   0.0116870
    9  -0.0034785   0.0423462   0.7903920   0.0722312  -0.0164649   0.0031850
   10  -0.0009848   0.0000794   0.0476186   0.8173438   0.0169892   0.0117717
   11   0.0123631  -0.0019985   0.0176449  -0.0493093   0.9862009  -0.0340834
   12  -0.0158663   0.1386432   1.0062979   1.1365208  -0.0396400   0.0553906
   13   0.0041603   0.0045107   0.0292448   0.0232766   0.0118230   0.0036196
            7           8           9          10          11          12
    1   0.9734429   0.0431289  -0.0034785  -0.0009848   0.0123631  -0.0158663
    2  -0.0257478   0.8649731   0.0423462   0.0000794  -0.0019985   0.1386432
    3   0.0294844   0.0099318   0.7903920   0.0476186   0.0176449   1.0062979
    4  -0.0040352   0.0110725   0.0722312   0.8173438  -0.0493093   1.1365208
    5   0.0091661   0.0013669  -0.0164649   0.0169892   0.9862009  -0.0396400
    6  -0.0388256   0.0116870   0.0031850   0.0117717  -0.0340834   0.0553906
    7   0.9467509   0.0007165   0.0016202   0.0000501   0.0013790  -0.0005818
    8   0.0007165   0.9543037   0.0004466   0.0010227   0.0001618   0.0095861
    9   0.0016202   0.0004466   0.9467673   0.0010652   0.0008904   0.0538334
   10   0.0000501   0.0010227   0.0010652   0.9492829   0.0000991   0.0534123
   11   0.0013790   0.0001618   0.0008904   0.0000991   0.9423596   0.0088148
   12  -0.0005818   0.0095861   0.0538334   0.0534123   0.0088148   3.2827076
   13   0.0000821   0.0002098   0.0007005   0.0008155   0.0001967   0.8762967
           13
    1   0.0041603
    2   0.0045107
    3   0.0292448
    4   0.0232766
    5   0.0118230
    6   0.0036196
    7   0.0000821
    8   0.0002098
    9   0.0007005
   10   0.0008155
   11   0.0001967
   12   0.8762967
   13   0.9549362


Archival summary:
1\1\c8-73\SP\ProcedureUnspecified\6-31+G**\166(2)\hpark21\WedMar209:35:252022WedMar209:35:252022\0\\#,ProcedureUnspecified,6-31+G**,\\0,2\N\C,1,1.29061\H,2,1.09189,1,116.945\C,1,1.39498,2,118.726,3,-166.807,0\H,4,1.08583,1,114.374,2,176.287,0\C,4,1.35404,1,124.482,2,4.66547,0\H,6,1.0869,4,119.933,1,165.727,0\C,6,1.47079,4,122.435,1,-13.2567,0\H,8,1.09104,6,117.044,4,150.854,0\C,8,1.45968,6,119.427,4,-54.9775,0\H,10,1.08303,8,129.182,6,-140.138,0\C,10,1.46376,8,68.294,6,98.3985,0\H,12,1.09137,10,116.726,8,109.208,0\\\@

 Total job time:  23.45s(wall), 12.46s(cpu) 
 Wed Mar  2 09:35:26 2022

        *************************************************************
        *                                                           *
        *  Thank you very much for using Q-Chem.  Have a nice day.  *
        *                                                           *
        *************************************************************


