
Running Job 1 of 1 qcirc.in
qchem qcirc.in_15777.0 ./qcirc.d/ 1
/home/leeping/opt/qchem/5.0.2-openmp/exe/qcprog.exe_s qcirc.in_15777.0 ./qcirc.d/
Check license passed

                  Welcome to Q-Chem
     A Quantum Leap Into The Future Of Chemistry


 Q-Chem 5.0, Q-Chem, Inc., Pleasanton, CA (2017)

 Yihan Shao,  Zhengting Gan,  E. Epifanovsky,  A. T. B. Gilbert,  M. Wormit,  
 J. Kussmann,  A. W. Lange,  A. Behn,  Jia Deng,  Xintian Feng,  D. Ghosh,  
 M. Goldey,  P. R. Horn,  L. D. Jacobson,  I. Kaliman,  T. Kus,  A. Landau,  
 Jie Liu,  E. I. Proynov,  R. M. Richard,  R. P. Steele,  E. J. Sundstrom,  
 H. L. Woodcock III,  P. M. Zimmerman,  D. Zuev,  B. Albrecht,  E. Alguire,  
 S. A. Baeppler,  D. Barton,  Z. Benda,  Y. A. Bernard,  E. J. Berquist,  
 K. B. Bravaya,  H. Burton,  D. Casanova,  Chun-Min Chang,  Yunqing Chen,  
 A. Chien,  K. D. Closser,  M. P. Coons,  S. Dasgupta,  A. L. Dempwolff,  
 M. Diedenhofen,  Hainam Do,  R. G. Edgar,  Po-Tung Fang,  S. Fatehi,  
 Qingguo Feng,  J. Fosso-Tande,  Qinghui Ge,  A. Ghysels,  G. Gidofalvi,  
 J. Gomes,  J. Gonthier,  A. Gunina,  M. W. D. Hanson-Heine,  
 P. H. P. Harbach,  A. W. Hauser,  J. E. Herr,  E. G. Hohenstein,  
 Z. C. Holden,  Kerwin Hui,  T.-C. Jagau,  Hyunjun Ji,  B. Kaduk,  
 K. Khistyaev,  Jaehoon Kim,  P. Klunzinger,  K. Koh,  D. Kosenkov,  
 L. Koulias,  T. Kowalczyk,  C. M. Krauter,  A. Kunitsa,  Ka Un Lao,  
 A. Laurent,  K. V. Lawler,  Joonho Lee,  D. Lefrancois,  S. Lehtola,  
 D. S. Levine,  Yi-Pei Li,  You-Sheng Lin,  Fenglai Liu,  E. Livshits,  
 A. Luenser,  P. Manohar,  E. Mansoor,  S. F. Manzer,  Shan-Ping Mao,  
 Yuezhi Mao,  N. Mardirossian,  A. V. Marenich,  T. Markovich,  
 L. A. Martinez-Martinez,  S. A. Maurer,  N. J. Mayhall,  S. C. McKenzie,  
 J.-M. Mewes,  A. F. Morrison,  J. W. Mullinax,  K. Nanda,  
 T. S. Nguyen-Beck,  R. Olivares-Amaya,  J. A. Parkhill,  T. M. Perrine,  
 F. Plasser,  S. Prager,  A. Prociuk,  E. Ramos,  D. R. Rehn,  F. Rob,  
 M. Schneider,  N. Sergueev,  S. M. Sharada,  S. Sharma,  D. W. Small,  
 T. Stauch,  T. Stein,  Yu-Chuan Su,  A. J. W. Thom,  A. Tkatchenko,  
 T. Tsuchimochi,  L. Vogt,  O. Vydrov,  M. A. Watson,  J. Wenzel,  
 M. de Wergifosse,  T. A. Wesolowski,  A. White,  J. Witte,  A. Yamada,  
 Jun Yang,  K. Yao,  S. Yeganeh,  S. R. Yost,  Zhi-Qiang You,  A. Zech,  
 Igor Ying Zhang,  Xing Zhang,  Yan Zhao,  Ying Zhu,  B. R. Brooks,  
 G. K. L. Chan,  C. J. Cramer,  M. S. Gordon,  W. J. Hehre,  A. Klamt,  
 M. W. Schmidt,  C. D. Sherrill,  D. G. Truhlar,  A. Aspuru-Guzik,  R. Baer,  
 A. T. Bell,  N. A. Besley,  Jeng-Da Chai,  R. A. DiStasio Jr.,  A. Dreuw,  
 B. D. Dunietz,  T. R. Furlani,  Chao-Ping Hsu,  Yousung Jung,  Jing Kong,  
 D. S. Lambrecht,  WanZhen Liang,  C. Ochsenfeld,  V. A. Rassolov,  
 L. V. Slipchenko,  J. E. Subotnik,  T. Van Voorhis,  J. M. Herbert,  
 A. I. Krylov,  P. M. W. Gill,  M. Head-Gordon

 Contributors to earlier versions of Q-Chem not listed above: 
 R. D. Adamson,  B. Austin,  J. Baker,  G. J. O. Beran,  K. Brandhorst,  
 S. T. Brown,  E. F. C. Byrd,  A. K. Chakraborty,  C.-L. Cheng,  
 Siu Hung Chien,  D. M. Chipman,  D. L. Crittenden,  H. Dachsel,  
 R. J. Doerksen,  A. D. Dutoi,  L. Fusti-Molnar,  W. A. Goddard III,  
 A. Golubeva-Zadorozhnaya,  S. R. Gwaltney,  G. Hawkins,  A. Heyden,  
 S. Hirata,  G. Kedziora,  F. J. Keil,  C. Kelley,  Jihan Kim,  R. A. King,  
 R. Z. Khaliullin,  P. P. Korambath,  W. Kurlancheek,  A. M. Lee,  M. S. Lee,  
 S. V. Levchenko,  Ching Yeh Lin,  D. Liotard,  R. C. Lochan,  I. Lotan,  
 P. E. Maslen,  N. Nair,  D. P. O'Neill,  D. Neuhauser,  E. Neuscamman,  
 C. M. Oana,  R. Olson,  B. Peters,  R. Peverati,  P. A. Pieniazek,  
 Y. M. Rhee,  J. Ritchie,  M. A. Rohrdanz,  E. Rosta,  N. J. Russ,  
 H. F. Schaefer III,  N. E. Schultz,  N. Shenvi,  A. C. Simmonett,  A. Sodt,  
 D. Stuck,  K. S. Thanthiriwatte,  V. Vanovschi,  Tao Wang,  A. Warshel,  
 C. F. Williams,  Q. Wu,  X. Xu,  W. Zhang

 Please cite Q-Chem as follows:
 Y. Shao et al., Mol. Phys. 113, 184-215 (2015)
 DOI: 10.1080/00268976.2014.952696

 Q-Chem 5.0.2 for Intel X86 EM64T Linux

 Parts of Q-Chem use Armadillo 5.200.1 (Boston Tea Smuggler).
 http://arma.sourceforge.net/

 Q-Chem begins on Wed Mar  2 03:58:13 2022  

Host: 
0

     Scratch files written to ./qcirc.d//
 Dec517 15110_ 26548  26544 5633   
Processing $rem in /home/leeping/opt/qchem/5.0.2-openmp/config/preferences.
 MEM_STATIC 2000
 MEM_TOTAL  8000
 SYMMETRY   OFF
 SYM_IGNORE TRUE 

Checking the input file for inconsistencies... 	...done.

--------------------------------------------------------------
User input:
--------------------------------------------------------------
$molecule
0 2
C        1.3671138301    0.2915646631    0.2562294130
C        1.0306215280   -0.8469022956   -0.5697244840
C       -0.3971554733   -1.0280557654   -0.3809151903
C       -1.1309559008    0.3430063874    0.0255971610
C       -0.3915608927    1.5466501493   -0.3801693408
N        0.8740001741    1.5430637700   -0.1562367706
H        2.3212675781    0.3393828639    0.7774155469
H        1.7130595547   -1.6632018612   -0.7776282900
H       -0.9928724149   -1.8263145952   -0.8142595419
H       -2.2177655313    0.3343249773   -0.0354882777
H       -0.8648030414    2.3857034573   -0.8861017238
C       -0.4558275421   -0.4897744040    1.0334147233
H       -0.9008636479   -0.9548860878    1.9111796187
$end

$rem
method                b3lyp
basis                 6-31+g(d,p)
unrestricted          true
symmetry              off
sym_ignore            true
incdft                false
incfock               0
scf_convergence       8
thresh                14
jobtype               rpath
scf_guess             core
scf_guess_mix         5
scf_algorithm         diis
max_scf_cycles        100
rpath_direction       1
rpath_tol_displacement 1000
rpath_max_cycles      50
geom_opt_max_cycles   300
geom_opt_hessian      read
$end

--------------------------------------------------------------
 ----------------------------------------------------------------
             Standard Nuclear Orientation (Angstroms)
    I     Atom           X                Y                Z
 ----------------------------------------------------------------
    1      C       1.3671138301     0.2915646631     0.2562294130
    2      C       1.0306215280    -0.8469022956    -0.5697244840
    3      C      -0.3971554733    -1.0280557654    -0.3809151903
    4      C      -1.1309559008     0.3430063874     0.0255971610
    5      C      -0.3915608927     1.5466501493    -0.3801693408
    6      N       0.8740001741     1.5430637700    -0.1562367706
    7      H       2.3212675781     0.3393828639     0.7774155469
    8      H       1.7130595547    -1.6632018612    -0.7776282900
    9      H      -0.9928724149    -1.8263145952    -0.8142595419
   10      H      -2.2177655313     0.3343249773    -0.0354882777
   11      H      -0.8648030414     2.3857034573    -0.8861017238
   12      C      -0.4558275421    -0.4897744040     1.0334147233
   13      H      -0.9008636479    -0.9548860878     1.9111796187
 ----------------------------------------------------------------
 Nuclear Repulsion Energy =   276.9186605705 hartrees
 There are       25 alpha and       24 beta electrons
 Requested basis set is 6-31+G(d,p)
 There are 53 shells and 163 basis functions

 Total QAlloc Memory Limit   8000 MB
 Mega-Array Size      1956 MB
 MEM_STATIC part      2000 MB
 Starting direction for rxn path = 1

                       Distance Matrix (Angstroms)
             C (  1)   C (  2)   C (  3)   C (  4)   C (  5)   N (  6)
   C (  2)  1.446214
   C (  3)  2.293468  1.451555
   C (  4)  2.509221  2.538249  1.607335
   C (  5)  2.252372  2.790632  2.574712  1.469731
   N (  6)  1.406961  2.430523  2.876973  2.343726  1.285225
   H (  7)  1.088270  2.210843  3.255986  3.533142  3.186995  2.101223
   H (  8)  2.238225  1.084108  2.239151  3.571900  3.858828  3.371986
   H (  9)  3.346774  2.261321  1.086224  2.330318  3.453535  3.907802
   H ( 10)  3.596983  3.497531  2.300005  1.088560  2.218910  3.321844
   H ( 11)  3.266771  3.760647  3.482479  2.252697  1.088088  2.065474
   C ( 12)  2.130170  2.215203  1.514437  1.471400  2.479793  2.704837
   H ( 13)  3.071843  3.145978  2.347930  2.300628  3.430358  3.696499
             H (  7)   H (  8)   H (  9)   H ( 10)   H ( 11)   C ( 12)
   H (  8)  2.607379
   H (  9)  4.266989  2.711091
   H ( 10)  4.611254  4.471272  2.602924
   H ( 11)  4.135911  4.801122  4.214577  2.600424
   C ( 12)  2.909518  3.059556  2.342788  2.219486  3.481404
   H ( 13)  3.652764  3.816280  2.862843  2.680636  4.357249  1.088511

 
 A cutoff of  1.0D-14 yielded   1398 shell pairs
 There are     13492 function pairs
 
 -------------------------------------------------------
 OpenMP Integral Computing Module                       
 Release: version 1.0, May 2013, Q-Chem Inc. Pittsburgh 
 -------------------------------------------------------
 Integral Job Info:
 Integral job number is                      11
 Integral operator is                         1
 short-range coefficients                     0
 long-range coefficients              100000000
 Omega coefficients                           0
 if combine SR and LR in K                    0
 Integral screening is                        0
 Integral computing path is                   2
 max size of driver memory is            800000
 size of driver memory is                593474
 size of scratch memory is              2361544
 max col of scratch BK array               1296
 max len of scratch array in speh3          155
 max len of scratch index in speh4           18
 max int batch size is                      520
 min int batch size is                       52
 fixed nKL is                                52
 max L of basis functions is                  2
 order of int derivative is                   0
 number of shells is                         53
 number of basis is                         163
 number of cartesian basis is               163
 number of contracted shell pairs          1398
 number of primitive shell pairs           4787
 maxK2 (contraction) of shell pair           36
 max number of K2 of shell pair               1
 max number of CS2 of shell pair            126
 max number of PS2 of shell pair            678
 mem total for path MDJ                  535308
 -------------------------------------------------------
 Smallest overlap matrix eigenvalue = 2.82E-05

 Scale SEOQF with 1.000000e-01/1.000000e-01/1.000000e-01

 Standard Electronic Orientation quadrupole field applied
 Nucleus-field energy     =     0.0000000040 hartrees
 Guess MOs from core Hamiltonian diagonalization
 Mixing HOMO and LUMO in initial guess
 Adding  50% of the LUMO to the HOMO
 An unrestricted hybrid HF-DFT SCF calculation will be
 performed using Pulay DIIS extrapolation
 Exchange:     0.2000 Hartree-Fock + 0.0800 Slater + 0.7200 B88
 Correlation:  0.1900 VWN1RPA + 0.8100 LYP
 Using SG-1 standard quadrature grid
 SCF converges when DIIS error is below 1.0E-08
 using 4 threads for integral computing
 -------------------------------------------------------
 OpenMP Integral computing Module                
 Release: version 1.0, May 2013, Q-Chem Inc. Pittsburgh 
 -------------------------------------------------------
 -------------------------------------------------------
 OpenMP BLAS3 based DFT computing Module                
 Release: version 1.0, May 2013, Q-Chem Inc. Pittsburgh 
 -------------------------------------------------------
 ---------------------------------------
  Cycle       Energy         DIIS Error
 ---------------------------------------
    1    -238.3787513339      9.62E-02
    2    -218.6912509643      7.06E-02
    3    -263.8042567024      6.82E-02
    4    -275.1205343355      5.41E-02
    5    -278.1072293737      4.38E-02
    6    -284.7464861843      2.21E-02
    7    -286.0231973765      1.33E-02
    8    -286.4160636910      1.03E-02
    9    -286.7305995196      5.04E-03
   10    -286.8111488538      2.04E-03
   11    -286.8257126269      6.55E-04
   12    -286.8274001414      1.77E-04
   13    -286.8276417228      5.19E-05
   14    -286.8277110121      4.50E-05
   15    -286.8277352845      2.05E-05
   16    -286.8277517249      5.50E-06
   17    -286.8277534714      1.83E-06
   18    -286.8277535462      6.20E-07
   19    -286.8277535966      3.43E-07
   20    -286.8277536269      6.74E-08
   21    -286.8277536353      4.14E-08
   22    -286.8277536390      2.80E-08
   23    -286.8277536404      7.88E-09 Convergence criterion met
 ---------------------------------------
 <S^2> = 0.7850
 SCF time:  CPU 118.34 s  wall 75.60 s
 SCF   energy in the final basis set = -286.82775364
 Total energy in the final basis set = -286.82775364
 
 --------------------------------------------------------------
 
                    Orbital Energies (a.u.)
 --------------------------------------------------------------
 
 Alpha MOs
 -- Occupied --
-14.341 -10.244 -10.236 -10.226 -10.224 -10.219 -10.210  -0.965
 -0.871  -0.772  -0.664  -0.634  -0.578  -0.543  -0.512  -0.477
 -0.454  -0.431  -0.416  -0.369  -0.349  -0.292  -0.284  -0.256
 -0.181
 -- Virtual --
 -0.047   0.000   0.008   0.019   0.025   0.029   0.045   0.050
  0.066   0.071   0.072   0.097   0.102   0.104   0.111   0.117
  0.118   0.127   0.136   0.155   0.167   0.178   0.179   0.189
  0.193   0.196   0.200   0.212   0.223   0.243   0.250   0.258
  0.270   0.277   0.288   0.297   0.306   0.320   0.331   0.339
  0.345   0.404   0.433   0.454   0.603   0.652   0.661   0.677
  0.695   0.711   0.727   0.747   0.751   0.759   0.780   0.792
  0.819   0.837   0.869   0.887   0.912   0.933   0.956   0.993
  0.996   1.012   1.028   1.053   1.081   1.118   1.124   1.135
  1.183   1.223   1.258   1.313   1.356   1.403   1.411   1.499
  1.554   1.572   1.653   1.673   1.731   1.789   1.805   1.837
  1.882   1.924   1.970   2.006   2.020   2.062   2.073   2.087
  2.100   2.179   2.215   2.228   2.275   2.343   2.370   2.377
  2.404   2.408   2.457   2.469   2.492   2.518   2.524   2.537
  2.584   2.595   2.630   2.645   2.671   2.723   2.750   2.773
  2.852   2.905   2.983   3.067   3.118   3.263   3.290   3.370
  3.442   3.616   3.654   4.157   4.359   4.426   4.556   4.572
  4.653   4.727
 
 Beta MOs
 -- Occupied --
-14.341 -10.246 -10.237 -10.227 -10.223 -10.209 -10.200  -0.962
 -0.863  -0.763  -0.655  -0.632  -0.568  -0.540  -0.504  -0.472
 -0.451  -0.428  -0.407  -0.367  -0.332  -0.292  -0.282  -0.239
 -- Virtual --
 -0.068  -0.033   0.002   0.009   0.019   0.025   0.032   0.045
  0.051   0.067   0.071   0.076   0.097   0.103   0.106   0.113
  0.117   0.120   0.130   0.138   0.156   0.167   0.179   0.182
  0.192   0.194   0.198   0.205   0.213   0.225   0.245   0.253
  0.260   0.271   0.281   0.290   0.298   0.311   0.324   0.333
  0.345   0.348   0.410   0.437   0.458   0.607   0.659   0.667
  0.681   0.712   0.724   0.731   0.747   0.761   0.766   0.782
  0.792   0.822   0.846   0.873   0.889   0.913   0.938   0.958
  0.996   1.001   1.015   1.030   1.057   1.084   1.126   1.127
  1.141   1.190   1.229   1.265   1.316   1.360   1.407   1.414
  1.505   1.555   1.578   1.658   1.677   1.746   1.797   1.817
  1.843   1.893   1.931   1.976   2.014   2.030   2.066   2.079
  2.096   2.105   2.185   2.223   2.233   2.278   2.345   2.373
  2.381   2.408   2.414   2.462   2.473   2.497   2.524   2.532
  2.543   2.589   2.600   2.640   2.653   2.673   2.727   2.753
  2.780   2.857   2.910   2.988   3.069   3.119   3.267   3.291
  3.373   3.445   3.621   3.658   4.157   4.362   4.440   4.569
  4.574   4.655   4.731
 --------------------------------------------------------------
 
          Ground-State Mulliken Net Atomic Charges

     Atom                 Charge (a.u.)    Spin (a.u.)
  --------------------------------------------------------
      1 C                    -0.135956      -0.198316
      2 C                     0.000893       0.755674
      3 C                    -0.130421      -0.087415
      4 C                    -0.071972      -0.014148
      5 C                    -0.064438      -0.051238
      6 N                    -0.150239       0.039862
      7 H                     0.127175       0.010725
      8 H                     0.141477      -0.036383
      9 H                     0.140151       0.001435
     10 H                     0.142280       0.021222
     11 H                     0.134158       0.002587
     12 C                    -0.262497       0.544214
     13 H                     0.129389       0.011782
  --------------------------------------------------------
  Sum of atomic charges =    -0.000000
  Sum of spin   charges =     1.000000

 -----------------------------------------------------------------
                    Cartesian Multipole Moments
 -----------------------------------------------------------------
    Charge (ESU x 10^10)
                -0.0000
    Dipole Moment (Debye)
         X      -1.7792      Y      -1.8262      Z       0.0961
       Tot       2.5514
    Quadrupole Moments (Debye-Ang)
        XX     -38.6986     XY      -3.8405     YY     -42.6922
        XZ       1.3749     YZ      -0.2204     ZZ     -43.1611
    Octopole Moments (Debye-Ang^2)
       XXX     -13.6014    XXY     -11.3165    XYY     -13.8577
       YYY     -26.9650    XXZ       3.6037    XYZ       3.6815
       YYZ      -3.0743    XZZ      -7.2077    YZZ      -7.8894
       ZZZ       5.8627
    Hexadecapole Moments (Debye-Ang^3)
      XXXX    -271.5118   XXXY     -13.7005   XXYY    -106.1446
      XYYY     -28.1782   YYYY    -334.5324   XXXZ      17.2179
      XXYZ       6.0320   XYYZ       7.1072   YYYZ       6.8929
      XXZZ     -72.7901   XYZZ      -0.9078   YYZZ     -74.8377
      XZZZ       8.8932   YZZZ       3.6694   ZZZZ    -139.5107
 -----------------------------------------------------------------
 Calculating analytic gradient of the SCF energy
 Gradient of SCF Energy
            1           2           3           4           5           6
    1   0.0000058  -0.0000057  -0.0000099   0.0000056   0.0000052   0.0000001
    2  -0.0000108  -0.0000008   0.0000037   0.0000022   0.0000008  -0.0000028
    3  -0.0000222  -0.0000162   0.0000054   0.0000120   0.0000043  -0.0000115
            7           8           9          10          11          12
    1   0.0000113  -0.0000191  -0.0000177   0.0000011   0.0000002   0.0000059
    2  -0.0000097  -0.0000082   0.0000034   0.0000099   0.0000034   0.0000033
    3  -0.0000281  -0.0000147   0.0000134   0.0000259   0.0000081   0.0000120
           13
    1   0.0000172
    2   0.0000054
    3   0.0000115
 Max gradient component =       2.810E-05
 RMS gradient           =       1.144E-05
 Gradient time:  CPU 17.69 s  wall 8.06 s
rPathMan2.  file_steps = 951
 ------------------------------------------------------------------------
 Reaction path following.  The coordinates are cartesian              
 Step   1 E=    -286.827754 |G|=  0.000071 S_lin= 0.0000 S_tot= 0.0000
 ------------------------------------------------------------------------
 IRC -- neg. force constant =  -0.106691343471459     
 IRC -- max trans/rot const =  -1.065873539013127E-004
 In first_irc_step: ISign =            1
 ----------------------------------------------------------------
             Standard Nuclear Orientation (Angstroms)
    I     Atom           X                Y                Z
 ----------------------------------------------------------------
    1      C       1.3315709879     0.2802811555     0.2924430330
    2      C       1.0285591415    -0.8482133464    -0.5939497296
    3      C      -0.3978736524    -1.0277351205    -0.3857252025
    4      C      -1.1275134228     0.3393227637     0.0189742906
    5      C      -0.3905628117     1.5479215807    -0.3845367228
    6      N       0.8736681830     1.5427431369    -0.1613251857
    7      H       2.3007932785     0.3319641577     0.7933059422
    8      H       1.7149055740    -1.6643408512    -0.7831492918
    9      H      -0.9969367534    -1.8280445857    -0.8090102874
   10      H      -2.2149306867     0.3314542413    -0.0312481724
   11      H      -0.8652009916     2.3875576876    -0.8872637478
   12      C      -0.4203787909    -0.4754497847     1.0293684317
   13      H      -0.8818418353    -0.9428997758     1.9054294863
 ----------------------------------------------------------------
 Nuclear Repulsion Energy =   277.3251170142 hartrees
 There are       25 alpha and       24 beta electrons

                       Distance Matrix (Angstroms)
             C (  1)   C (  2)   C (  3)   C (  4)   C (  5)   N (  6)
   C (  2)  1.466632
   C (  3)  2.271959  1.452686
   C (  4)  2.474948  2.536645  1.601563
   C (  5)  2.242980  2.792709  2.575667  1.471947
   N (  6)  1.417530  2.434713  2.876549  2.342105  1.283795
   H (  7)  1.092212  2.221683  3.243717  3.514674  3.179507  2.100950
   H (  8)  2.255083  1.083020  2.242108  3.568952  3.861414  3.373386
   H (  9)  3.328691  2.260300  1.085607  2.323809  3.456156  3.909075
   H ( 10)  3.561610  3.496924  2.296682  1.088605  2.221019  3.320178
   H ( 11)  3.264679  3.760661  3.483412  2.255070  1.087660  2.065034
   C ( 12)  2.045365  2.207609  1.519215  1.478104  2.468613  2.676829
   H ( 13)  2.999515  3.147299  2.343248  2.294158  3.418990  3.678547
             H (  7)   H (  8)   H (  9)   H ( 10)   H ( 11)   C ( 12)
   H (  8)  2.610308
   H (  9)  4.255359  2.716902
   H ( 10)  4.590387  4.471260  2.598434
   H ( 11)  4.131985  4.804755  4.218386  2.604245
   C ( 12)  2.848231  3.042716  2.354054  2.235267  3.473925
   H ( 13)  3.604339  3.806840  2.857431  2.674290  4.346419  1.094961

 
 Applying Cartesian multipole field
    Component          Value
    ---------          -----
     (2,0,0)        1.00000E-11
     (0,2,0)        2.00000E-11
     (0,0,2)       -3.00000E-11
 Nucleus-field energy     =     0.0000000040 hartrees
 Requested basis set is 6-31+G(d,p)
 There are 53 shells and 163 basis functions
 A cutoff of  1.0D-14 yielded   1398 shell pairs
 There are     13492 function pairs
 Smallest overlap matrix eigenvalue = 2.79E-05
 Guess MOs from core Hamiltonian diagonalization
 Mixing HOMO and LUMO in initial guess
 Adding  50% of the LUMO to the HOMO
 An unrestricted hybrid HF-DFT SCF calculation will be
 performed using Pulay DIIS extrapolation
 Exchange:     0.2000 Hartree-Fock + 0.0800 Slater + 0.7200 B88
 Correlation:  0.1900 VWN1RPA + 0.8100 LYP
 Using SG-1 standard quadrature grid
 SCF converges when DIIS error is below 1.0E-08
 using 4 threads for integral computing
 -------------------------------------------------------
 OpenMP Integral computing Module                
 Release: version 1.0, May 2013, Q-Chem Inc. Pittsburgh 
 -------------------------------------------------------
 -------------------------------------------------------
 OpenMP BLAS3 based DFT computing Module                
 Release: version 1.0, May 2013, Q-Chem Inc. Pittsburgh 
 -------------------------------------------------------
 ---------------------------------------
  Cycle       Energy         DIIS Error
 ---------------------------------------
    1    -238.4474537723      9.60E-02
    2    -218.6102823666      7.04E-02
    3    -263.9340616449      6.82E-02
    4    -275.0193959498      5.43E-02
    5    -278.3806371931      4.24E-02
    6    -284.6490954181      2.24E-02
    7    -286.0879483625      1.28E-02
    8    -286.5358132987      8.77E-03
    9    -286.7133786341      5.51E-03
   10    -286.8156356990      1.75E-03
   11    -286.8274236656      5.20E-04
   12    -286.8285574097      2.03E-04
   13    -286.8287990418      6.46E-05
   14    -286.8288519513      4.93E-05
   15    -286.8288837295      1.63E-05
   16    -286.8288905964      4.31E-06
   17    -286.8288910290      1.69E-06
   18    -286.8288910695      5.93E-07
   19    -286.8288910919      2.40E-07
   20    -286.8288911066      7.10E-08
   21    -286.8288911096      3.64E-08
   22    -286.8288911107      1.60E-08
   23    -286.8288911109      2.90E-09 Convergence criterion met
 ---------------------------------------
 <S^2> = 0.7711
 SCF time:  CPU 118.01 s  wall 74.42 s
 SCF   energy in the final basis set = -286.82889111
 Total energy in the final basis set = -286.82889111
 
 --------------------------------------------------------------
 
                    Orbital Energies (a.u.)
 --------------------------------------------------------------
 
 Alpha MOs
 -- Occupied --
-14.340 -10.248 -10.236 -10.225 -10.224 -10.223 -10.208  -0.966
 -0.870  -0.770  -0.663  -0.631  -0.578  -0.543  -0.512  -0.474
 -0.451  -0.426  -0.415  -0.369  -0.348  -0.294  -0.283  -0.261
 -0.181
 -- Virtual --
 -0.043   0.000   0.010   0.019   0.024   0.031   0.046   0.051
  0.065   0.070   0.072   0.096   0.103   0.103   0.111   0.117
  0.117   0.128   0.135   0.155   0.166   0.177   0.180   0.188
  0.193   0.196   0.201   0.212   0.223   0.243   0.249   0.258
  0.270   0.276   0.286   0.294   0.302   0.320   0.332   0.338
  0.346   0.401   0.428   0.450   0.606   0.649   0.663   0.678
  0.692   0.710   0.726   0.747   0.750   0.757   0.779   0.792
  0.816   0.843   0.867   0.886   0.910   0.932   0.955   0.991
  0.994   1.013   1.027   1.068   1.086   1.122   1.135   1.138
  1.180   1.224   1.265   1.314   1.357   1.406   1.416   1.499
  1.552   1.580   1.647   1.671   1.719   1.788   1.805   1.836
  1.886   1.922   1.975   2.009   2.031   2.061   2.074   2.088
  2.110   2.188   2.218   2.231   2.266   2.346   2.376   2.383
  2.401   2.403   2.448   2.464   2.490   2.512   2.518   2.532
  2.582   2.593   2.631   2.653   2.677   2.718   2.746   2.772
  2.842   2.891   2.986   3.039   3.117   3.257   3.298   3.371
  3.430   3.610   3.640   4.153   4.361   4.433   4.548   4.590
  4.659   4.737
 
 Beta MOs
 -- Occupied --
-14.339 -10.249 -10.236 -10.226 -10.222 -10.216 -10.197  -0.963
 -0.864  -0.760  -0.653  -0.629  -0.570  -0.541  -0.504  -0.470
 -0.448  -0.423  -0.406  -0.366  -0.331  -0.294  -0.280  -0.249
 -- Virtual --
 -0.067  -0.030   0.001   0.011   0.019   0.024   0.033   0.046
  0.052   0.066   0.070   0.077   0.097   0.103   0.106   0.112
  0.117   0.120   0.130   0.138   0.156   0.167   0.178   0.181
  0.191   0.193   0.197   0.206   0.212   0.225   0.245   0.252
  0.260   0.271   0.280   0.288   0.296   0.306   0.324   0.335
  0.342   0.350   0.406   0.433   0.454   0.609   0.654   0.668
  0.681   0.710   0.724   0.730   0.747   0.761   0.764   0.781
  0.793   0.820   0.848   0.872   0.888   0.912   0.937   0.957
  0.994   0.998   1.016   1.028   1.071   1.091   1.127   1.138
  1.146   1.188   1.230   1.271   1.319   1.361   1.411   1.419
  1.505   1.553   1.585   1.650   1.676   1.733   1.796   1.815
  1.841   1.896   1.931   1.982   2.020   2.037   2.065   2.080
  2.096   2.116   2.195   2.225   2.236   2.270   2.348   2.379
  2.387   2.406   2.409   2.453   2.468   2.496   2.518   2.521
  2.544   2.589   2.595   2.640   2.662   2.680   2.721   2.749
  2.778   2.846   2.895   2.991   3.041   3.118   3.261   3.300
  3.374   3.432   3.615   3.643   4.154   4.365   4.447   4.559
  4.592   4.660   4.742
 --------------------------------------------------------------
 
          Ground-State Mulliken Net Atomic Charges

     Atom                 Charge (a.u.)    Spin (a.u.)
  --------------------------------------------------------
      1 C                    -0.130780      -0.165767
      2 C                    -0.002769       0.858453
      3 C                    -0.142565      -0.093165
      4 C                    -0.070545      -0.004765
      5 C                    -0.064601      -0.038829
      6 N                    -0.156341       0.037465
      7 H                     0.127859       0.009211
      8 H                     0.140117      -0.039911
      9 H                     0.140395       0.001355
     10 H                     0.141769       0.015190
     11 H                     0.133785       0.002765
     12 C                    -0.247364       0.402381
     13 H                     0.131039       0.015618
  --------------------------------------------------------
  Sum of atomic charges =     0.000000
  Sum of spin   charges =     1.000000

 -----------------------------------------------------------------
                    Cartesian Multipole Moments
 -----------------------------------------------------------------
    Charge (ESU x 10^10)
                -0.0000
    Dipole Moment (Debye)
         X      -1.8421      Y      -1.8363      Z       0.2553
       Tot       2.6136
    Quadrupole Moments (Debye-Ang)
        XX     -38.6799     XY      -3.8573     YY     -42.7591
        XZ       1.4730     YZ      -0.2693     ZZ     -43.2355
    Octopole Moments (Debye-Ang^2)
       XXX     -13.7607    XXY     -11.3937    XYY     -14.1326
       YYY     -26.9576    XXZ       3.7780    XYZ       3.6619
       YYZ      -2.8518    XZZ      -7.4792    YZZ      -7.8460
       ZZZ       6.4579
    Hexadecapole Moments (Debye-Ang^3)
      XXXX    -265.5722   XXXY     -12.9376   XXYY    -105.2701
      XYYY     -27.5292   YYYY    -333.9429   XXXZ      16.0571
      XXYZ       5.6661   XYYZ       6.9428   YYYZ       6.3487
      XXZZ     -72.3816   XYZZ      -0.5996   YYZZ     -75.0890
      XZZZ       8.5128   YZZZ       2.9935   ZZZZ    -141.8699
 -----------------------------------------------------------------
 Calculating analytic gradient of the SCF energy
 Gradient of SCF Energy
            1           2           3           4           5           6
    1   0.0068763   0.0000433   0.0004755  -0.0007449  -0.0001281  -0.0000625
    2   0.0031306  -0.0009826  -0.0001317   0.0007473  -0.0001183   0.0001487
    3  -0.0056838   0.0034578   0.0007590   0.0014004   0.0007286   0.0004752
            7           8           9          10          11          12
    1   0.0041842  -0.0003239   0.0007429  -0.0006101   0.0000977  -0.0062227
    2   0.0015149   0.0002588   0.0003208   0.0006874  -0.0003790  -0.0026818
    3  -0.0031133   0.0008910  -0.0011341  -0.0008339   0.0002430   0.0017288
           13
    1  -0.0043279
    2  -0.0025152
    3   0.0010813
 Max gradient component =       6.876E-03
 RMS gradient           =       2.355E-03
 Gradient time:  CPU 17.71 s  wall 8.43 s
rPathMan2.  file_steps = 951
 IRC --- Status = 2.  Assess steepest descent step
 IRC --- Previous SD length =   0.150000
 IRC --- Point 1 E =     -286.827754 |G| =   0.000071 G.D1 =  -0.000004
 IRC --- Point 2 E =     -286.828891 |G| =   0.014707 G.D1 =  -0.014454
 IRC --- Angle(G1/G2) =   10.64 Deg.  Curvature =  -0.0963
 IRC --- Corrector step required
 IRC --- equal length displacement: B_eq =   0.027826
 IRC --- chosen bisector length  : B_len =   0.015000
 ----------------------------------------------------------------
             Standard Nuclear Orientation (Angstroms)
    I     Atom           X                Y                Z
 ----------------------------------------------------------------
    1      C       1.3307249518     0.2772555214     0.2894578816
    2      C       1.0295448433    -0.8446478972    -0.5909508057
    3      C      -0.3988698360    -1.0275248753    -0.3853404465
    4      C      -1.1272019622     0.3391341688     0.0184702088
    5      C      -0.3907282851     1.5475803547    -0.3843023170
    6      N       0.8740288986     1.5424832715    -0.1599646517
    7      H       2.2996568657     0.3315559145     0.7937978258
    8      H       1.7148528089    -1.6644798087    -0.7827653695
    9      H      -0.9969072595    -1.8280453335    -0.8085405661
   10      H      -2.2146838883     0.3310017217    -0.0311076449
   11      H      -0.8652707073     2.3876608432    -0.8873444014
   12      C      -0.4213838001    -0.4753692093     1.0265198102
   13      H      -0.8795044092    -0.9420434127     1.9053833203
 ----------------------------------------------------------------
 Nuclear Repulsion Energy =   277.5075487438 hartrees
 There are       25 alpha and       24 beta electrons

                       Distance Matrix (Angstroms)
             C (  1)   C (  2)   C (  3)   C (  4)   C (  5)   N (  6)
   C (  2)  1.457565
   C (  3)  2.269208  1.454678
   C (  4)  2.473594  2.534618  1.600402
   C (  5)  2.243007  2.789738  2.575118  1.471381
   N (  6)  1.418222  2.430706  2.876805  2.341968  1.284509
   H (  7)  1.093680  2.216792  3.243380  3.513481  3.178806  2.099624
   H (  8)  2.251123  1.085617  2.243096  3.568434  3.861292  3.373348
   H (  9)  3.325021  2.262946  1.085164  2.323272  3.455760  3.909158
   H ( 10)  3.560277  3.495797  2.295268  1.088642  2.220726  3.320307
   H ( 11)  3.265130  3.758456  3.483250  2.255121  1.088107  2.066052
   C ( 12)  2.044404  2.204035  1.516157  1.475723  2.466512  2.675363
   H ( 13)  2.997168  3.144144  2.342164  2.294169  3.417571  3.676060
             H (  7)   H (  8)   H (  9)   H ( 10)   H ( 11)   C ( 12)
   H (  8)  2.609925
   H (  9)  4.254257  2.716811
   H ( 10)  4.589089  4.470816  2.597858
   H ( 11)  4.131655  4.804978  4.218497  2.604593
   C ( 12)  2.847692  3.041546  2.351256  2.232652  3.472298
   H ( 13)  3.600659  3.805095  2.857300  2.674574  4.345856  1.095473

 
 Applying Cartesian multipole field
    Component          Value
    ---------          -----
     (2,0,0)        1.00000E-11
     (0,2,0)        2.00000E-11
     (0,0,2)       -3.00000E-11
 Nucleus-field energy     =     0.0000000040 hartrees
 Requested basis set is 6-31+G(d,p)
 There are 53 shells and 163 basis functions
 A cutoff of  1.0D-14 yielded   1398 shell pairs
 There are     13492 function pairs
 Smallest overlap matrix eigenvalue = 2.75E-05
 Guess MOs from core Hamiltonian diagonalization
 Mixing HOMO and LUMO in initial guess
 Adding  50% of the LUMO to the HOMO
 An unrestricted hybrid HF-DFT SCF calculation will be
 performed using Pulay DIIS extrapolation
 Exchange:     0.2000 Hartree-Fock + 0.0800 Slater + 0.7200 B88
 Correlation:  0.1900 VWN1RPA + 0.8100 LYP
 Using SG-1 standard quadrature grid
 SCF converges when DIIS error is below 1.0E-08
 using 4 threads for integral computing
 -------------------------------------------------------
 OpenMP Integral computing Module                
 Release: version 1.0, May 2013, Q-Chem Inc. Pittsburgh 
 -------------------------------------------------------
 -------------------------------------------------------
 OpenMP BLAS3 based DFT computing Module                
 Release: version 1.0, May 2013, Q-Chem Inc. Pittsburgh 
 -------------------------------------------------------
 ---------------------------------------
  Cycle       Energy         DIIS Error
 ---------------------------------------
    1    -238.5120373044      9.60E-02
    2    -218.4553501628      7.03E-02
    3    -264.0346941630      6.80E-02
    4    -274.7279653865      5.50E-02
    5    -278.6585721762      4.19E-02
    6    -284.7304018788      2.22E-02
    7    -286.0803106779      1.29E-02
    8    -286.5141015573      9.10E-03
    9    -286.7166478898      5.43E-03
   10    -286.8158568049      1.75E-03
   11    -286.8273754078      5.30E-04
   12    -286.8285446914      1.87E-04
   13    -286.8287645932      6.14E-05
   14    -286.8288147869      4.87E-05
   15    -286.8288433888      1.63E-05
   16    -286.8288504211      4.38E-06
   17    -286.8288508845      1.81E-06
   18    -286.8288509243      5.99E-07
   19    -286.8288509461      2.37E-07
   20    -286.8288509608      6.10E-08
   21    -286.8288509638      3.25E-08
   22    -286.8288509648      1.53E-08
   23    -286.8288509651      2.91E-09 Convergence criterion met
 ---------------------------------------
 <S^2> = 0.7715
 SCF time:  CPU 118.33 s  wall 70.02 s
 SCF   energy in the final basis set = -286.82885097
 Total energy in the final basis set = -286.82885097
 
 --------------------------------------------------------------
 
                    Orbital Energies (a.u.)
 --------------------------------------------------------------
 
 Alpha MOs
 -- Occupied --
-14.340 -10.247 -10.236 -10.225 -10.223 -10.223 -10.208  -0.966
 -0.871  -0.771  -0.663  -0.632  -0.578  -0.544  -0.512  -0.474
 -0.452  -0.426  -0.415  -0.369  -0.348  -0.294  -0.283  -0.261
 -0.181
 -- Virtual --
 -0.043   0.000   0.010   0.019   0.024   0.031   0.046   0.051
  0.065   0.070   0.072   0.096   0.103   0.103   0.111   0.117
  0.117   0.128   0.135   0.155   0.166   0.177   0.180   0.188
  0.193   0.196   0.201   0.212   0.223   0.244   0.249   0.258
  0.270   0.277   0.286   0.294   0.303   0.320   0.332   0.339
  0.347   0.402   0.428   0.451   0.605   0.649   0.662   0.677
  0.691   0.711   0.726   0.747   0.750   0.758   0.780   0.792
  0.817   0.843   0.867   0.886   0.909   0.932   0.955   0.991
  0.994   1.013   1.027   1.068   1.087   1.122   1.135   1.138
  1.180   1.225   1.265   1.315   1.357   1.407   1.416   1.499
  1.552   1.580   1.648   1.672   1.721   1.789   1.807   1.839
  1.886   1.926   1.975   2.008   2.032   2.062   2.074   2.089
  2.112   2.189   2.220   2.231   2.268   2.345   2.376   2.383
  2.402   2.403   2.449   2.464   2.491   2.512   2.518   2.532
  2.582   2.594   2.633   2.654   2.676   2.719   2.747   2.773
  2.843   2.891   2.986   3.041   3.116   3.256   3.294   3.369
  3.430   3.611   3.640   4.154   4.361   4.434   4.550   4.592
  4.658   4.738
 
 Beta MOs
 -- Occupied --
-14.339 -10.249 -10.236 -10.226 -10.222 -10.216 -10.197  -0.963
 -0.864  -0.761  -0.653  -0.630  -0.570  -0.541  -0.503  -0.470
 -0.448  -0.423  -0.406  -0.366  -0.331  -0.294  -0.280  -0.249
 -- Virtual --
 -0.067  -0.030   0.001   0.011   0.019   0.024   0.033   0.046
  0.052   0.066   0.070   0.077   0.097   0.103   0.106   0.113
  0.117   0.120   0.130   0.138   0.156   0.167   0.178   0.182
  0.191   0.193   0.197   0.206   0.212   0.225   0.245   0.252
  0.260   0.272   0.281   0.288   0.296   0.307   0.324   0.335
  0.343   0.351   0.408   0.433   0.454   0.608   0.654   0.667
  0.681   0.710   0.724   0.730   0.748   0.762   0.765   0.782
  0.793   0.821   0.849   0.872   0.888   0.911   0.936   0.957
  0.994   0.997   1.016   1.028   1.071   1.092   1.127   1.138
  1.147   1.188   1.231   1.271   1.319   1.362   1.411   1.419
  1.505   1.554   1.586   1.652   1.677   1.734   1.797   1.817
  1.845   1.896   1.934   1.981   2.020   2.038   2.065   2.080
  2.097   2.118   2.196   2.227   2.236   2.271   2.348   2.378
  2.387   2.406   2.409   2.455   2.468   2.497   2.519   2.521
  2.543   2.590   2.595   2.642   2.663   2.680   2.722   2.750
  2.778   2.847   2.896   2.991   3.044   3.118   3.260   3.296
  3.372   3.432   3.616   3.644   4.154   4.366   4.448   4.561
  4.593   4.660   4.743
 --------------------------------------------------------------
 
          Ground-State Mulliken Net Atomic Charges

     Atom                 Charge (a.u.)    Spin (a.u.)
  --------------------------------------------------------
      1 C                    -0.132674      -0.166567
      2 C                     0.000244       0.851453
      3 C                    -0.143197      -0.091730
      4 C                    -0.070760      -0.005681
      5 C                    -0.065157      -0.039512
      6 N                    -0.156813       0.038049
      7 H                     0.127715       0.009408
      8 H                     0.140215      -0.039842
      9 H                     0.140311       0.001375
     10 H                     0.141893       0.015520
     11 H                     0.133840       0.002780
     12 C                    -0.246591       0.409292
     13 H                     0.130974       0.015456
  --------------------------------------------------------
  Sum of atomic charges =     0.000000
  Sum of spin   charges =     1.000000

 -----------------------------------------------------------------
                    Cartesian Multipole Moments
 -----------------------------------------------------------------
    Charge (ESU x 10^10)
                 0.0000
    Dipole Moment (Debye)
         X      -1.8489      Y      -1.8440      Z       0.2514
       Tot       2.6234
    Quadrupole Moments (Debye-Ang)
        XX     -38.7150     XY      -3.8627     YY     -42.7546
        XZ       1.4675     YZ      -0.2699     ZZ     -43.2108
    Octopole Moments (Debye-Ang^2)
       XXX     -13.8371    XXY     -11.4042    XYY     -14.1378
       YYY     -26.9953    XXZ       3.7640    XYZ       3.6494
       YYZ      -2.8584    XZZ      -7.4498    YZZ      -7.8512
       ZZZ       6.4759
    Hexadecapole Moments (Debye-Ang^3)
      XXXX    -265.9373   XXXY     -12.9291   XXYY    -105.2641
      XYYY     -27.5162   YYYY    -333.6040   XXXZ      16.0110
      XXYZ       5.6830   XYYZ       6.9322   YYYZ       6.3717
      XXZZ     -72.3303   XYZZ      -0.6213   YYZZ     -74.9614
      XZZZ       8.4920   YZZZ       3.0672   ZZZZ    -141.3226
 -----------------------------------------------------------------
 Calculating analytic gradient of the SCF energy
 Gradient of SCF Energy
            1           2           3           4           5           6
    1   0.0040357   0.0007949  -0.0007227   0.0004036  -0.0009831   0.0012704
    2  -0.0009014   0.0045490  -0.0002873   0.0001486  -0.0007746   0.0001829
    3  -0.0090698   0.0064778   0.0018987   0.0018989   0.0008534   0.0010000
            7           8           9          10          11          12
    1   0.0047928   0.0005665   0.0007899  -0.0005838  -0.0000307  -0.0060258
    2   0.0018049  -0.0011709   0.0005412   0.0006013  -0.0001761  -0.0018651
    3  -0.0024520   0.0004666  -0.0009093  -0.0007987   0.0000312  -0.0008696
           13
    1  -0.0043076
    2  -0.0026526
    3   0.0014727
 Max gradient component =       9.070E-03
 RMS gradient           =       2.685E-03
 Gradient time:  CPU 17.67 s  wall 5.98 s
rPathMan2.  file_steps = 951
 IRC --- Status = 3.  Assess initial corrector step
 IRC --- bisector search: b =  0.000000 E =     -286.828891 G.B =  -0.001364
 IRC --- bisector search: b =  0.015000 E =     -286.828851 G.B =   0.006764
 IRC --- performed gradient/energy interpolation
 IRC --- bisector search:  estimate b(min) =   2.532110690775309E-003
 ----------------------------------------------------------------
             Standard Nuclear Orientation (Angstroms)
    I     Atom           X                Y                Z
 ----------------------------------------------------------------
    1      C       1.3314281707     0.2797704061     0.2919391174
    2      C       1.0287255352    -0.8476114722    -0.5934434891
    3      C      -0.3980418156    -1.0276996295    -0.3856602529
    4      C      -1.1274608459     0.3392909275     0.0188891979
    5      C      -0.3905907448     1.5478639793    -0.3844971534
    6      N       0.8737290744     1.5426992697    -0.1610955175
    7      H       2.3006014436     0.3318952432     0.7933889758
    8      H       1.7148966669    -1.6643643082    -0.7830844829
    9      H      -0.9969317746    -1.8280447119    -0.8089309949
   10      H      -2.2148890253     0.3313778526    -0.0312244503
   11      H      -0.8652127601     2.3875751011    -0.8872773627
   12      C      -0.4205484438    -0.4754361830     1.0288875634
   13      H      -0.8814472605    -0.9427552154     1.9054216932
 ----------------------------------------------------------------
 Nuclear Repulsion Energy =   277.3558595507 hartrees
 There are       25 alpha and       24 beta electrons

                       Distance Matrix (Angstroms)
             C (  1)   C (  2)   C (  3)   C (  4)   C (  5)   N (  6)
   C (  2)  1.465101
   C (  3)  2.271494  1.453021
   C (  4)  2.474719  2.536302  1.601367
   C (  5)  2.242984  2.792207  2.575575  1.471852
   N (  6)  1.417645  2.434037  2.876592  2.342082  1.283916
   H (  7)  1.092459  2.220858  3.243660  3.514472  3.179388  2.100726
   H (  8)  2.254414  1.083457  2.242275  3.568864  3.861393  3.373380
   H (  9)  3.328071  2.260746  1.085532  2.323719  3.456089  3.909089
   H ( 10)  3.561385  3.496733  2.296443  1.088611  2.220969  3.320200
   H ( 11)  3.264755  3.760289  3.483385  2.255079  1.087736  2.065206
   C ( 12)  2.045202  2.207004  1.518699  1.477702  2.468258  2.676581
   H ( 13)  2.999119  3.146767  2.343065  2.294160  3.418750  3.678127
             H (  7)   H (  8)   H (  9)   H ( 10)   H ( 11)   C ( 12)
   H (  8)  2.610243
   H (  9)  4.255173  2.716887
   H ( 10)  4.590168  4.471185  2.598337
   H ( 11)  4.131929  4.804793  4.218405  2.604304
   C ( 12)  2.848140  3.042518  2.353581  2.234825  3.473651
   H ( 13)  3.603718  3.806545  2.857409  2.674337  4.346324  1.095047

 
 Applying Cartesian multipole field
    Component          Value
    ---------          -----
     (2,0,0)        1.00000E-11
     (0,2,0)        2.00000E-11
     (0,0,2)       -3.00000E-11
 Nucleus-field energy     =     0.0000000040 hartrees
 Requested basis set is 6-31+G(d,p)
 There are 53 shells and 163 basis functions
 A cutoff of  1.0D-14 yielded   1398 shell pairs
 There are     13492 function pairs
 Smallest overlap matrix eigenvalue = 2.78E-05
 Guess MOs from core Hamiltonian diagonalization
 Mixing HOMO and LUMO in initial guess
 Adding  50% of the LUMO to the HOMO
 An unrestricted hybrid HF-DFT SCF calculation will be
 performed using Pulay DIIS extrapolation
 Exchange:     0.2000 Hartree-Fock + 0.0800 Slater + 0.7200 B88
 Correlation:  0.1900 VWN1RPA + 0.8100 LYP
 Using SG-1 standard quadrature grid
 SCF converges when DIIS error is below 1.0E-08
 using 4 threads for integral computing
 -------------------------------------------------------
 OpenMP Integral computing Module                
 Release: version 1.0, May 2013, Q-Chem Inc. Pittsburgh 
 -------------------------------------------------------
 -------------------------------------------------------
 OpenMP BLAS3 based DFT computing Module                
 Release: version 1.0, May 2013, Q-Chem Inc. Pittsburgh 
 -------------------------------------------------------
 ---------------------------------------
  Cycle       Energy         DIIS Error
 ---------------------------------------
    1    -238.4584862833      9.60E-02
    2    -218.5861535741      7.04E-02
    3    -263.9531551027      6.82E-02
    4    -274.9727016032      5.44E-02
    5    -278.4210669023      4.23E-02
    6    -284.6555839369      2.24E-02
    7    -286.0866584472      1.28E-02
    8    -286.5334299636      8.81E-03
    9    -286.7135036044      5.50E-03
   10    -286.8157010575      1.75E-03
   11    -286.8274248901      5.21E-04
   12    -286.8285624613      2.02E-04
   13    -286.8288015027      6.44E-05
   14    -286.8288539639      4.91E-05
   15    -286.8288854416      1.63E-05
   16    -286.8288923380      4.32E-06
   17    -286.8288927737      1.69E-06
   18    -286.8288928136      5.92E-07
   19    -286.8288928358      2.39E-07
   20    -286.8288928504      6.96E-08
   21    -286.8288928533      3.58E-08
   22    -286.8288928544      1.58E-08
   23    -286.8288928547      2.90E-09 Convergence criterion met
 ---------------------------------------
 <S^2> = 0.7711
 SCF time:  CPU 118.35 s  wall 73.83 s
 SCF   energy in the final basis set = -286.82889285
 Total energy in the final basis set = -286.82889285
 
 --------------------------------------------------------------
 
                    Orbital Energies (a.u.)
 --------------------------------------------------------------
 
 Alpha MOs
 -- Occupied --
-14.340 -10.247 -10.236 -10.225 -10.224 -10.223 -10.208  -0.966
 -0.870  -0.770  -0.663  -0.631  -0.578  -0.543  -0.512  -0.474
 -0.451  -0.426  -0.415  -0.369  -0.348  -0.294  -0.283  -0.261
 -0.181
 -- Virtual --
 -0.043   0.000   0.010   0.019   0.024   0.031   0.046   0.051
  0.065   0.070   0.072   0.096   0.103   0.103   0.111   0.117
  0.117   0.128   0.135   0.155   0.166   0.177   0.180   0.188
  0.193   0.196   0.201   0.212   0.223   0.243   0.249   0.258
  0.270   0.276   0.286   0.294   0.303   0.320   0.332   0.338
  0.346   0.401   0.428   0.450   0.605   0.649   0.663   0.678
  0.692   0.710   0.726   0.747   0.750   0.757   0.779   0.792
  0.816   0.843   0.867   0.886   0.910   0.932   0.955   0.991
  0.994   1.013   1.027   1.068   1.086   1.122   1.135   1.138
  1.180   1.224   1.265   1.314   1.357   1.407   1.416   1.499
  1.552   1.580   1.647   1.671   1.720   1.788   1.805   1.836
  1.886   1.923   1.975   2.009   2.031   2.062   2.074   2.088
  2.110   2.188   2.218   2.231   2.267   2.346   2.376   2.383
  2.401   2.403   2.448   2.464   2.490   2.512   2.518   2.532
  2.582   2.593   2.632   2.653   2.677   2.718   2.746   2.772
  2.842   2.891   2.986   3.039   3.117   3.257   3.297   3.371
  3.430   3.610   3.640   4.153   4.361   4.433   4.548   4.591
  4.659   4.737
 
 Beta MOs
 -- Occupied --
-14.339 -10.249 -10.236 -10.226 -10.222 -10.216 -10.197  -0.963
 -0.864  -0.760  -0.653  -0.629  -0.570  -0.541  -0.504  -0.470
 -0.448  -0.423  -0.406  -0.366  -0.331  -0.294  -0.280  -0.249
 -- Virtual --
 -0.067  -0.030   0.001   0.011   0.019   0.024   0.033   0.046
  0.052   0.066   0.070   0.077   0.097   0.103   0.106   0.113
  0.117   0.120   0.130   0.138   0.156   0.167   0.178   0.182
  0.191   0.193   0.197   0.206   0.212   0.225   0.245   0.252
  0.260   0.271   0.280   0.288   0.296   0.306   0.324   0.335
  0.343   0.350   0.407   0.433   0.454   0.609   0.654   0.668
  0.681   0.710   0.724   0.730   0.747   0.761   0.764   0.781
  0.793   0.820   0.848   0.872   0.888   0.912   0.937   0.957
  0.994   0.998   1.016   1.028   1.071   1.091   1.127   1.138
  1.147   1.188   1.230   1.271   1.319   1.362   1.411   1.419
  1.505   1.553   1.585   1.651   1.677   1.733   1.796   1.816
  1.842   1.896   1.931   1.981   2.020   2.037   2.065   2.080
  2.096   2.116   2.195   2.225   2.236   2.270   2.348   2.379
  2.387   2.406   2.409   2.453   2.468   2.497   2.518   2.521
  2.543   2.589   2.595   2.641   2.662   2.680   2.722   2.749
  2.778   2.846   2.895   2.991   3.042   3.118   3.260   3.299
  3.373   3.432   3.615   3.643   4.154   4.365   4.448   4.560
  4.592   4.660   4.742
 --------------------------------------------------------------
 
          Ground-State Mulliken Net Atomic Charges

     Atom                 Charge (a.u.)    Spin (a.u.)
  --------------------------------------------------------
      1 C                    -0.131092      -0.165908
      2 C                    -0.002264       0.857297
      3 C                    -0.142671      -0.092924
      4 C                    -0.070581      -0.004919
      5 C                    -0.064694      -0.038945
      6 N                    -0.156422       0.037563
      7 H                     0.127835       0.009244
      8 H                     0.140134      -0.039900
      9 H                     0.140381       0.001358
     10 H                     0.141790       0.015246
     11 H                     0.133794       0.002767
     12 C                    -0.247238       0.403531
     13 H                     0.131028       0.015591
  --------------------------------------------------------
  Sum of atomic charges =    -0.000000
  Sum of spin   charges =     1.000000

 -----------------------------------------------------------------
                    Cartesian Multipole Moments
 -----------------------------------------------------------------
    Charge (ESU x 10^10)
                -0.0000
    Dipole Moment (Debye)
         X      -1.8433      Y      -1.8376      Z       0.2546
       Tot       2.6152
    Quadrupole Moments (Debye-Ang)
        XX     -38.6858     XY      -3.8583     YY     -42.7583
        XZ       1.4721     YZ      -0.2694     ZZ     -43.2314
    Octopole Moments (Debye-Ang^2)
       XXX     -13.7736    XXY     -11.3954    XYY     -14.1335
       YYY     -26.9640    XXZ       3.7757    XYZ       3.6598
       YYZ      -2.8529    XZZ      -7.4743    YZZ      -7.8468
       ZZZ       6.4610
    Hexadecapole Moments (Debye-Ang^3)
      XXXX    -265.6335   XXXY     -12.9361   XXYY    -105.2690
      XYYY     -27.5271   YYYY    -333.8856   XXXZ      16.0494
      XXYZ       5.6690   XYYZ       6.9410   YYYZ       6.3527
      XXZZ     -72.3729   XYZZ      -0.6032   YYZZ     -75.0674
      XZZZ       8.5093   YZZZ       3.0060   ZZZZ    -141.7774
 -----------------------------------------------------------------
 Calculating analytic gradient of the SCF energy
 Gradient of SCF Energy
            1           2           3           4           5           6
    1   0.0064027   0.0001655   0.0002728  -0.0005515  -0.0002728   0.0001623
    2   0.0024642  -0.0000618  -0.0001581   0.0006471  -0.0002289   0.0001543
    3  -0.0062471   0.0039583   0.0009498   0.0014839   0.0007498   0.0005646
            7           8           9          10          11          12
    1   0.0042875  -0.0001721   0.0007508  -0.0006057   0.0000760  -0.0061912
    2   0.0015636   0.0000166   0.0003580   0.0006729  -0.0003448  -0.0025449
    3  -0.0030022   0.0008198  -0.0010962  -0.0008280   0.0002072   0.0012931
           13
    1  -0.0043242
    2  -0.0025382
    3   0.0011469
 Max gradient component =       6.403E-03
 RMS gradient           =       2.342E-03
 Gradient time:  CPU 17.68 s  wall 7.84 s
rPathMan2.  file_steps = 951
 IRC --- Status = 4.  Checking bisector search.
 IRC --- Bisector search finished successfully.
 ------------------------------------------------------------------------
 Reaction path following.  The coordinates are cartesian              
 Step   2 E=    -286.828893 |G|=  0.014623 S_lin= 0.1498 S_tot= 0.1498
 ------------------------------------------------------------------------
  IRC -- SD step length =   0.150000000000000     
 ----------------------------------------------------------------
             Standard Nuclear Orientation (Angstroms)
    I     Atom           X                Y                Z
 ----------------------------------------------------------------
    1      C       1.2966720914     0.2663940871     0.3258503257
    2      C       1.0278270435    -0.8472759541    -0.6149302058
    3      C      -0.3995225083    -1.0268414922    -0.3908162622
    4      C      -1.1244669275     0.3357783562     0.0108338994
    5      C      -0.3891096555     1.5491065955    -0.3885675185
    6      N       0.8728481336     1.5418616814    -0.1641605369
    7      H       2.2773273117     0.3234073052     0.8096858432
    8      H       1.7158309533    -1.6644544184    -0.7875347271
    9      H      -1.0010071884    -1.8299880108    -0.8029804893
   10      H      -2.2116012828     0.3277251823    -0.0267297929
   11      H      -0.8656251350     2.3894466359    -0.8884019702
   12      C      -0.3869404109    -0.4616214850     1.0218681026
   13      H      -0.8579742049    -0.9289772238     1.8991961759
 ----------------------------------------------------------------
 Nuclear Repulsion Energy =   277.8729761520 hartrees
 There are       25 alpha and       24 beta electrons

                       Distance Matrix (Angstroms)
             C (  1)   C (  2)   C (  3)   C (  4)   C (  5)   N (  6)
   C (  2)  1.482433
   C (  3)  2.250143  1.455952
   C (  4)  2.442532  2.534476  1.594867
   C (  5)  2.235532  2.793134  2.575970  1.473919
   N (  6)  1.430579  2.436225  2.875506  2.339771  1.281776
   H (  7)  1.095003  2.227393  3.229536  3.494356  3.169864  2.098945
   H (  8)  2.267928  1.082092  2.244695  3.564494  3.862243  3.373378
   H (  9)  3.308838  2.262135  1.084761  2.316912  3.458965  3.910089
   H ( 10)  3.526479  3.495784  2.291515  1.087813  2.223550  3.317656
   H ( 11)  3.264551  3.759830  3.483657  2.256807  1.087692  2.065240
   C ( 12)  1.961886  2.197591  1.521614  1.483908  2.456086  2.647202
   H ( 13)  2.923496  3.143844  2.337501  2.288348  3.405084  3.654891
             H (  7)   H (  8)   H (  9)   H ( 10)   H ( 11)   C ( 12)
   H (  8)  2.611127
   H (  9)  4.240906  2.721920
   H ( 10)  4.566190  4.469041  2.593035
   H ( 11)  4.126763  4.807099  4.222470  2.608606
   C ( 12)  2.785608  3.023639  2.362113  2.247668  3.465092
   H ( 13)  3.547621  3.792614  2.852023  2.668482  4.333901  1.099999

 
 Applying Cartesian multipole field
    Component          Value
    ---------          -----
     (2,0,0)        1.00000E-11
     (0,2,0)        2.00000E-11
     (0,0,2)       -3.00000E-11
 Nucleus-field energy     =     0.0000000039 hartrees
 Requested basis set is 6-31+G(d,p)
 There are 53 shells and 163 basis functions
 A cutoff of  1.0D-14 yielded   1399 shell pairs
 There are     13495 function pairs
 Smallest overlap matrix eigenvalue = 2.72E-05
 Guess MOs from core Hamiltonian diagonalization
 Mixing HOMO and LUMO in initial guess
 Adding  50% of the LUMO to the HOMO
 An unrestricted hybrid HF-DFT SCF calculation will be
 performed using Pulay DIIS extrapolation
 Exchange:     0.2000 Hartree-Fock + 0.0800 Slater + 0.7200 B88
 Correlation:  0.1900 VWN1RPA + 0.8100 LYP
 Using SG-1 standard quadrature grid
 SCF converges when DIIS error is below 1.0E-08
 using 4 threads for integral computing
 -------------------------------------------------------
 OpenMP Integral computing Module                
 Release: version 1.0, May 2013, Q-Chem Inc. Pittsburgh 
 -------------------------------------------------------
 -------------------------------------------------------
 OpenMP BLAS3 based DFT computing Module                
 Release: version 1.0, May 2013, Q-Chem Inc. Pittsburgh 
 -------------------------------------------------------
 ---------------------------------------
  Cycle       Energy         DIIS Error
 ---------------------------------------
    1    -238.5904544924      9.56E-02
    2    -218.3271756207      7.01E-02
    3    -263.8213425307      6.85E-02
    4    -275.1372746795      5.40E-02
    5    -278.6304219877      4.15E-02
    6    -284.5825389935      2.25E-02
    7    -286.0606288338      1.30E-02
    8    -286.5538076685      8.55E-03
    9    -286.7172193173      5.54E-03
   10    -286.8219342903      1.52E-03
   11    -286.8311367422      3.62E-04
   12    -286.8316521708      1.97E-04
   13    -286.8318262008      5.55E-05
   14    -286.8318589092      3.19E-05
   15    -286.8318719958      1.33E-05
   16    -286.8318751086      4.04E-06
   17    -286.8318754338      1.40E-06
   18    -286.8318754573      4.61E-07
   19    -286.8318754677      1.51E-07
   20    -286.8318754738      5.13E-08
   21    -286.8318754757      2.55E-08
   22    -286.8318754760      9.97E-09 Convergence criterion met
 ---------------------------------------
 <S^2> = 0.7618
 SCF time:  CPU 113.15 s  wall 72.39 s
 SCF   energy in the final basis set = -286.83187548
 Total energy in the final basis set = -286.83187548
 
 --------------------------------------------------------------
 
                    Orbital Energies (a.u.)
 --------------------------------------------------------------
 
 Alpha MOs
 -- Occupied --
-14.338 -10.248 -10.235 -10.228 -10.224 -10.222 -10.206  -0.966
 -0.870  -0.767  -0.661  -0.629  -0.578  -0.544  -0.513  -0.472
 -0.449  -0.421  -0.414  -0.369  -0.347  -0.298  -0.281  -0.265
 -0.182
 -- Virtual --
 -0.037  -0.000   0.013   0.019   0.024   0.035   0.046   0.052
  0.065   0.070   0.073   0.096   0.102   0.104   0.110   0.116
  0.118   0.129   0.135   0.155   0.166   0.176   0.180   0.186
  0.193   0.196   0.202   0.211   0.224   0.244   0.248   0.258
  0.270   0.276   0.283   0.291   0.300   0.320   0.333   0.338
  0.348   0.398   0.424   0.449   0.608   0.644   0.665   0.678
  0.689   0.711   0.725   0.747   0.750   0.756   0.779   0.791
  0.814   0.846   0.866   0.886   0.908   0.931   0.954   0.989
  0.992   1.015   1.026   1.073   1.090   1.123   1.136   1.162
  1.181   1.230   1.271   1.319   1.359   1.409   1.421   1.499
  1.552   1.588   1.639   1.671   1.709   1.788   1.805   1.836
  1.891   1.917   1.976   2.008   2.037   2.057   2.081   2.089
  2.120   2.194   2.224   2.235   2.265   2.348   2.378   2.383
  2.402   2.406   2.431   2.466   2.491   2.507   2.514   2.532
  2.578   2.598   2.630   2.663   2.676   2.726   2.743   2.773
  2.837   2.880   2.990   3.014   3.117   3.256   3.305   3.375
  3.419   3.607   3.630   4.151   4.364   4.440   4.535   4.611
  4.662   4.752
 
 Beta MOs
 -- Occupied --
-14.337 -10.250 -10.235 -10.225 -10.222 -10.221 -10.194  -0.963
 -0.864  -0.757  -0.651  -0.626  -0.572  -0.541  -0.504  -0.469
 -0.445  -0.418  -0.405  -0.365  -0.329  -0.296  -0.278  -0.259
 -- Virtual --
 -0.064  -0.026   0.001   0.015   0.019   0.024   0.037   0.046
  0.053   0.066   0.070   0.077   0.096   0.103   0.105   0.112
  0.117   0.120   0.130   0.138   0.156   0.166   0.177   0.181
  0.188   0.193   0.197   0.207   0.212   0.226   0.246   0.251
  0.260   0.272   0.279   0.285   0.294   0.303   0.323   0.336
  0.341   0.352   0.403   0.431   0.452   0.612   0.650   0.669
  0.683   0.708   0.723   0.730   0.748   0.760   0.764   0.781
  0.793   0.818   0.849   0.872   0.887   0.911   0.935   0.956
  0.992   0.995   1.017   1.028   1.076   1.097   1.128   1.142
  1.167   1.188   1.236   1.277   1.324   1.365   1.414   1.423
  1.505   1.553   1.594   1.642   1.677   1.721   1.797   1.813
  1.841   1.901   1.926   1.983   2.016   2.043   2.061   2.087
  2.096   2.129   2.200   2.232   2.239   2.268   2.350   2.381
  2.386   2.409   2.410   2.435   2.469   2.498   2.513   2.517
  2.545   2.585   2.600   2.639   2.673   2.680   2.729   2.746
  2.777   2.841   2.883   2.994   3.018   3.118   3.259   3.307
  3.378   3.421   3.611   3.633   4.152   4.370   4.454   4.543
  4.614   4.664   4.757
 --------------------------------------------------------------
 
          Ground-State Mulliken Net Atomic Charges

     Atom                 Charge (a.u.)    Spin (a.u.)
  --------------------------------------------------------
      1 C                    -0.131249      -0.132299
      2 C                    -0.006038       0.922336
      3 C                    -0.156549      -0.092675
      4 C                    -0.073078       0.001349
      5 C                    -0.065623      -0.027167
      6 N                    -0.164386       0.034612
      7 H                     0.128845       0.007684
      8 H                     0.138888      -0.041098
      9 H                     0.140730       0.001205
     10 H                     0.141229       0.010485
     11 H                     0.133052       0.003028
     12 C                    -0.219293       0.296228
     13 H                     0.133471       0.016312
  --------------------------------------------------------
  Sum of atomic charges =     0.000000
  Sum of spin   charges =     1.000000

 -----------------------------------------------------------------
                    Cartesian Multipole Moments
 -----------------------------------------------------------------
    Charge (ESU x 10^10)
                 0.0000
    Dipole Moment (Debye)
         X      -1.9248      Y      -1.8828      Z       0.4290
       Tot       2.7265
    Quadrupole Moments (Debye-Ang)
        XX     -38.7573     XY      -3.8895     YY     -42.8520
        XZ       1.5658     YZ      -0.3041     ZZ     -43.1907
    Octopole Moments (Debye-Ang^2)
       XXX     -14.1755    XXY     -11.5232    XYY     -14.3687
       YYY     -27.0803    XXZ       3.9593    XYZ       3.6391
       YYZ      -2.6463    XZZ      -7.6606    YZZ      -7.8570
       ZZZ       7.1437
    Hexadecapole Moments (Debye-Ang^3)
      XXXX    -260.6464   XXXY     -12.2649   XXYY    -104.4916
      XYYY     -26.7963   YYYY    -333.3968   XXXZ      14.8520
      XXYZ       5.3493   XYYZ       6.7036   YYYZ       5.8294
      XXZZ     -71.8534   XYZZ      -0.3013   YYZZ     -75.1619
      XZZZ       8.0094   YZZZ       2.3999   ZZZZ    -143.1391
 -----------------------------------------------------------------
 Calculating analytic gradient of the SCF energy
 Gradient of SCF Energy
            1           2           3           4           5           6
    1   0.0111718   0.0012142   0.0003829  -0.0016641   0.0008393  -0.0006733
    2   0.0045822  -0.0015910  -0.0002195   0.0011602  -0.0004613   0.0005665
    3  -0.0082878   0.0050613   0.0023739   0.0025358   0.0016144  -0.0001191
            7           8           9          10          11          12
    1   0.0071876  -0.0007187   0.0013786  -0.0006095  -0.0000206  -0.0099499
    2   0.0030472   0.0006411   0.0007361   0.0013127  -0.0006059  -0.0045474
    3  -0.0059813   0.0013743  -0.0020302  -0.0015140   0.0003605   0.0029021
           13
    1  -0.0085382
    2  -0.0046209
    3   0.0017100
 Max gradient component =       1.117E-02
 RMS gradient           =       3.926E-03
 Gradient time:  CPU 17.67 s  wall 13.81 s
rPathMan2.  file_steps = 951
 IRC --- Status = 2.  Assess steepest descent step
 IRC --- Previous SD length =   0.150000
 IRC --- Point 1 E =     -286.828893 |G| =   0.014623 G.D1 =  -0.014623
 IRC --- Point 2 E =     -286.831875 |G| =   0.024517 G.D1 =  -0.024100
 IRC --- Angle(G1/G2) =   10.58 Deg.  Curvature =  -0.0632
 IRC --- Corrector step required
 IRC --- equal length displacement: B_eq =   0.027665
 IRC --- chosen bisector length  : B_len =   0.015000
 ----------------------------------------------------------------
             Standard Nuclear Orientation (Angstroms)
    I     Atom           X                Y                Z
 ----------------------------------------------------------------
    1      C       1.2959052606     0.2656028226     0.3220124834
    2      C       1.0261828079    -0.8446649011    -0.6121649328
    3      C      -0.3993917807    -1.0269214685    -0.3921879614
    4      C      -1.1231688942     0.3356461898     0.0107499416
    5      C      -0.3913861025     1.5492426513    -0.3891945817
    6      N       0.8745077245     1.5413214400    -0.1622896359
    7      H       2.2773291350     0.3226602606     0.8113495461
    8      H       1.7165859561    -1.6655309511    -0.7875343811
    9      H      -1.0012176053    -1.8302265993    -0.8026429899
   10      H      -2.2123139778     0.3274012408    -0.0265089824
   11      H      -0.8653654171     2.3894955299    -0.8884250524
   12      C      -0.3876960702    -0.4611291260     1.0205795777
   13      H      -0.8557128161    -0.9283358298     1.8995698127
 ----------------------------------------------------------------
 Nuclear Repulsion Energy =   277.9899479327 hartrees
 There are       25 alpha and       24 beta electrons

                       Distance Matrix (Angstroms)
             C (  1)   C (  2)   C (  3)   C (  4)   C (  5)   N (  6)
   C (  2)  1.475850
   C (  3)  2.248273  1.453915
   C (  4)  2.440023  2.529994  1.594617
   C (  5)  2.236180  2.791059  2.576178  1.472507
   N (  6)  1.428139  2.432761  2.876029  2.339724  1.286093
   H (  7)  1.098134  2.225850  3.230280  3.493496  3.172988  2.097860
   H (  8)  2.266571  1.086845  2.245325  3.564572  3.864840  3.374008
   H (  9)  3.306679  2.262292  1.084420  2.316783  3.458850  3.910976
   H ( 10)  3.526030  3.493507  2.292291  1.089813  2.222660  3.319715
   H ( 11)  3.263000  3.756869  3.483574  2.256829  1.086238  2.067324
   C ( 12)  1.962307  2.193629  1.521897  1.481731  2.455417  2.646157
   H ( 13)  2.922950  3.139641  2.338825  2.288411  3.404767  3.652962
             H (  7)   H (  8)   H (  9)   H ( 10)   H ( 11)   C ( 12)
   H (  8)  2.612234
   H (  9)  4.241316  2.722831
   H ( 10)  4.567157  4.470704  2.593163
   H ( 11)  4.127659  4.808315  4.222780  2.609483
   C ( 12)  2.785761  3.024543  2.361139  2.246643  3.463889
   H ( 13)  3.544738  3.792190  2.852461  2.669648  4.333707  1.099975

 
 Applying Cartesian multipole field
    Component          Value
    ---------          -----
     (2,0,0)        1.00000E-11
     (0,2,0)        2.00000E-11
     (0,0,2)       -3.00000E-11
 Nucleus-field energy     =     0.0000000039 hartrees
 Requested basis set is 6-31+G(d,p)
 There are 53 shells and 163 basis functions
 A cutoff of  1.0D-14 yielded   1399 shell pairs
 There are     13495 function pairs
 Smallest overlap matrix eigenvalue = 2.69E-05
 Guess MOs from core Hamiltonian diagonalization
 Mixing HOMO and LUMO in initial guess
 Adding  50% of the LUMO to the HOMO
 An unrestricted hybrid HF-DFT SCF calculation will be
 performed using Pulay DIIS extrapolation
 Exchange:     0.2000 Hartree-Fock + 0.0800 Slater + 0.7200 B88
 Correlation:  0.1900 VWN1RPA + 0.8100 LYP
 Using SG-1 standard quadrature grid
 SCF converges when DIIS error is below 1.0E-08
 using 4 threads for integral computing
 -------------------------------------------------------
 OpenMP Integral computing Module                
 Release: version 1.0, May 2013, Q-Chem Inc. Pittsburgh 
 -------------------------------------------------------
 -------------------------------------------------------
 OpenMP BLAS3 based DFT computing Module                
 Release: version 1.0, May 2013, Q-Chem Inc. Pittsburgh 
 -------------------------------------------------------
 ---------------------------------------
  Cycle       Energy         DIIS Error
 ---------------------------------------
    1    -238.6236607086      9.56E-02
    2    -218.2025929761      7.00E-02
    3    -264.0114494307      6.81E-02
    4    -274.7604036496      5.49E-02
    5    -278.9390016143      4.11E-02
    6    -284.6263190288      2.23E-02
    7    -286.0564622886      1.30E-02
    8    -286.5474672107      8.65E-03
    9    -286.7177615638      5.53E-03
   10    -286.8216379314      1.55E-03
   11    -286.8310608399      3.69E-04
   12    -286.8316082798      1.89E-04
   13    -286.8317765460      5.51E-05
   14    -286.8318100025      3.35E-05
   15    -286.8318238019      1.37E-05
   16    -286.8318271746      4.02E-06
   17    -286.8318275035      1.34E-06
   18    -286.8318275266      4.80E-07
   19    -286.8318275377      1.60E-07
   20    -286.8318275446      5.28E-08
   21    -286.8318275465      2.61E-08
   22    -286.8318275468      1.05E-08
   23    -286.8318275468      1.99E-09 Convergence criterion met
 ---------------------------------------
 <S^2> = 0.7621
 SCF time:  CPU 117.95 s  wall 67.06 s
 SCF   energy in the final basis set = -286.83182755
 Total energy in the final basis set = -286.83182755
 
 --------------------------------------------------------------
 
                    Orbital Energies (a.u.)
 --------------------------------------------------------------
 
 Alpha MOs
 -- Occupied --
-14.338 -10.248 -10.235 -10.228 -10.224 -10.222 -10.206  -0.967
 -0.870  -0.768  -0.662  -0.629  -0.578  -0.544  -0.512  -0.472
 -0.449  -0.421  -0.414  -0.369  -0.347  -0.298  -0.281  -0.265
 -0.182
 -- Virtual --
 -0.038  -0.000   0.013   0.019   0.024   0.035   0.046   0.052
  0.065   0.070   0.073   0.096   0.102   0.103   0.110   0.116
  0.117   0.129   0.135   0.155   0.166   0.176   0.180   0.186
  0.193   0.196   0.202   0.211   0.223   0.244   0.248   0.258
  0.270   0.276   0.283   0.291   0.300   0.320   0.333   0.338
  0.349   0.399   0.424   0.448   0.607   0.644   0.665   0.678
  0.689   0.711   0.725   0.747   0.750   0.756   0.779   0.791
  0.815   0.846   0.866   0.885   0.908   0.930   0.954   0.988
  0.992   1.015   1.026   1.073   1.091   1.122   1.136   1.161
  1.181   1.230   1.272   1.320   1.360   1.410   1.421   1.498
  1.551   1.588   1.639   1.671   1.710   1.789   1.806   1.839
  1.891   1.920   1.977   2.006   2.039   2.058   2.081   2.090
  2.121   2.194   2.225   2.234   2.265   2.347   2.378   2.383
  2.402   2.404   2.432   2.466   2.491   2.505   2.514   2.532
  2.578   2.596   2.631   2.665   2.676   2.724   2.744   2.771
  2.837   2.880   2.989   3.016   3.115   3.254   3.299   3.372
  3.416   3.607   3.629   4.152   4.364   4.440   4.536   4.611
  4.662   4.752
 
 Beta MOs
 -- Occupied --
-14.337 -10.249 -10.235 -10.225 -10.222 -10.222 -10.194  -0.963
 -0.864  -0.758  -0.652  -0.627  -0.572  -0.541  -0.503  -0.469
 -0.445  -0.418  -0.405  -0.366  -0.329  -0.296  -0.278  -0.258
 -- Virtual --
 -0.064  -0.027   0.000   0.015   0.019   0.024   0.037   0.046
  0.053   0.066   0.070   0.077   0.096   0.103   0.105   0.112
  0.117   0.120   0.130   0.138   0.157   0.166   0.177   0.181
  0.188   0.193   0.197   0.207   0.212   0.226   0.246   0.251
  0.260   0.272   0.279   0.285   0.294   0.304   0.323   0.336
  0.341   0.353   0.404   0.431   0.452   0.610   0.650   0.669
  0.682   0.709   0.723   0.730   0.748   0.760   0.765   0.781
  0.793   0.819   0.849   0.871   0.887   0.910   0.934   0.956
  0.992   0.995   1.017   1.027   1.076   1.097   1.127   1.142
  1.166   1.188   1.236   1.277   1.324   1.365   1.414   1.423
  1.504   1.552   1.594   1.642   1.676   1.722   1.797   1.814
  1.844   1.901   1.929   1.984   2.015   2.044   2.062   2.087
  2.097   2.130   2.200   2.234   2.238   2.268   2.350   2.381
  2.386   2.408   2.409   2.436   2.469   2.498   2.512   2.517
  2.545   2.585   2.598   2.639   2.674   2.680   2.727   2.747
  2.775   2.840   2.884   2.993   3.019   3.116   3.257   3.301
  3.375   3.418   3.611   3.633   4.152   4.370   4.454   4.545
  4.614   4.664   4.758
 --------------------------------------------------------------
 
          Ground-State Mulliken Net Atomic Charges

     Atom                 Charge (a.u.)    Spin (a.u.)
  --------------------------------------------------------
      1 C                    -0.131168      -0.133187
      2 C                    -0.003563       0.916520
      3 C                    -0.158103      -0.092346
      4 C                    -0.071204       0.000260
      5 C                    -0.067147      -0.027639
      6 N                    -0.164838       0.035335
      7 H                     0.128812       0.007916
      8 H                     0.139160      -0.041186
      9 H                     0.140848       0.001182
     10 H                     0.141421       0.010865
     11 H                     0.133463       0.003001
     12 C                    -0.221043       0.302930
     13 H                     0.133364       0.016348
  --------------------------------------------------------
  Sum of atomic charges =     0.000000
  Sum of spin   charges =     1.000000

 -----------------------------------------------------------------
                    Cartesian Multipole Moments
 -----------------------------------------------------------------
    Charge (ESU x 10^10)
                 0.0000
    Dipole Moment (Debye)
         X      -1.9367      Y      -1.8866      Z       0.4200
       Tot       2.7361
    Quadrupole Moments (Debye-Ang)
        XX     -38.7968     XY      -3.9013     YY     -42.8406
        XZ       1.5664     YZ      -0.3163     ZZ     -43.1840
    Octopole Moments (Debye-Ang^2)
       XXX     -14.2259    XXY     -11.5453    XYY     -14.4075
       YYY     -27.1038    XXZ       3.9494    XYZ       3.6320
       YYZ      -2.6779    XZZ      -7.6453    YZZ      -7.8633
       ZZZ       7.1877
    Hexadecapole Moments (Debye-Ang^3)
      XXXX    -261.0163   XXXY     -12.3054   XXYY    -104.4938
      XYYY     -26.8663   YYYY    -333.0927   XXXZ      14.8142
      XXYZ       5.3497   XYYZ       6.7147   YYYZ       5.7218
      XXZZ     -71.8452   XYZZ      -0.3318   YYZZ     -75.0917
      XZZZ       7.9922   YZZZ       2.3861   ZZZZ    -142.8651
 -----------------------------------------------------------------
 Calculating analytic gradient of the SCF energy
 Gradient of SCF Energy
            1           2           3           4           5           6
    1   0.0078405  -0.0016164   0.0011231   0.0012808  -0.0049046   0.0046269
    2   0.0027022   0.0036498  -0.0003656   0.0006566   0.0000260  -0.0005882
    3  -0.0121027   0.0081320   0.0018106   0.0029406   0.0002229   0.0016575
            7           8           9          10          11          12
    1   0.0087178   0.0012259   0.0013255  -0.0018246   0.0004335  -0.0099912
    2   0.0033395  -0.0018955   0.0008481   0.0013373  -0.0011895  -0.0039412
    3  -0.0047276   0.0008331  -0.0017135  -0.0015247   0.0007111   0.0018717
           13
    1  -0.0082372
    2  -0.0045794
    3   0.0018890
 Max gradient component =       1.210E-02
 RMS gradient           =       4.245E-03
 Gradient time:  CPU 17.84 s  wall 5.44 s
rPathMan2.  file_steps = 951
 IRC --- Status = 3.  Assess initial corrector step
 IRC --- bisector search: b =  0.000000 E =     -286.831875 G.B =  -0.002261
 IRC --- bisector search: b =  0.015000 E =     -286.831828 G.B =   0.008641
 IRC --- performed gradient/energy interpolation
 IRC --- bisector search:  estimate b(min) =   3.107758854312307E-003
 ----------------------------------------------------------------
             Standard Nuclear Orientation (Angstroms)
    I     Atom           X                Y                Z
 ----------------------------------------------------------------
    1      C       1.2965132164     0.2662301498     0.3250551865
    2      C       1.0274863843    -0.8467349859    -0.6143572857
    3      C      -0.3994954236    -1.0268580620    -0.3911004562
    4      C      -1.1241979959     0.3357509734     0.0108165047
    5      C      -0.3895812987     1.5491347841    -0.3886974360
    6      N       0.8731919742     1.5417497520    -0.1637729163
    7      H       2.2773276895     0.3232525296     0.8100305357
    8      H       1.7159873778    -1.6646774586    -0.7875346554
    9      H      -1.0010507834    -1.8300374425    -0.8029105648
   10      H      -2.2117489417     0.3276580668    -0.0266840445
   11      H      -0.8655713256     2.3894567660    -0.8884067525
   12      C      -0.3870969714    -0.4615194761     1.0216011410
   13      H      -0.8575056815    -0.9288443373     1.8992735875
 ----------------------------------------------------------------
 Nuclear Repulsion Energy =   277.8971599225 hartrees
 There are       25 alpha and       24 beta electrons

                       Distance Matrix (Angstroms)
             C (  1)   C (  2)   C (  3)   C (  4)   C (  5)   N (  6)
   C (  2)  1.481068
   C (  3)  2.249756  1.455529
   C (  4)  2.442012  2.533547  1.594815
   C (  5)  2.235666  2.792704  2.576013  1.473626
   N (  6)  1.430071  2.435507  2.875614  2.339761  1.282670
   H (  7)  1.095650  2.227073  3.229690  3.494177  3.170511  2.098720
   H (  8)  2.267646  1.083076  2.244825  3.564510  3.862781  3.373508
   H (  9)  3.308390  2.262167  1.084691  2.316885  3.458941  3.910273
   H ( 10)  3.526386  3.495312  2.291675  1.088227  2.223365  3.318083
   H ( 11)  3.264229  3.759216  3.483640  2.256811  1.087390  2.065672
   C ( 12)  1.961973  2.196770  1.521673  1.483457  2.455948  2.646985
   H ( 13)  2.923382  3.142973  2.337775  2.288361  3.405018  3.654492
             H (  7)   H (  8)   H (  9)   H ( 10)   H ( 11)   C ( 12)
   H (  8)  2.611357
   H (  9)  4.240991  2.722109
   H ( 10)  4.566390  4.469386  2.593061
   H ( 11)  4.126948  4.807351  4.222534  2.608788
   C ( 12)  2.785640  3.023826  2.361911  2.247456  3.464842
   H ( 13)  3.547024  3.792526  2.852114  2.668724  4.333861  1.099994

 
 Applying Cartesian multipole field
    Component          Value
    ---------          -----
     (2,0,0)        1.00000E-11
     (0,2,0)        2.00000E-11
     (0,0,2)       -3.00000E-11
 Nucleus-field energy     =     0.0000000039 hartrees
 Requested basis set is 6-31+G(d,p)
 There are 53 shells and 163 basis functions
 A cutoff of  1.0D-14 yielded   1399 shell pairs
 There are     13495 function pairs
 Smallest overlap matrix eigenvalue = 2.72E-05
 Guess MOs from core Hamiltonian diagonalization
 Mixing HOMO and LUMO in initial guess
 Adding  50% of the LUMO to the HOMO
 An unrestricted hybrid HF-DFT SCF calculation will be
 performed using Pulay DIIS extrapolation
 Exchange:     0.2000 Hartree-Fock + 0.0800 Slater + 0.7200 B88
 Correlation:  0.1900 VWN1RPA + 0.8100 LYP
 Using SG-1 standard quadrature grid
[...]
 -0.878  -0.776  -0.677  -0.651  -0.579  -0.540  -0.500  -0.493
 -0.460  -0.436  -0.388  -0.381  -0.370  -0.308  -0.267  -0.241
 -0.227
 -- Virtual --
 -0.048  -0.001   0.015   0.022   0.026   0.032   0.047   0.050
  0.068   0.073   0.075   0.092   0.099   0.112   0.115   0.121
  0.124   0.129   0.138   0.148   0.168   0.175   0.180   0.187
  0.193   0.198   0.201   0.211   0.225   0.233   0.254   0.263
  0.268   0.282   0.287   0.300   0.309   0.321   0.329   0.335
  0.353   0.387   0.463   0.504   0.593   0.629   0.649   0.668
  0.681   0.709   0.714   0.727   0.737   0.749   0.770   0.778
  0.823   0.835   0.883   0.898   0.925   0.935   0.950   0.984
  0.993   1.017   1.064   1.089   1.099   1.106   1.131   1.150
  1.182   1.204   1.239   1.309   1.352   1.375   1.436   1.473
  1.500   1.524   1.558   1.653   1.689   1.760   1.799   1.806
  1.864   1.880   1.902   1.960   1.982   2.008   2.075   2.090
  2.129   2.146   2.188   2.229   2.270   2.292   2.371   2.391
  2.405   2.417   2.438   2.456   2.476   2.507   2.520   2.528
  2.559   2.596   2.625   2.668   2.690   2.718   2.740   2.813
  2.869   2.935   3.015   3.179   3.216   3.279   3.293   3.366
  3.444   3.567   3.710   4.196   4.304   4.339   4.476   4.502
  4.577   4.734
 
 Beta MOs
 -- Occupied --
-14.336 -10.239 -10.235 -10.232 -10.217 -10.216 -10.205  -0.944
 -0.868  -0.773  -0.669  -0.649  -0.565  -0.535  -0.497  -0.483
 -0.456  -0.433  -0.386  -0.379  -0.362  -0.299  -0.262  -0.236
 -- Virtual --
 -0.089  -0.045   0.001   0.015   0.023   0.027   0.033   0.048
  0.050   0.072   0.073   0.078   0.093   0.099   0.113   0.115
  0.123   0.125   0.129   0.138   0.149   0.168   0.176   0.183
  0.190   0.194   0.200   0.206   0.213   0.228   0.235   0.258
  0.263   0.270   0.283   0.291   0.302   0.310   0.326   0.335
  0.340   0.360   0.394   0.465   0.505   0.599   0.633   0.667
  0.676   0.693   0.711   0.715   0.731   0.742   0.751   0.778
  0.791   0.829   0.840   0.886   0.900   0.927   0.938   0.952
  0.988   0.997   1.018   1.072   1.092   1.101   1.113   1.136
  1.152   1.184   1.208   1.244   1.313   1.355   1.379   1.445
  1.478   1.501   1.528   1.564   1.659   1.695   1.775   1.804
  1.817   1.883   1.889   1.905   1.967   1.986   2.014   2.083
  2.099   2.130   2.165   2.192   2.232   2.273   2.297   2.373
  2.394   2.408   2.420   2.441   2.459   2.480   2.510   2.523
  2.534   2.562   2.610   2.629   2.671   2.698   2.725   2.747
  2.821   2.875   2.940   3.019   3.180   3.217   3.284   3.295
  3.369   3.448   3.577   3.711   4.196   4.309   4.340   4.495
  4.515   4.580   4.735
 --------------------------------------------------------------
 
          Ground-State Mulliken Net Atomic Charges

     Atom                 Charge (a.u.)    Spin (a.u.)
  --------------------------------------------------------
      1 C                    -0.251318      -0.037465
      2 C                     0.073359       0.053797
      3 C                    -0.142674      -0.033056
      4 C                    -0.020339       0.026981
      5 C                    -0.052435      -0.051046
      6 N                    -0.181762       0.017933
      7 H                     0.124839       0.000897
      8 H                     0.133228       0.002862
      9 H                     0.144120       0.016853
     10 H                     0.144138       0.024469
     11 H                     0.128010       0.005074
     12 C                    -0.247623       0.995212
     13 H                     0.148457      -0.022510
  --------------------------------------------------------
  Sum of atomic charges =    -0.000000
  Sum of spin   charges =     1.000000

 -----------------------------------------------------------------
                    Cartesian Multipole Moments
 -----------------------------------------------------------------
    Charge (ESU x 10^10)
                -0.0000
    Dipole Moment (Debye)
         X      -2.1398      Y      -2.2440      Z      -0.3199
       Tot       3.1172
    Quadrupole Moments (Debye-Ang)
        XX     -37.9112     XY      -3.2178     YY     -43.0512
        XZ      -0.3999     YZ       0.2589     ZZ     -43.8428
    Octopole Moments (Debye-Ang^2)
       XXX     -13.4432    XXY     -11.0317    XYY     -15.1206
       YYY     -30.8411    XXZ      -1.3510    XYZ       3.6841
       YYZ      -3.1478    XZZ      -8.8173    YZZ      -8.6576
       ZZZ      -3.9201
    Hexadecapole Moments (Debye-Ang^3)
      XXXX    -336.7326   XXXY     -20.2055   XXYY    -121.6545
      XYYY     -45.5249   YYYY    -358.5716   XXXZ      30.0805
      XXYZ       3.9487   XYYZ      11.8710   YYYZ      20.2504
      XXZZ     -81.2845   XYZZ      -3.0856   YYZZ     -77.8340
      XZZZ      30.8796   YZZZ      14.7791   ZZZZ    -120.0520
 -----------------------------------------------------------------
 Calculating analytic gradient of the SCF energy
 Gradient of SCF Energy
            1           2           3           4           5           6
    1   0.0017773  -0.0002937  -0.0004462  -0.0005526   0.0028983  -0.0025418
    2   0.0016326  -0.0009485   0.0003648   0.0004403  -0.0002501  -0.0005149
    3   0.0002603  -0.0003028   0.0004338  -0.0004805   0.0000222  -0.0000057
            7           8           9          10          11          12
    1  -0.0011256   0.0000114  -0.0002461   0.0001201  -0.0003746  -0.0001867
    2  -0.0003527  -0.0000363  -0.0001352  -0.0000880   0.0003749  -0.0008815
    3   0.0005258  -0.0000379  -0.0004837   0.0003047  -0.0005240   0.0004390
           13
    1   0.0009600
    2   0.0003945
    3  -0.0001512
 Max gradient component =       2.898E-03
 RMS gradient           =       8.499E-04
 Gradient time:  CPU 16.99 s  wall 5.18 s
rPathMan2.  file_steps = 952
 IRC --- Status = 3.  Assess initial corrector step
 IRC --- bisector search: b =  0.000000 E =     -286.876405 G.B =  -0.002161
 IRC --- bisector search: b =  0.009663 E =     -286.876394 G.B =   0.004407
 IRC --- performed gradient/energy interpolation
 IRC --- bisector search:  estimate b(min) =   3.182676593076842E-003
 ----------------------------------------------------------------
             Standard Nuclear Orientation (Angstroms)
    I     Atom           X                Y                Z
 ----------------------------------------------------------------
    1      C       1.6726356852     0.4024927058    -0.1440338710
    2      C       1.1245045201    -0.8304792601    -0.2699356783
    3      C      -0.3168396244    -1.0692243879    -0.1080810380
    4      C      -1.1671341584     0.3266186545     0.0492677605
    5      C      -0.3448684868     1.5300885188    -0.1576363527
    6      N       0.9443683625     1.5916159497    -0.1508227081
    7      H       2.7499928199     0.5354444618    -0.1758755344
    8      H       1.7555415812    -1.6847127132    -0.4998888114
    9      H      -0.7562232948    -1.8992276316    -0.6630271271
   10      H      -2.1793306105     0.3871683945    -0.3547500944
   11      H      -0.8833524660     2.4483642498    -0.3998791306
   12      C      -0.9522144492    -0.6328955002     1.1322498293
   13      H      -1.6928216537    -1.1306921735     1.7457255990
 ----------------------------------------------------------------
 Nuclear Repulsion Energy =   269.1065840432 hartrees
 There are       25 alpha and       24 beta electrons

                       Distance Matrix (Angstroms)
             C (  1)   C (  2)   C (  3)   C (  4)   C (  5)   N (  6)
   C (  2)  1.355182
   C (  3)  2.474925  1.469921
   C (  4)  2.847352  2.586962  1.641992
   C (  5)  2.311272  2.782795  2.599936  1.472165
   N (  6)  1.394429  2.431704  2.944918  2.469554  1.290722
   H (  7)  1.085997  2.125278  3.461939  3.929145  3.250818  2.091986
   H (  8)  2.118946  1.086647  2.197067  3.590134  3.855361  3.393255
   H (  9)  3.386241  2.198609  1.090838  2.372889  3.490679  3.916676
   H ( 10)  3.857756  3.522100  2.377141  1.091530  2.170339  3.354069
   H ( 11)  3.283919  3.846972  3.574844  2.187252  1.091731  2.033866
   C ( 12)  3.096896  2.513548  1.460310  1.462774  2.590594  3.192452
   H ( 13)  4.153089  3.477117  2.309481  2.297405  3.538293  4.238234
             H (  7)   H (  8)   H (  9)   H ( 10)   H ( 11)   C ( 12)
   H (  8)  2.454183
   H (  9)  4.296335  2.526182
   H ( 10)  4.934796  4.449379  2.710697
   H ( 11)  4.112255  4.904701  4.357403  2.435185
   C ( 12)  4.096651  3.331987  2.205681  2.181172  3.441849
   H ( 13)  5.119293  4.152220  2.696285  2.636776  4.250706  1.082891

 
 Applying Cartesian multipole field
    Component          Value
    ---------          -----
     (2,0,0)        1.00000E-11
     (0,2,0)        2.00000E-11
     (0,0,2)       -3.00000E-11
 Nucleus-field energy     =     0.0000000053 hartrees
 Requested basis set is 6-31+G(d,p)
 There are 53 shells and 163 basis functions
 A cutoff of  1.0D-14 yielded   1381 shell pairs
 There are     13441 function pairs
 Smallest overlap matrix eigenvalue = 2.91E-05
 Guess MOs from core Hamiltonian diagonalization
 Mixing HOMO and LUMO in initial guess
 Adding  50% of the LUMO to the HOMO
 An unrestricted hybrid HF-DFT SCF calculation will be
 performed using Pulay DIIS extrapolation
 Exchange:     0.2000 Hartree-Fock + 0.0800 Slater + 0.7200 B88
 Correlation:  0.1900 VWN1RPA + 0.8100 LYP
 Using SG-1 standard quadrature grid
 SCF converges when DIIS error is below 1.0E-08
 using 4 threads for integral computing
 -------------------------------------------------------
 OpenMP Integral computing Module                
 Release: version 1.0, May 2013, Q-Chem Inc. Pittsburgh 
 -------------------------------------------------------
 -------------------------------------------------------
 OpenMP BLAS3 based DFT computing Module                
 Release: version 1.0, May 2013, Q-Chem Inc. Pittsburgh 
 -------------------------------------------------------
 ---------------------------------------
  Cycle       Energy         DIIS Error
 ---------------------------------------
    1    -237.7525275903      9.40E-02
    2    -218.8123983482      7.18E-02
    3    -250.8886249293      7.77E-02
    4    -276.4155471435      5.37E-02
    5    -279.6567267539      4.31E-02
    6    -284.5462816013      2.13E-02
    7    -286.2937314083      1.27E-02
    8    -286.6871153179      7.24E-03
    9    -286.8614574809      2.01E-03
   10    -286.8730702915      9.17E-04
   11    -286.8760689737      3.07E-04
   12    -286.8763465845      1.27E-04
   13    -286.8764050794      1.32E-05
   14    -286.8764075478      6.14E-06
   15    -286.8764082633      2.85E-06
   16    -286.8764084535      5.18E-07
   17    -286.8764085660      1.47E-07
   18    -286.8764085914      5.47E-08
   19    -286.8764085972      1.93E-08
   20    -286.8764085995      1.05E-08
   21    -286.8764086001      6.86E-09 Convergence criterion met
 ---------------------------------------
 <S^2> = 0.7535
 SCF time:  CPU 104.76 s  wall 55.40 s
 SCF   energy in the final basis set = -286.87640860
 Total energy in the final basis set = -286.87640860
 
 --------------------------------------------------------------
 
                    Orbital Energies (a.u.)
 --------------------------------------------------------------
 
 Alpha MOs
 -- Occupied --
-14.336 -10.240 -10.235 -10.232 -10.230 -10.217 -10.206  -0.946
 -0.878  -0.776  -0.677  -0.651  -0.579  -0.540  -0.499  -0.493
 -0.460  -0.436  -0.388  -0.381  -0.370  -0.308  -0.267  -0.241
 -0.228
 -- Virtual --
 -0.048  -0.001   0.015   0.021   0.026   0.032   0.047   0.050
  0.068   0.073   0.075   0.092   0.099   0.112   0.115   0.121
  0.124   0.129   0.138   0.148   0.168   0.175   0.180   0.187
  0.193   0.198   0.201   0.211   0.225   0.233   0.254   0.262
  0.268   0.282   0.288   0.300   0.309   0.321   0.329   0.335
  0.353   0.387   0.463   0.504   0.593   0.628   0.648   0.668
  0.681   0.709   0.714   0.727   0.737   0.749   0.769   0.778
  0.823   0.835   0.884   0.898   0.926   0.935   0.950   0.984
  0.993   1.017   1.064   1.089   1.099   1.106   1.131   1.149
  1.182   1.204   1.239   1.309   1.353   1.375   1.436   1.473
  1.500   1.524   1.558   1.653   1.690   1.760   1.799   1.807
  1.864   1.880   1.901   1.960   1.982   2.009   2.076   2.089
  2.129   2.146   2.187   2.229   2.269   2.291   2.370   2.390
  2.405   2.417   2.438   2.456   2.476   2.507   2.520   2.528
  2.560   2.595   2.625   2.668   2.690   2.718   2.740   2.812
  2.869   2.935   3.015   3.178   3.216   3.278   3.293   3.366
  3.444   3.566   3.709   4.195   4.305   4.339   4.476   4.502
  4.577   4.734
 
 Beta MOs
 -- Occupied --
-14.336 -10.239 -10.235 -10.232 -10.217 -10.216 -10.205  -0.944
 -0.868  -0.774  -0.669  -0.649  -0.565  -0.535  -0.497  -0.483
 -0.456  -0.433  -0.386  -0.379  -0.362  -0.299  -0.263  -0.236
 -- Virtual --
 -0.090  -0.045   0.001   0.015   0.023   0.027   0.033   0.048
  0.050   0.072   0.073   0.078   0.093   0.099   0.113   0.115
  0.123   0.125   0.129   0.138   0.149   0.168   0.176   0.183
  0.190   0.194   0.200   0.206   0.213   0.228   0.235   0.258
  0.263   0.270   0.284   0.291   0.302   0.310   0.326   0.335
  0.340   0.360   0.394   0.465   0.505   0.599   0.633   0.666
  0.676   0.693   0.711   0.715   0.731   0.742   0.751   0.778
  0.791   0.829   0.840   0.886   0.900   0.927   0.938   0.952
  0.987   0.997   1.017   1.072   1.092   1.101   1.112   1.136
  1.151   1.185   1.208   1.244   1.313   1.355   1.379   1.445
  1.478   1.501   1.528   1.564   1.659   1.696   1.775   1.803
  1.817   1.883   1.889   1.905   1.968   1.986   2.014   2.083
  2.099   2.130   2.165   2.191   2.232   2.272   2.296   2.372
  2.394   2.408   2.420   2.441   2.459   2.480   2.509   2.523
  2.534   2.563   2.609   2.628   2.670   2.698   2.725   2.746
  2.819   2.875   2.940   3.018   3.179   3.216   3.283   3.294
  3.369   3.447   3.576   3.710   4.195   4.309   4.340   4.495
  4.514   4.579   4.735
 --------------------------------------------------------------
 
          Ground-State Mulliken Net Atomic Charges

     Atom                 Charge (a.u.)    Spin (a.u.)
  --------------------------------------------------------
      1 C                    -0.252439      -0.037595
      2 C                     0.074535       0.053732
      3 C                    -0.144252      -0.032894
      4 C                    -0.018954       0.027003
      5 C                    -0.053228      -0.051087
      6 N                    -0.181730       0.017863
      7 H                     0.124840       0.000894
      8 H                     0.133256       0.002861
      9 H                     0.144222       0.016705
     10 H                     0.144174       0.024641
     11 H                     0.128233       0.005025
     12 C                    -0.247201       0.995294
     13 H                     0.148544      -0.022442
  --------------------------------------------------------
  Sum of atomic charges =    -0.000000
  Sum of spin   charges =     1.000000

 -----------------------------------------------------------------
                    Cartesian Multipole Moments
 -----------------------------------------------------------------
    Charge (ESU x 10^10)
                -0.0000
    Dipole Moment (Debye)
         X      -2.1491      Y      -2.2480      Z      -0.3207
       Tot       3.1265
    Quadrupole Moments (Debye-Ang)
        XX     -37.9218     XY      -3.2315     YY     -43.0510
        XZ      -0.4007     YZ       0.2601     ZZ     -43.8470
    Octopole Moments (Debye-Ang^2)
       XXX     -13.4909    XXY     -11.0495    XYY     -15.1560
       YYY     -30.8588    XXZ      -1.3527    XYZ       3.6841
       YYZ      -3.1539    XZZ      -8.8212    YZZ      -8.6675
       ZZZ      -3.9243
    Hexadecapole Moments (Debye-Ang^3)
      XXXX    -336.8527   XXXY     -20.2245   XXYY    -121.6783
      XYYY     -45.5879   YYYY    -358.5896   XXXZ      30.0875
      XXYZ       3.9365   XYYZ      11.8803   YYYZ      20.2352
      XXZZ     -81.2833   XYZZ      -3.0933   YYZZ     -77.8572
      XZZZ      30.9039   YZZZ      14.7739   ZZZZ    -120.0609
 -----------------------------------------------------------------
 Calculating analytic gradient of the SCF energy
 Gradient of SCF Energy
            1           2           3           4           5           6
    1  -0.0000827  -0.0003032   0.0002732  -0.0000570   0.0000489  -0.0002463
    2  -0.0001416  -0.0003981  -0.0000789  -0.0000153  -0.0000248   0.0002815
    3   0.0001597  -0.0000604  -0.0004748   0.0000865  -0.0001200  -0.0000111
            7           8           9          10          11          12
    1   0.0001461  -0.0001152  -0.0001089  -0.0000891   0.0000338   0.0002202
    2   0.0000057   0.0001330   0.0002137   0.0000060  -0.0000795   0.0001690
    3   0.0004873   0.0000134  -0.0002244   0.0001746  -0.0003665  -0.0000627
           13
    1   0.0002802
    2  -0.0000707
    3   0.0003984
 Max gradient component =       4.873E-04
 RMS gradient           =       2.077E-04
 Gradient time:  CPU 16.89 s  wall 4.57 s
rPathMan2.  file_steps = 952
 IRC --- Status = 4.  Checking bisector search.
 IRC --- Bisector search finished successfully.
 ------------------------------------------------------------------------
 Reaction path following.  The coordinates are cartesian              
 Step  51 E=    -286.876409 |G|=  0.001297 S_lin= 3.3339 S_tot= 3.8686
 ------------------------------------------------------------------------
  IRC -- maximum number of cycles reached.
  IRC -- but gradient not converged
  IRC -- recommend geom opt from this point
 ----------------------------------------------------------------
             Standard Nuclear Orientation (Angstroms)
    I     Atom           X                Y                Z
 ----------------------------------------------------------------
    1      C       1.3671138301     0.2915646631     0.2562294130
    2      C       1.0306215280    -0.8469022956    -0.5697244840
    3      C      -0.3971554733    -1.0280557654    -0.3809151903
    4      C      -1.1309559008     0.3430063874     0.0255971610
    5      C      -0.3915608927     1.5466501493    -0.3801693408
    6      N       0.8740001741     1.5430637700    -0.1562367706
    7      H       2.3212675781     0.3393828639     0.7774155469
    8      H       1.7130595547    -1.6632018612    -0.7776282900
    9      H      -0.9928724149    -1.8263145952    -0.8142595419
   10      H      -2.2177655313     0.3343249773    -0.0354882777
   11      H      -0.8648030414     2.3857034573    -0.8861017238
   12      C      -0.4558275421    -0.4897744040     1.0334147233
   13      H      -0.9008636479    -0.9548860878     1.9111796187
 ----------------------------------------------------------------
 Nuclear Repulsion Energy =   276.9186605705 hartrees
 There are       25 alpha and       24 beta electrons
 Here is where we should summarize the reaction path
Archival summary:
1\1\c8-73\JobtypUnspecified\ProcedureUnspecified\6-31+G**\166(2)\hpark21\WedMar209:20:532022WedMar209:20:532022\0\\#,JobtypUnspecified,ProcedureUnspecified,6-31+G**,\\0,2\N\C,1,1.28523\H,2,1.08809,1,120.76\C,1,1.40696,2,113.496,3,-167.97,0\H,4,1.08827,1,114.117,2,-159.448,0\C,4,1.44621,1,116.824,2,51.7808,0\H,6,1.08411,4,123.766,1,141.846,0\C,6,1.45156,4,104.644,1,-68.9814,0\H,8,1.08622,6,125.399,4,-176.91,0\C,2,1.46973,1,116.423,3,177.269,0\H,10,1.08856,2,119.558,1,173.107,0\C,10,1.4714,2,114.947,1,20.5269,0\H,12,1.08851,10,127.342,2,136.445,0\\\@

 Total job time:  19359.98s(wall), 33467.13s(cpu) 
 Wed Mar  2 09:20:53 2022

        *************************************************************
        *                                                           *
        *  Thank you very much for using Q-Chem.  Have a nice day.  *
        *                                                           *
        *************************************************************


