
Running Job 1 of 1 qcopt_prd.in
qchem qcopt_prd.in_5694.0 ./qcopt_prd.d/ 1
/home/leeping/opt/qchem/5.0.2-openmp/exe/qcprog.exe_s qcopt_prd.in_5694.0 ./qcopt_prd.d/
Check license passed

                  Welcome to Q-Chem
     A Quantum Leap Into The Future Of Chemistry


 Q-Chem 5.0, Q-Chem, Inc., Pleasanton, CA (2017)

 Yihan Shao,  Zhengting Gan,  E. Epifanovsky,  A. T. B. Gilbert,  M. Wormit,  
 J. Kussmann,  A. W. Lange,  A. Behn,  Jia Deng,  Xintian Feng,  D. Ghosh,  
 M. Goldey,  P. R. Horn,  L. D. Jacobson,  I. Kaliman,  T. Kus,  A. Landau,  
 Jie Liu,  E. I. Proynov,  R. M. Richard,  R. P. Steele,  E. J. Sundstrom,  
 H. L. Woodcock III,  P. M. Zimmerman,  D. Zuev,  B. Albrecht,  E. Alguire,  
 S. A. Baeppler,  D. Barton,  Z. Benda,  Y. A. Bernard,  E. J. Berquist,  
 K. B. Bravaya,  H. Burton,  D. Casanova,  Chun-Min Chang,  Yunqing Chen,  
 A. Chien,  K. D. Closser,  M. P. Coons,  S. Dasgupta,  A. L. Dempwolff,  
 M. Diedenhofen,  Hainam Do,  R. G. Edgar,  Po-Tung Fang,  S. Fatehi,  
 Qingguo Feng,  J. Fosso-Tande,  Qinghui Ge,  A. Ghysels,  G. Gidofalvi,  
 J. Gomes,  J. Gonthier,  A. Gunina,  M. W. D. Hanson-Heine,  
 P. H. P. Harbach,  A. W. Hauser,  J. E. Herr,  E. G. Hohenstein,  
 Z. C. Holden,  Kerwin Hui,  T.-C. Jagau,  Hyunjun Ji,  B. Kaduk,  
 K. Khistyaev,  Jaehoon Kim,  P. Klunzinger,  K. Koh,  D. Kosenkov,  
 L. Koulias,  T. Kowalczyk,  C. M. Krauter,  A. Kunitsa,  Ka Un Lao,  
 A. Laurent,  K. V. Lawler,  Joonho Lee,  D. Lefrancois,  S. Lehtola,  
 D. S. Levine,  Yi-Pei Li,  You-Sheng Lin,  Fenglai Liu,  E. Livshits,  
 A. Luenser,  P. Manohar,  E. Mansoor,  S. F. Manzer,  Shan-Ping Mao,  
 Yuezhi Mao,  N. Mardirossian,  A. V. Marenich,  T. Markovich,  
 L. A. Martinez-Martinez,  S. A. Maurer,  N. J. Mayhall,  S. C. McKenzie,  
 J.-M. Mewes,  A. F. Morrison,  J. W. Mullinax,  K. Nanda,  
 T. S. Nguyen-Beck,  R. Olivares-Amaya,  J. A. Parkhill,  T. M. Perrine,  
 F. Plasser,  S. Prager,  A. Prociuk,  E. Ramos,  D. R. Rehn,  F. Rob,  
 M. Schneider,  N. Sergueev,  S. M. Sharada,  S. Sharma,  D. W. Small,  
 T. Stauch,  T. Stein,  Yu-Chuan Su,  A. J. W. Thom,  A. Tkatchenko,  
 T. Tsuchimochi,  L. Vogt,  O. Vydrov,  M. A. Watson,  J. Wenzel,  
 M. de Wergifosse,  T. A. Wesolowski,  A. White,  J. Witte,  A. Yamada,  
 Jun Yang,  K. Yao,  S. Yeganeh,  S. R. Yost,  Zhi-Qiang You,  A. Zech,  
 Igor Ying Zhang,  Xing Zhang,  Yan Zhao,  Ying Zhu,  B. R. Brooks,  
 G. K. L. Chan,  C. J. Cramer,  M. S. Gordon,  W. J. Hehre,  A. Klamt,  
 M. W. Schmidt,  C. D. Sherrill,  D. G. Truhlar,  A. Aspuru-Guzik,  R. Baer,  
 A. T. Bell,  N. A. Besley,  Jeng-Da Chai,  R. A. DiStasio Jr.,  A. Dreuw,  
 B. D. Dunietz,  T. R. Furlani,  Chao-Ping Hsu,  Yousung Jung,  Jing Kong,  
 D. S. Lambrecht,  WanZhen Liang,  C. Ochsenfeld,  V. A. Rassolov,  
 L. V. Slipchenko,  J. E. Subotnik,  T. Van Voorhis,  J. M. Herbert,  
 A. I. Krylov,  P. M. W. Gill,  M. Head-Gordon

 Contributors to earlier versions of Q-Chem not listed above: 
 R. D. Adamson,  B. Austin,  J. Baker,  G. J. O. Beran,  K. Brandhorst,  
 S. T. Brown,  E. F. C. Byrd,  A. K. Chakraborty,  C.-L. Cheng,  
 Siu Hung Chien,  D. M. Chipman,  D. L. Crittenden,  H. Dachsel,  
 R. J. Doerksen,  A. D. Dutoi,  L. Fusti-Molnar,  W. A. Goddard III,  
 A. Golubeva-Zadorozhnaya,  S. R. Gwaltney,  G. Hawkins,  A. Heyden,  
 S. Hirata,  G. Kedziora,  F. J. Keil,  C. Kelley,  Jihan Kim,  R. A. King,  
 R. Z. Khaliullin,  P. P. Korambath,  W. Kurlancheek,  A. M. Lee,  M. S. Lee,  
 S. V. Levchenko,  Ching Yeh Lin,  D. Liotard,  R. C. Lochan,  I. Lotan,  
 P. E. Maslen,  N. Nair,  D. P. O'Neill,  D. Neuhauser,  E. Neuscamman,  
 C. M. Oana,  R. Olson,  B. Peters,  R. Peverati,  P. A. Pieniazek,  
 Y. M. Rhee,  J. Ritchie,  M. A. Rohrdanz,  E. Rosta,  N. J. Russ,  
 H. F. Schaefer III,  N. E. Schultz,  N. Shenvi,  A. C. Simmonett,  A. Sodt,  
 D. Stuck,  K. S. Thanthiriwatte,  V. Vanovschi,  Tao Wang,  A. Warshel,  
 C. F. Williams,  Q. Wu,  X. Xu,  W. Zhang

 Please cite Q-Chem as follows:
 Y. Shao et al., Mol. Phys. 113, 184-215 (2015)
 DOI: 10.1080/00268976.2014.952696

 Q-Chem 5.0.2 for Intel X86 EM64T Linux

 Parts of Q-Chem use Armadillo 5.200.1 (Boston Tea Smuggler).
 http://arma.sourceforge.net/

 Q-Chem begins on Wed Mar  2 01:44:48 2022  

Host: 
0

     Scratch files written to ./qcopt_prd.d//
 Dec517 15110_ 26548  26544 5633   
Processing $rem in /home/leeping/opt/qchem/5.0.2-openmp/config/preferences.
 MEM_STATIC 2000
 MEM_TOTAL  8000
 SYMMETRY   OFF
 SYM_IGNORE TRUE 

Checking the input file for inconsistencies... 	...done.

--------------------------------------------------------------
User input:
--------------------------------------------------------------
$molecule
0 2
C        1.0984280998    0.1833698482    0.5383745806
C        0.8752620403   -0.9764411698   -0.4447151440
C       -0.4341580857   -0.9841728305   -0.7444337796
C       -1.0770136966    0.1721538520    0.0477733834
C       -0.3961764528    1.4568939510   -0.4667576251
N        0.8526068123    1.4877831580   -0.2047264531
H        2.0458961776    0.2017927456    1.0748897167
H        1.6543758370   -1.6244571172   -0.8307698462
H       -0.9636497254   -1.6338623538   -1.4326992095
H       -2.1641722463    0.1734137747    0.1279384290
H       -0.8990312387    2.2499896698   -1.0175988039
C       -0.2095794365    0.0337633389    1.3033542732
H       -0.3827880851   -0.7402268669    2.0493704784
$end

$rem
method                b3lyp
basis                 6-31g(d)
unrestricted          true
symmetry              off
sym_ignore            true
incdft                false
incfock               0
scf_convergence       8
thresh                14
jobtype               opt
scf_guess             core
scf_guess_mix         5
scf_algorithm         diis
max_scf_cycles        100
geom_opt_max_cycles   300
$end

--------------------------------------------------------------
 ----------------------------------------------------------------
             Standard Nuclear Orientation (Angstroms)
    I     Atom           X                Y                Z
 ----------------------------------------------------------------
    1      C       1.0984280998     0.1833698482     0.5383745806
    2      C       0.8752620403    -0.9764411698    -0.4447151440
    3      C      -0.4341580857    -0.9841728305    -0.7444337796
    4      C      -1.0770136966     0.1721538520     0.0477733834
    5      C      -0.3961764528     1.4568939510    -0.4667576251
    6      N       0.8526068123     1.4877831580    -0.2047264531
    7      H       2.0458961776     0.2017927456     1.0748897167
    8      H       1.6543758370    -1.6244571172    -0.8307698462
    9      H      -0.9636497254    -1.6338623538    -1.4326992095
   10      H      -2.1641722463     0.1734137747     0.1279384290
   11      H      -0.8990312387     2.2499896698    -1.0175988039
   12      C      -0.2095794365     0.0337633389     1.3033542732
   13      H      -0.3827880851    -0.7402268669     2.0493704784
 ----------------------------------------------------------------
 Nuclear Repulsion Energy =   279.1093680196 hartrees
 There are       25 alpha and       24 beta electrons
 Requested basis set is 6-31G(d)
 There are 40 shells and 117 basis functions

 Total QAlloc Memory Limit   8000 MB
 Mega-Array Size      1956 MB
 MEM_STATIC part      2000 MB
 A cutoff of  1.0D-14 yielded    814 shell pairs
 There are      7086 function pairs
 
 -------------------------------------------------------
 OpenMP Integral Computing Module                       
 Release: version 1.0, May 2013, Q-Chem Inc. Pittsburgh 
 -------------------------------------------------------
 Integral Job Info:
 Integral job number is                      11
 Integral operator is                         1
 short-range coefficients                     0
 long-range coefficients              100000000
 Omega coefficients                           0
 if combine SR and LR in K                    0
 Integral screening is                        0
 Integral computing path is                   2
 max size of driver memory is            800000
 size of driver memory is                593474
 size of scratch memory is              2361544
 max col of scratch BK array               1296
 max len of scratch array in speh3          155
 max len of scratch index in speh4           18
 max int batch size is                      520
 min int batch size is                       52
 fixed nKL is                                52
 max L of basis functions is                  2
 order of int derivative is                   0
 number of shells is                         40
 number of basis is                         117
 number of cartesian basis is               117
 number of contracted shell pairs           814
 number of primitive shell pairs           3589
 maxK2 (contraction) of shell pair           36
 max number of K2 of shell pair               1
 max number of CS2 of shell pair             85
 max number of PS2 of shell pair            390
 mem total for path MDJ                  535308
 -------------------------------------------------------
 Smallest overlap matrix eigenvalue = 1.11E-03

 Scale SEOQF with 1.000000e-01/1.000000e-01/1.000000e-01

 Standard Electronic Orientation quadrupole field applied
 Nucleus-field energy     =     0.0000000022 hartrees
 Guess MOs from core Hamiltonian diagonalization
 Mixing HOMO and LUMO in initial guess
 Adding  50% of the LUMO to the HOMO
 An unrestricted hybrid HF-DFT SCF calculation will be
 performed using Pulay DIIS extrapolation
 Exchange:     0.2000 Hartree-Fock + 0.0800 Slater + 0.7200 B88
 Correlation:  0.1900 VWN1RPA + 0.8100 LYP
 Using SG-1 standard quadrature grid
 SCF converges when DIIS error is below 1.0E-08
 using 4 threads for integral computing
 -------------------------------------------------------
 OpenMP Integral computing Module                
 Release: version 1.0, May 2013, Q-Chem Inc. Pittsburgh 
 -------------------------------------------------------
 -------------------------------------------------------
 OpenMP BLAS3 based DFT computing Module                
 Release: version 1.0, May 2013, Q-Chem Inc. Pittsburgh 
 -------------------------------------------------------
 ---------------------------------------
  Cycle       Energy         DIIS Error
 ---------------------------------------
    1    -235.1327846573      1.38E-01
    2    -229.2004184307      1.01E-01
    3    -252.1717084676      1.06E-01
    4    -283.3245721405      4.13E-02
    5    -283.1012554283      3.77E-02
    6    -286.5479895413      1.22E-02
    7    -286.6159838632      1.13E-02
    8    -286.8218718840      4.32E-03
    9    -286.8466284405      1.68E-03
   10    -286.8513239900      4.10E-04
   11    -286.8515721070      1.84E-04
   12    -286.8516309984      3.23E-05
   13    -286.8516338375      1.44E-05
   14    -286.8516344833      3.16E-06
   15    -286.8516346968      1.09E-06
   16    -286.8516347940      5.95E-07
   17    -286.8516348285      3.55E-07
   18    -286.8516348511      1.87E-07
   19    -286.8516348625      6.16E-08
   20    -286.8516348651      1.32E-08
   21    -286.8516348652      2.53E-09 Convergence criterion met
 ---------------------------------------
 <S^2> = 0.7537
 SCF time:  CPU 55.16 s  wall 34.84 s
 SCF   energy in the final basis set = -286.85163487
 Total energy in the final basis set = -286.85163487
 
 --------------------------------------------------------------
 
                    Orbital Energies (a.u.)
 --------------------------------------------------------------
 
 Alpha MOs
 -- Occupied --
-14.322 -10.224 -10.220 -10.210 -10.204 -10.201 -10.198  -0.952
 -0.821  -0.726  -0.705  -0.579  -0.573  -0.531  -0.512  -0.472
 -0.418  -0.410  -0.381  -0.373  -0.348  -0.294  -0.271  -0.258
 -0.196
 -- Virtual --
 -0.022   0.029   0.103   0.140   0.150   0.154   0.159   0.163
  0.172   0.210   0.215   0.255   0.288   0.322   0.346   0.366
  0.495   0.510   0.532   0.540   0.570   0.599   0.606   0.622
  0.635   0.641   0.655   0.690   0.700   0.729   0.778   0.791
  0.799   0.817   0.825   0.846   0.858   0.876   0.891   0.940
  0.965   1.005   1.058   1.092   1.201   1.264   1.335   1.339
  1.396   1.406   1.486   1.510   1.563   1.610   1.658   1.725
  1.783   1.796   1.827   1.892   1.954   1.986   2.000   2.048
  2.097   2.138   2.172   2.208   2.234   2.276   2.315   2.335
  2.425   2.476   2.515   2.532   2.548   2.619   2.629   2.645
  2.722   2.835   2.856   2.904   2.939   3.922   4.187   4.267
  4.280   4.396   4.543   4.678
 
 Beta MOs
 -- Occupied --
-14.321 -10.224 -10.221 -10.210 -10.200 -10.196 -10.190  -0.949
 -0.815  -0.725  -0.690  -0.577  -0.561  -0.527  -0.509  -0.463
 -0.414  -0.406  -0.380  -0.369  -0.342  -0.287  -0.261  -0.255
 -- Virtual --
 -0.045  -0.016   0.031   0.105   0.143   0.153   0.158   0.160
  0.166   0.176   0.216   0.223   0.267   0.290   0.324   0.348
  0.369   0.497   0.529   0.540   0.544   0.577   0.603   0.611
  0.624   0.641   0.658   0.662   0.693   0.708   0.742   0.782
  0.792   0.810   0.819   0.827   0.848   0.860   0.879   0.894
  0.942   0.973   1.013   1.060   1.099   1.204   1.265   1.339
  1.344   1.401   1.410   1.489   1.512   1.577   1.619   1.665
  1.728   1.793   1.799   1.838   1.910   1.966   1.998   2.003
  2.054   2.120   2.144   2.179   2.224   2.249   2.281   2.317
  2.338   2.428   2.494   2.517   2.542   2.553   2.630   2.636
  2.648   2.729   2.837   2.859   2.905   2.942   3.923   4.190
  4.269   4.307   4.399   4.549   4.679
 --------------------------------------------------------------
 
          Ground-State Mulliken Net Atomic Charges

     Atom                 Charge (a.u.)    Spin (a.u.)
  --------------------------------------------------------
      1 C                    -0.094221      -0.045092
      2 C                    -0.088002       0.040576
      3 C                    -0.096001       0.079066
      4 C                    -0.246060      -0.043948
      5 C                     0.092373      -0.008697
      6 N                    -0.325421       0.021866
      7 H                     0.139870       0.003047
      8 H                     0.146090       0.000912
      9 H                     0.145593       0.000384
     10 H                     0.133969       0.002865
     11 H                     0.149705      -0.000179
     12 C                    -0.096717       0.975789
     13 H                     0.138822      -0.026592
  --------------------------------------------------------
  Sum of atomic charges =     0.000000
  Sum of spin   charges =     1.000000

 -----------------------------------------------------------------
                    Cartesian Multipole Moments
 -----------------------------------------------------------------
    Charge (ESU x 10^10)
                 0.0000
    Dipole Moment (Debye)
         X      -1.4467      Y      -1.8673      Z      -0.2339
       Tot       2.3737
    Quadrupole Moments (Debye-Ang)
        XX     -38.5182     XY      -4.0771     YY     -42.6332
        XZ       2.0194     YZ      -0.0593     ZZ     -40.3303
    Octopole Moments (Debye-Ang^2)
       XXX     -10.6757    XXY     -11.5150    XYY     -10.9940
       YYY     -24.1634    XXZ       0.3694    XYZ       2.8518
       YYZ      -4.4384    XZZ      -4.0504    YZZ      -9.7248
       ZZZ      -0.9049
    Hexadecapole Moments (Debye-Ang^3)
      XXXX    -216.9652   XXXY      -8.1039   XXYY     -88.6137
      XYYY     -18.0465   YYYY    -294.2914   XXXZ      -3.3683
      XXYZ       2.2866   XYYZ       2.2890   YYYZ      -5.6105
      XXZZ     -65.0341   XYZZ       0.6449   YYZZ     -71.8311
      XZZZ      -3.9903   YZZZ      -9.4608   ZZZZ    -175.9583
 -----------------------------------------------------------------
 Calculating analytic gradient of the SCF energy
 Gradient of SCF Energy
            1           2           3           4           5           6
    1  -0.0001553   0.0002628  -0.0005063  -0.0001456  -0.0003311   0.0004081
    2  -0.0002507  -0.0000230  -0.0002300   0.0000555   0.0001917   0.0000287
    3   0.0003820   0.0001198  -0.0000140   0.0000095  -0.0001117   0.0004492
            7           8           9          10          11          12
    1   0.0000286   0.0000362  -0.0000069  -0.0000577  -0.0000538   0.0005500
    2   0.0002012   0.0001040   0.0000609  -0.0000909  -0.0001046   0.0000679
    3  -0.0000474  -0.0000646   0.0000040  -0.0001180  -0.0001005  -0.0005284
           13
    1  -0.0000290
    2  -0.0000107
    3   0.0000198
 Max gradient component =       5.500E-04
 RMS gradient           =       2.195E-04
 Gradient time:  CPU 8.08 s  wall 3.70 s
 Geometry Optimization Parameters
   NAtoms,    NIC,     NZ,  NCons,   NDum,   NFix, NCnnct, MaxDiis
       13     104       0       0       0       0       0       0


** GEOMETRY OPTIMIZATION IN DELOCALIZED INTERNAL COORDINATES **
   Searching for a Minimum

   Optimization Cycle:   1

                       Coordinates (Angstroms)
     ATOM                X               Y               Z
      1  C         1.0984280998    0.1833698482    0.5383745806
      2  C         0.8752620403   -0.9764411698   -0.4447151440
      3  C        -0.4341580857   -0.9841728305   -0.7444337796
      4  C        -1.0770136966    0.1721538520    0.0477733834
      5  C        -0.3961764528    1.4568939510   -0.4667576251
      6  N         0.8526068123    1.4877831580   -0.2047264531
      7  H         2.0458961776    0.2017927456    1.0748897167
      8  H         1.6543758370   -1.6244571172   -0.8307698462
      9  H        -0.9636497254   -1.6338623538   -1.4326992095
     10  H        -2.1641722463    0.1734137747    0.1279384290
     11  H        -0.8990312387    2.2499896698   -1.0175988039
     12  C        -0.2095794365    0.0337633389    1.3033542732
     13  H        -0.3827880851   -0.7402268669    2.0493704784
   Point Group: c1    Number of degrees of freedom:    33


   Energy is   -286.851634865


 Attempting to Generate Delocalized Internal Coordinates

 33 Hessian modes will be used to form the next step
  Hessian Eigenvalues:
     0.009896    0.010780    0.012024    0.014584    0.016766    0.021801
     0.046722    0.047572    0.055563    0.062894    0.065829    0.081788
     0.108001    0.130925    0.142020    0.159712    0.159864    0.159943
     0.186032    0.253344    0.253829    0.263160    0.268833    0.283903
     0.293775    0.347998    0.349304    0.349455    0.349621    0.354546
     0.354647    0.506635    0.663510

 Minimum Search - Taking Simple RFO Step
 Searching for Lamda that Minimizes Along All modes
 Value Taken    Lamda =  -0.00000832
 Step Taken.  Stepsize is  0.019597

                             Maximum     Tolerance    Cnvgd?
         Gradient           0.000318      0.000300      NO
         Displacement       0.008508      0.001200      NO
         Energy change     *********      0.000001      NO


 New Cartesian Coordinates Obtained by Inverse Iteration

 Displacement from previous Coordinates is:  0.017613
 ----------------------------------------------------------------
             Standard Nuclear Orientation (Angstroms)
    I     Atom           X                Y                Z
 ----------------------------------------------------------------
    1      C       1.0981831879     0.1838051913     0.5371064509
    2      C       0.8756047833    -0.9773581668    -0.4439874731
    3      C      -0.4328718573    -0.9831254892    -0.7459388333
    4      C      -1.0767679059     0.1721434637     0.0474831790
    5      C      -0.3969579172     1.4574478065    -0.4663394977
    6      N       0.8524737146     1.4867560517    -0.2089158323
    7      H       2.0454497655     0.2017145742     1.0739785519
    8      H       1.6543109840    -1.6276889819    -0.8270244466
    9      H      -0.9619360099    -1.6336293301    -1.4338435595
   10      H      -2.1638067352     0.1731932594     0.1282940566
   11      H      -0.9007879180     2.2525830458    -1.0133409954
   12      C      -0.2100642724     0.0342701997     1.3034282544
   13      H      -0.3828298195    -0.7401116242     2.0491001450
 ----------------------------------------------------------------
 Nuclear Repulsion Energy =   279.1165503029 hartrees
 There are       25 alpha and       24 beta electrons
 Applying Cartesian multipole field
    Component          Value
    ---------          -----
     (2,0,0)        1.00000E-11
     (0,2,0)        2.00000E-11
     (0,0,2)       -3.00000E-11
 Nucleus-field energy     =     0.0000000022 hartrees
 Requested basis set is 6-31G(d)
 There are 40 shells and 117 basis functions
 A cutoff of  1.0D-14 yielded    814 shell pairs
 There are      7086 function pairs
 Smallest overlap matrix eigenvalue = 1.11E-03
 Guess MOs from SCF MO coefficient file
 Reading MOs from coefficient file
 Mixing HOMO and LUMO in initial guess
 Adding  50% of the LUMO to the HOMO
 Reading MOs from coefficient file
 An unrestricted hybrid HF-DFT SCF calculation will be
 performed using Pulay DIIS extrapolation
 Exchange:     0.2000 Hartree-Fock + 0.0800 Slater + 0.7200 B88
 Correlation:  0.1900 VWN1RPA + 0.8100 LYP
 Using SG-1 standard quadrature grid
 SCF converges when DIIS error is below 1.0E-08
 Geometry optimization detected.  Setting ReadMinima to 0
 Setting SaveMinima to 0
 using 4 threads for integral computing
 -------------------------------------------------------
 OpenMP Integral computing Module                
 Release: version 1.0, May 2013, Q-Chem Inc. Pittsburgh 
 -------------------------------------------------------
 -------------------------------------------------------
 OpenMP BLAS3 based DFT computing Module                
 Release: version 1.0, May 2013, Q-Chem Inc. Pittsburgh 
 -------------------------------------------------------
 ---------------------------------------
  Cycle       Energy         DIIS Error
 ---------------------------------------
    1    -286.8210250160      1.81E-03
    2    -286.8200194518      4.08E-03
    3    -286.8491408000      8.13E-04
    4    -286.8508356303      4.71E-04
    5    -286.8514628081      9.26E-05
    6    -286.8515597252      9.55E-05
    7    -286.8515966818      2.49E-05
    8    -286.8516183008      1.06E-05
    9    -286.8516265430      3.22E-06
   10    -286.8516325295      1.74E-06
   11    -286.8516349614      1.11E-06
   12    -286.8516357853      5.92E-07
   13    -286.8516359402      1.43E-07
   14    -286.8516359420      5.33E-08
   15    -286.8516359420      1.51E-08
   16    -286.8516359421      3.89E-09 Convergence criterion met
 ---------------------------------------
 <S^2> = 0.7537
 SCF time:  CPU 41.90 s  wall 25.40 s
 SCF   energy in the final basis set = -286.85163594
 Total energy in the final basis set = -286.85163594
 
 --------------------------------------------------------------
 
                    Orbital Energies (a.u.)
 --------------------------------------------------------------
 
 Alpha MOs
 -- Occupied --
-14.322 -10.224 -10.220 -10.210 -10.204 -10.201 -10.197  -0.952
 -0.821  -0.726  -0.705  -0.579  -0.573  -0.531  -0.512  -0.472
 -0.418  -0.410  -0.381  -0.373  -0.348  -0.294  -0.271  -0.258
 -0.196
 -- Virtual --
 -0.021   0.029   0.103   0.140   0.150   0.154   0.159   0.163
  0.172   0.210   0.215   0.255   0.288   0.322   0.346   0.366
  0.495   0.510   0.532   0.540   0.570   0.599   0.606   0.622
  0.635   0.641   0.655   0.690   0.701   0.728   0.778   0.791
  0.799   0.817   0.825   0.846   0.858   0.876   0.891   0.940
  0.965   1.005   1.059   1.092   1.201   1.264   1.334   1.339
  1.395   1.407   1.487   1.510   1.563   1.611   1.659   1.725
  1.784   1.796   1.827   1.892   1.954   1.986   1.999   2.049
  2.097   2.139   2.171   2.208   2.235   2.276   2.315   2.335
  2.425   2.476   2.515   2.532   2.548   2.618   2.629   2.645
  2.722   2.835   2.856   2.904   2.939   3.922   4.187   4.267
  4.279   4.396   4.543   4.678
 
 Beta MOs
 -- Occupied --
-14.321 -10.224 -10.221 -10.210 -10.200 -10.196 -10.190  -0.949
 -0.815  -0.725  -0.690  -0.577  -0.561  -0.527  -0.509  -0.463
 -0.414  -0.406  -0.379  -0.369  -0.342  -0.287  -0.261  -0.255
 -- Virtual --
 -0.045  -0.016   0.031   0.105   0.143   0.153   0.158   0.160
  0.166   0.176   0.216   0.223   0.267   0.290   0.324   0.348
  0.369   0.497   0.529   0.540   0.544   0.577   0.603   0.611
  0.624   0.641   0.658   0.662   0.693   0.708   0.742   0.782
  0.793   0.810   0.819   0.827   0.848   0.860   0.879   0.894
  0.942   0.973   1.013   1.060   1.099   1.204   1.266   1.338
  1.345   1.400   1.411   1.489   1.513   1.578   1.619   1.666
  1.729   1.793   1.799   1.837   1.910   1.966   1.999   2.002
  2.055   2.119   2.144   2.178   2.224   2.250   2.281   2.318
  2.338   2.428   2.493   2.517   2.542   2.553   2.630   2.636
  2.648   2.729   2.837   2.859   2.906   2.942   3.923   4.190
  4.269   4.307   4.399   4.549   4.679
 --------------------------------------------------------------
 
          Ground-State Mulliken Net Atomic Charges

     Atom                 Charge (a.u.)    Spin (a.u.)
  --------------------------------------------------------
      1 C                    -0.094404      -0.044991
      2 C                    -0.087829       0.039914
      3 C                    -0.095909       0.079809
      4 C                    -0.246040      -0.043945
      5 C                     0.092384      -0.008890
      6 N                    -0.325309       0.022030
      7 H                     0.139779       0.003029
      8 H                     0.146114       0.000898
      9 H                     0.145529       0.000318
     10 H                     0.133906       0.002849
     11 H                     0.149653      -0.000169
     12 C                    -0.096779       0.975674
     13 H                     0.138906      -0.026526
  --------------------------------------------------------
  Sum of atomic charges =    -0.000000
  Sum of spin   charges =     1.000000

 -----------------------------------------------------------------
                    Cartesian Multipole Moments
 -----------------------------------------------------------------
    Charge (ESU x 10^10)
                 0.0000
    Dipole Moment (Debye)
         X      -1.4476      Y      -1.8676      Z      -0.2234
       Tot       2.3735
    Quadrupole Moments (Debye-Ang)
        XX     -38.5244     XY      -4.0862     YY     -42.6102
        XZ       2.0226     YZ      -0.0472     ZZ     -40.3425
    Octopole Moments (Debye-Ang^2)
       XXX     -10.6812    XXY     -11.5163    XYY     -10.9821
       YYY     -24.1486    XXZ       0.4159    XYZ       2.8574
       YYZ      -4.3825    XZZ      -4.0643    YZZ      -9.7476
       ZZZ      -0.8025
    Hexadecapole Moments (Debye-Ang^3)
      XXXX    -216.9683   XXXY      -8.0255   XXYY     -88.5676
      XYYY     -17.9906   YYYY    -294.1281   XXXZ      -3.2881
      XXYZ       2.3097   XYYZ       2.3327   YYYZ      -5.4936
      XXZZ     -65.0612   XYZZ       0.6857   YYZZ     -71.8761
      XZZZ      -3.9133   YZZZ      -9.3768   ZZZZ    -175.9733
 -----------------------------------------------------------------
 Calculating analytic gradient of the SCF energy
 Gradient of SCF Energy
            1           2           3           4           5           6
    1  -0.0003041   0.0000356   0.0001509   0.0000492  -0.0000556   0.0000342
    2   0.0000245  -0.0001668   0.0001604  -0.0001281   0.0001896  -0.0000612
    3   0.0001822   0.0001097  -0.0001751   0.0000075   0.0002232  -0.0004210
            7           8           9          10          11          12
    1  -0.0000252   0.0000337   0.0000443   0.0000094  -0.0000324   0.0000996
    2   0.0000042   0.0000061  -0.0000006  -0.0000142   0.0000034  -0.0000123
    3   0.0000062   0.0000145  -0.0000217  -0.0000065   0.0000719   0.0000140
           13
    1  -0.0000395
    2  -0.0000050
    3  -0.0000048
 Max gradient component =       4.210E-04
 RMS gradient           =       1.198E-04
 Gradient time:  CPU 8.08 s  wall 3.34 s
 Geometry Optimization Parameters
   NAtoms,    NIC,     NZ,  NCons,   NDum,   NFix, NCnnct, MaxDiis
       13     104       0       0       0       0       0       0

 Cartesian Hessian Update
 Hessian Updated using BFGS Update


** GEOMETRY OPTIMIZATION IN DELOCALIZED INTERNAL COORDINATES **
   Searching for a Minimum

   Optimization Cycle:   2

                       Coordinates (Angstroms)
     ATOM                X               Y               Z
      1  C         1.0981831879    0.1838051913    0.5371064509
      2  C         0.8756047833   -0.9773581668   -0.4439874731
      3  C        -0.4328718573   -0.9831254892   -0.7459388333
      4  C        -1.0767679059    0.1721434637    0.0474831790
      5  C        -0.3969579172    1.4574478065   -0.4663394977
      6  N         0.8524737146    1.4867560517   -0.2089158323
      7  H         2.0454497655    0.2017145742    1.0739785519
      8  H         1.6543109840   -1.6276889819   -0.8270244466
      9  H        -0.9619360099   -1.6336293301   -1.4338435595
     10  H        -2.1638067352    0.1731932594    0.1282940566
     11  H        -0.9007879180    2.2525830458   -1.0133409954
     12  C        -0.2100642724    0.0342701997    1.3034282544
     13  H        -0.3828298195   -0.7401116242    2.0491001450
   Point Group: c1    Number of degrees of freedom:    33


   Energy is   -286.851635942

 Hessian Updated using BFGS Update

 33 Hessian modes will be used to form the next step
  Hessian Eigenvalues:
     0.009208    0.010630    0.014433    0.016641    0.021409    0.024447
     0.046570    0.049147    0.055230    0.063137    0.065820    0.082155
     0.108519    0.135853    0.142751    0.158151    0.159844    0.160073
     0.186529    0.231178    0.253828    0.261464    0.268956    0.283864
     0.295693    0.347980    0.349341    0.349442    0.349663    0.354478
     0.354680    0.504531    0.657574

 Minimum Search - Taking Simple RFO Step
 Searching for Lamda that Minimizes Along All modes
 Value Taken    Lamda =  -0.00000452
 Step Taken.  Stepsize is  0.013159

                             Maximum     Tolerance    Cnvgd?
         Gradient           0.000180      0.000300     YES
         Displacement       0.005991      0.001200      NO
         Energy change     -0.000001      0.000001      NO


 New Cartesian Coordinates Obtained by Inverse Iteration

 Displacement from previous Coordinates is:  0.010439
 ----------------------------------------------------------------
             Standard Nuclear Orientation (Angstroms)
    I     Atom           X                Y                Z
 ----------------------------------------------------------------
    1      C       1.0982399398     0.1840039375     0.5373594333
    2      C       0.8755800268    -0.9760317824    -0.4451684621
    3      C      -0.4333106412    -0.9837191477    -0.7449953199
    4      C      -1.0767963887     0.1722165608     0.0474828043
    5      C      -0.3962654036     1.4566918849    -0.4675318574
    6      N       0.8523344510     1.4878634545    -0.2066093992
    7      H       2.0454244837     0.2009896700     1.0744353018
    8      H       1.6542885026    -1.6260279685    -0.8287508494
    9      H      -0.9625758905    -1.6349615689    -1.4320720977
   10      H      -2.1638306467     0.1738420490     0.1282560786
   11      H      -0.8997185731     2.2518997756    -1.0148100410
   12      C      -0.2103494861     0.0340475340     1.3036089671
   13      H      -0.3830203741    -0.7408143988     2.0487954415
 ----------------------------------------------------------------
 Nuclear Repulsion Energy =   279.1188268273 hartrees
 There are       25 alpha and       24 beta electrons
 Applying Cartesian multipole field
    Component          Value
    ---------          -----
     (2,0,0)        1.00000E-11
     (0,2,0)        2.00000E-11
     (0,0,2)       -3.00000E-11
 Nucleus-field energy     =     0.0000000022 hartrees
 Requested basis set is 6-31G(d)
 There are 40 shells and 117 basis functions
 A cutoff of  1.0D-14 yielded    814 shell pairs
 There are      7086 function pairs
 Smallest overlap matrix eigenvalue = 1.11E-03
 Guess MOs from SCF MO coefficient file
 Reading MOs from coefficient file
 Mixing HOMO and LUMO in initial guess
 Adding  50% of the LUMO to the HOMO
 Reading MOs from coefficient file
 An unrestricted hybrid HF-DFT SCF calculation will be
 performed using Pulay DIIS extrapolation
 Exchange:     0.2000 Hartree-Fock + 0.0800 Slater + 0.7200 B88
 Correlation:  0.1900 VWN1RPA + 0.8100 LYP
 Using SG-1 standard quadrature grid
 SCF converges when DIIS error is below 1.0E-08
 Geometry optimization detected.  Setting ReadMinima to 0
 Setting SaveMinima to 0
 using 4 threads for integral computing
 -------------------------------------------------------
 OpenMP Integral computing Module                
 Release: version 1.0, May 2013, Q-Chem Inc. Pittsburgh 
 -------------------------------------------------------
 -------------------------------------------------------
 OpenMP BLAS3 based DFT computing Module                
 Release: version 1.0, May 2013, Q-Chem Inc. Pittsburgh 
 -------------------------------------------------------
 ---------------------------------------
  Cycle       Energy         DIIS Error
 ---------------------------------------
    1    -286.8203936858      1.81E-03
    2    -286.8198807582      4.09E-03
    3    -286.8491136424      8.19E-04
    4    -286.8508259939      4.73E-04
    5    -286.8514621414      9.32E-05
    6    -286.8515605693      9.59E-05
    7    -286.8515977327      2.53E-05
    8    -286.8516195948      1.06E-05
    9    -286.8516279853      3.26E-06
   10    -286.8516340815      1.76E-06
   11    -286.8516365301      1.12E-06
   12    -286.8516373689      5.94E-07
   13    -286.8516375251      1.46E-07
   14    -286.8516375269      5.43E-08
   15    -286.8516375269      1.50E-08
   16    -286.8516375269      4.03E-09 Convergence criterion met
 ---------------------------------------
 <S^2> = 0.7537
 SCF time:  CPU 42.19 s  wall 40.39 s
 SCF   energy in the final basis set = -286.85163753
 Total energy in the final basis set = -286.85163753
 
 --------------------------------------------------------------
 
                    Orbital Energies (a.u.)
 --------------------------------------------------------------
 
 Alpha MOs
 -- Occupied --
-14.322 -10.224 -10.220 -10.210 -10.204 -10.201 -10.197  -0.952
 -0.821  -0.726  -0.705  -0.579  -0.573  -0.531  -0.512  -0.472
 -0.418  -0.410  -0.381  -0.373  -0.348  -0.294  -0.271  -0.258
 -0.196
 -- Virtual --
 -0.021   0.029   0.103   0.140   0.150   0.154   0.159   0.163
  0.173   0.210   0.215   0.255   0.288   0.322   0.346   0.366
  0.495   0.510   0.532   0.540   0.570   0.599   0.606   0.622
  0.635   0.641   0.655   0.689   0.700   0.728   0.779   0.791
  0.799   0.817   0.825   0.846   0.858   0.876   0.891   0.940
  0.965   1.005   1.059   1.092   1.201   1.264   1.334   1.339
  1.395   1.406   1.487   1.510   1.563   1.611   1.659   1.725
  1.784   1.796   1.827   1.892   1.954   1.986   2.000   2.049
  2.097   2.138   2.172   2.208   2.235   2.276   2.315   2.335
  2.425   2.476   2.515   2.532   2.548   2.618   2.629   2.645
  2.722   2.835   2.856   2.905   2.939   3.922   4.188   4.267
  4.279   4.396   4.543   4.678
 
 Beta MOs
 -- Occupied --
-14.321 -10.224 -10.221 -10.210 -10.200 -10.196 -10.190  -0.949
 -0.815  -0.725  -0.690  -0.577  -0.561  -0.527  -0.509  -0.463
 -0.414  -0.406  -0.379  -0.369  -0.342  -0.287  -0.261  -0.255
 -- Virtual --
 -0.045  -0.016   0.031   0.105   0.143   0.153   0.158   0.160
  0.166   0.176   0.216   0.223   0.267   0.290   0.324   0.349
  0.369   0.497   0.529   0.540   0.544   0.577   0.604   0.611
  0.624   0.641   0.658   0.662   0.693   0.708   0.742   0.782
  0.793   0.810   0.819   0.827   0.848   0.860   0.879   0.894
  0.942   0.973   1.013   1.060   1.099   1.204   1.265   1.338
  1.345   1.400   1.411   1.489   1.513   1.578   1.619   1.665
  1.729   1.793   1.799   1.837   1.910   1.966   1.999   2.003
  2.054   2.119   2.144   2.178   2.224   2.249   2.281   2.318
  2.339   2.428   2.493   2.517   2.542   2.553   2.630   2.636
  2.648   2.729   2.837   2.859   2.906   2.942   3.923   4.190
  4.269   4.306   4.399   4.549   4.679
 --------------------------------------------------------------
 
          Ground-State Mulliken Net Atomic Charges

     Atom                 Charge (a.u.)    Spin (a.u.)
  --------------------------------------------------------
      1 C                    -0.094519      -0.044987
      2 C                    -0.087799       0.040438
      3 C                    -0.095972       0.079248
      4 C                    -0.246057      -0.043908
      5 C                     0.092336      -0.008678
      6 N                    -0.325196       0.021725
      7 H                     0.139748       0.003022
      8 H                     0.146099       0.000859
      9 H                     0.145531       0.000358
     10 H                     0.133944       0.002857
     11 H                     0.149648      -0.000179
     12 C                    -0.096653       0.975767
     13 H                     0.138892      -0.026520
  --------------------------------------------------------
  Sum of atomic charges =    -0.000000
  Sum of spin   charges =     1.000000

 -----------------------------------------------------------------
                    Cartesian Multipole Moments
 -----------------------------------------------------------------
    Charge (ESU x 10^10)
                -0.0000
    Dipole Moment (Debye)
         X      -1.4469      Y      -1.8699      Z      -0.2279
       Tot       2.3753
    Quadrupole Moments (Debye-Ang)
        XX     -38.5234     XY      -4.0824     YY     -42.6178
        XZ       2.0170     YZ      -0.0557     ZZ     -40.3411
    Octopole Moments (Debye-Ang^2)
       XXX     -10.6793    XXY     -11.5244    XYY     -10.9925
       YYY     -24.1917    XXZ       0.4025    XYZ       2.8497
       YYZ      -4.4026    XZZ      -4.0526    YZZ      -9.7437
       ZZZ      -0.8258
    Hexadecapole Moments (Debye-Ang^3)
      XXXX    -216.9548   XXXY      -8.0951   XXYY     -88.5822
      XYYY     -18.0512   YYYY    -294.1718   XXXZ      -3.3108
      XXYZ       2.2946   XYYZ       2.3157   YYYZ      -5.5370
      XXZZ     -65.0543   XYZZ       0.6603   YYZZ     -71.8606
      XZZZ      -3.9289   YZZZ      -9.4135   ZZZZ    -176.0132
 -----------------------------------------------------------------
 Calculating analytic gradient of the SCF energy
 Gradient of SCF Energy
            1           2           3           4           5           6
    1  -0.0001598  -0.0000461   0.0001261   0.0000285   0.0001622  -0.0000963
    2  -0.0000333   0.0000580   0.0000337  -0.0000015  -0.0001441   0.0001443
    3   0.0000468  -0.0001284   0.0000411   0.0000662  -0.0002099   0.0000062
            7           8           9          10          11          12
    1  -0.0000186   0.0000198   0.0000269   0.0000137  -0.0000114  -0.0000237
    2  -0.0000086   0.0000047  -0.0000179  -0.0000239   0.0000375  -0.0000491
    3   0.0000175   0.0000086  -0.0000076   0.0000139   0.0000803   0.0000732
           13
    1  -0.0000215
    2   0.0000002
    3  -0.0000080
 Max gradient component =       2.099E-04
 RMS gradient           =       7.444E-05
 Gradient time:  CPU 8.08 s  wall 4.34 s
 Geometry Optimization Parameters
   NAtoms,    NIC,     NZ,  NCons,   NDum,   NFix, NCnnct, MaxDiis
       13     104       0       0       0       0       0       0

 Cartesian Hessian Update
 Hessian Updated using BFGS Update


** GEOMETRY OPTIMIZATION IN DELOCALIZED INTERNAL COORDINATES **
   Searching for a Minimum

   Optimization Cycle:   3

                       Coordinates (Angstroms)
     ATOM                X               Y               Z
      1  C         1.0982399398    0.1840039375    0.5373594333
      2  C         0.8755800268   -0.9760317824   -0.4451684621
      3  C        -0.4333106412   -0.9837191477   -0.7449953199
      4  C        -1.0767963887    0.1722165608    0.0474828043
      5  C        -0.3962654036    1.4566918849   -0.4675318574
      6  N         0.8523344510    1.4878634545   -0.2066093992
      7  H         2.0454244837    0.2009896700    1.0744353018
      8  H         1.6542885026   -1.6260279685   -0.8287508494
      9  H        -0.9625758905   -1.6349615689   -1.4320720977
     10  H        -2.1638306467    0.1738420490    0.1282560786
     11  H        -0.8997185731    2.2518997756   -1.0148100410
     12  C        -0.2103494861    0.0340475340    1.3036089671
     13  H        -0.3830203741   -0.7408143988    2.0487954415
   Point Group: c1    Number of degrees of freedom:    33


   Energy is   -286.851637527

 Hessian Updated using BFGS Update

 33 Hessian modes will be used to form the next step
  Hessian Eigenvalues:
     0.009982    0.010578    0.014428    0.016630    0.021518    0.030810
     0.046358    0.050737    0.055440    0.063083    0.065774    0.081696
     0.107924    0.129377    0.141925    0.158426    0.159840    0.159985
     0.185954    0.231762    0.253848    0.261606    0.268244    0.283799
     0.293238    0.347947    0.349287    0.349455    0.349587    0.354487
     0.354646    0.503557    0.656776

 Minimum Search - Taking Simple RFO Step
 Searching for Lamda that Minimizes Along All modes
 Value Taken    Lamda =  -0.00000114
 Step Taken.  Stepsize is  0.007666

                             Maximum     Tolerance    Cnvgd?
         Gradient           0.000111      0.000300     YES
         Displacement       0.003675      0.001200      NO
         Energy change     -0.000002      0.000001      NO


 New Cartesian Coordinates Obtained by Inverse Iteration

 Displacement from previous Coordinates is:  0.004282
 ----------------------------------------------------------------
             Standard Nuclear Orientation (Angstroms)
    I     Atom           X                Y                Z
 ----------------------------------------------------------------
    1      C       1.0985094330     0.1839562896     0.5374820328
    2      C       0.8754695473    -0.9762216475    -0.4447827596
    3      C      -0.4334755098    -0.9835648469    -0.7449802152
    4      C      -1.0769748012     0.1722851904     0.0476278394
    5      C      -0.3965941324     1.4571040686    -0.4665545873
    6      N       0.8522713095     1.4877023731    -0.2063691292
    7      H       2.0457613317     0.2012382485     1.0744545060
    8      H       1.6541697789    -1.6259804609    -0.8287524447
    9      H      -0.9627012729    -1.6343201000    -1.4325359913
   10      H      -2.1640456805     0.1737690686     0.1282376698
   11      H      -0.8995453322     2.2510901379    -1.0160900970
   12      C      -0.2101619057     0.0339504048     1.3035616432
   13      H      -0.3826827659    -0.7410087262     2.0487015330
 ----------------------------------------------------------------
 Nuclear Repulsion Energy =   279.1156332942 hartrees
 There are       25 alpha and       24 beta electrons
 Applying Cartesian multipole field
    Component          Value
    ---------          -----
     (2,0,0)        1.00000E-11
     (0,2,0)        2.00000E-11
     (0,0,2)       -3.00000E-11
 Nucleus-field energy     =     0.0000000022 hartrees
 Requested basis set is 6-31G(d)
 There are 40 shells and 117 basis functions
 A cutoff of  1.0D-14 yielded    814 shell pairs
 There are      7086 function pairs
 Smallest overlap matrix eigenvalue = 1.11E-03
 Guess MOs from SCF MO coefficient file
 Reading MOs from coefficient file
 Mixing HOMO and LUMO in initial guess
 Adding  50% of the LUMO to the HOMO
 Reading MOs from coefficient file
 An unrestricted hybrid HF-DFT SCF calculation will be
 performed using Pulay DIIS extrapolation
 Exchange:     0.2000 Hartree-Fock + 0.0800 Slater + 0.7200 B88
 Correlation:  0.1900 VWN1RPA + 0.8100 LYP
 Using SG-1 standard quadrature grid
 SCF converges when DIIS error is below 1.0E-08
 Geometry optimization detected.  Setting ReadMinima to 0
 Setting SaveMinima to 0
 using 4 threads for integral computing
 -------------------------------------------------------
 OpenMP Integral computing Module                
 Release: version 1.0, May 2013, Q-Chem Inc. Pittsburgh 
 -------------------------------------------------------
 -------------------------------------------------------
 OpenMP BLAS3 based DFT computing Module                
 Release: version 1.0, May 2013, Q-Chem Inc. Pittsburgh 
 -------------------------------------------------------
 ---------------------------------------
  Cycle       Energy         DIIS Error
 ---------------------------------------
    1    -286.8204885704      1.81E-03
    2    -286.8200709055      4.08E-03
    3    -286.8491270038      8.17E-04
    4    -286.8508263954      4.73E-04
    5    -286.8514632168      9.38E-05
    6    -286.8515608328      9.67E-05
    7    -286.8515982771      2.52E-05
    8    -286.8516199923      1.06E-05
    9    -286.8516283418      3.25E-06
   10    -286.8516343963      1.76E-06
   11    -286.8516368385      1.12E-06
   12    -286.8516376778      6.00E-07
   13    -286.8516378346      1.46E-07
   14    -286.8516378366      5.40E-08
   15    -286.8516378366      1.53E-08
   16    -286.8516378366      4.00E-09 Convergence criterion met
 ---------------------------------------
 <S^2> = 0.7537
 SCF time:  CPU 42.09 s  wall 29.66 s
 SCF   energy in the final basis set = -286.85163784
 Total energy in the final basis set = -286.85163784
 
 --------------------------------------------------------------
 
                    Orbital Energies (a.u.)
 --------------------------------------------------------------
 
 Alpha MOs
 -- Occupied --
-14.322 -10.224 -10.220 -10.210 -10.204 -10.201 -10.197  -0.952
 -0.821  -0.726  -0.705  -0.579  -0.573  -0.531  -0.512  -0.472
 -0.418  -0.410  -0.381  -0.373  -0.348  -0.294  -0.271  -0.258
 -0.196
 -- Virtual --
 -0.021   0.029   0.103   0.140   0.150   0.154   0.159   0.163
  0.172   0.210   0.215   0.255   0.288   0.322   0.346   0.366
  0.495   0.510   0.532   0.540   0.570   0.599   0.606   0.622
  0.635   0.641   0.655   0.690   0.700   0.729   0.778   0.791
  0.799   0.817   0.825   0.846   0.858   0.876   0.891   0.940
  0.965   1.005   1.059   1.092   1.201   1.264   1.334   1.339
  1.396   1.406   1.487   1.510   1.563   1.611   1.659   1.725
  1.784   1.796   1.827   1.892   1.954   1.986   2.000   2.049
  2.097   2.138   2.172   2.208   2.235   2.276   2.315   2.335
  2.425   2.476   2.515   2.532   2.548   2.618   2.629   2.645
  2.722   2.835   2.856   2.904   2.939   3.922   4.187   4.267
  4.279   4.396   4.543   4.678
 
 Beta MOs
 -- Occupied --
-14.321 -10.224 -10.221 -10.210 -10.200 -10.196 -10.190  -0.949
 -0.815  -0.725  -0.690  -0.577  -0.561  -0.527  -0.509  -0.463
 -0.414  -0.406  -0.379  -0.369  -0.342  -0.287  -0.261  -0.255
 -- Virtual --
 -0.045  -0.016   0.031   0.105   0.143   0.153   0.158   0.160
  0.166   0.176   0.216   0.223   0.267   0.290   0.324   0.349
  0.369   0.497   0.529   0.540   0.544   0.577   0.604   0.611
  0.624   0.641   0.658   0.662   0.693   0.708   0.742   0.782
  0.793   0.810   0.819   0.827   0.848   0.860   0.879   0.894
  0.942   0.973   1.013   1.060   1.099   1.204   1.265   1.338
  1.345   1.400   1.411   1.489   1.513   1.578   1.619   1.665
  1.728   1.793   1.799   1.837   1.910   1.966   1.999   2.003
  2.055   2.119   2.144   2.178   2.224   2.249   2.281   2.317
  2.339   2.428   2.493   2.517   2.542   2.553   2.630   2.636
  2.648   2.729   2.837   2.859   2.906   2.942   3.923   4.190
  4.269   4.307   4.399   4.549   4.679
 --------------------------------------------------------------
 
          Ground-State Mulliken Net Atomic Charges

     Atom                 Charge (a.u.)    Spin (a.u.)
  --------------------------------------------------------
      1 C                    -0.094390      -0.044990
      2 C                    -0.087875       0.040304
      3 C                    -0.095936       0.079340
      4 C                    -0.246045      -0.043901
      5 C                     0.092350      -0.008746
      6 N                    -0.325239       0.021819
      7 H                     0.139797       0.003025
      8 H                     0.146104       0.000881
      9 H                     0.145552       0.000363
     10 H                     0.133963       0.002857
     11 H                     0.149648      -0.000177
     12 C                    -0.096775       0.975745
     13 H                     0.138846      -0.026521
  --------------------------------------------------------
  Sum of atomic charges =     0.000000
  Sum of spin   charges =     1.000000

 -----------------------------------------------------------------
                    Cartesian Multipole Moments
 -----------------------------------------------------------------
    Charge (ESU x 10^10)
                -0.0000
    Dipole Moment (Debye)
         X      -1.4462      Y      -1.8696      Z      -0.2296
       Tot       2.3747
    Quadrupole Moments (Debye-Ang)
        XX     -38.5208     XY      -4.0812     YY     -42.6217
        XZ       2.0201     YZ      -0.0560     ZZ     -40.3400
    Octopole Moments (Debye-Ang^2)
       XXX     -10.6706    XXY     -11.5235    XYY     -10.9855
       YYY     -24.1966    XXZ       0.3932    XYZ       2.8511
       YYZ      -4.4127    XZZ      -4.0518    YZZ      -9.7402
       ZZZ      -0.8631
    Hexadecapole Moments (Debye-Ang^3)
      XXXX    -216.9714   XXXY      -8.0767   XXYY     -88.5949
      XYYY     -18.0253   YYYY    -294.2194   XXXZ      -3.3202
      XXYZ       2.2921   XYYZ       2.3119   YYYZ      -5.5546
      XXZZ     -65.0507   XYZZ       0.6598   YYZZ     -71.8473
      XZZZ      -3.9381   YZZZ      -9.4288   ZZZZ    -175.9864
 -----------------------------------------------------------------
 Calculating analytic gradient of the SCF energy
 Gradient of SCF Energy
            1           2           3           4           5           6
    1   0.0000370   0.0000344  -0.0000192  -0.0000481  -0.0000366  -0.0000172
    2  -0.0000616   0.0000049  -0.0000235  -0.0000193   0.0000614   0.0000278
    3   0.0000518   0.0000073   0.0000114  -0.0000247   0.0000992   0.0000350
            7           8           9          10          11          12
    1   0.0000043   0.0000209   0.0000211  -0.0000102  -0.0000087   0.0000343
    2   0.0000233   0.0000313   0.0000039  -0.0000232  -0.0000323   0.0000117
    3   0.0000135  -0.0000008  -0.0000185  -0.0000306  -0.0000504  -0.0000868
           13
    1  -0.0000120
    2  -0.0000046
    3  -0.0000065
 Max gradient component =       9.923E-05
 RMS gradient           =       3.506E-05
 Gradient time:  CPU 7.92 s  wall 4.23 s
 Geometry Optimization Parameters
   NAtoms,    NIC,     NZ,  NCons,   NDum,   NFix, NCnnct, MaxDiis
       13     104       0       0       0       0       0       0

 Cartesian Hessian Update
 Hessian Updated using BFGS Update


** GEOMETRY OPTIMIZATION IN DELOCALIZED INTERNAL COORDINATES **
   Searching for a Minimum

   Optimization Cycle:   4

                       Coordinates (Angstroms)
     ATOM                X               Y               Z
      1  C         1.0985094330    0.1839562896    0.5374820328
      2  C         0.8754695473   -0.9762216475   -0.4447827596
      3  C        -0.4334755098   -0.9835648469   -0.7449802152
      4  C        -1.0769748012    0.1722851904    0.0476278394
      5  C        -0.3965941324    1.4571040686   -0.4665545873
      6  N         0.8522713095    1.4877023731   -0.2063691292
      7  H         2.0457613317    0.2012382485    1.0744545060
      8  H         1.6541697789   -1.6259804609   -0.8287524447
      9  H        -0.9627012729   -1.6343201000   -1.4325359913
     10  H        -2.1640456805    0.1737690686    0.1282376698
     11  H        -0.8995453322    2.2510901379   -1.0160900970
     12  C        -0.2101619057    0.0339504048    1.3035616432
     13  H        -0.3826827659   -0.7410087262    2.0487015330
   Point Group: c1    Number of degrees of freedom:    33


   Energy is   -286.851637837

 Hessian Updated using BFGS Update

 33 Hessian modes will be used to form the next step
  Hessian Eigenvalues:
     0.010562    0.013236    0.015067    0.016699    0.021379    0.029124
     0.046871    0.049304    0.055397    0.063083    0.066094    0.081771
     0.109678    0.140129    0.143688    0.159389    0.159843    0.159964
     0.185893    0.235191    0.253802    0.261237    0.268046    0.283281
     0.291218    0.348000    0.349370    0.349446    0.349694    0.354476
     0.354703    0.506341    0.656442

 Minimum Search - Taking Simple RFO Step
 Searching for Lamda that Minimizes Along All modes
 Value Taken    Lamda =   0.00000000
 Step Taken.  Stepsize is  0.003357

                             Maximum     Tolerance    Cnvgd?
         Gradient           0.000045      0.000300     YES
         Displacement       0.001327      0.001200      NO
         Energy change     -0.000000      0.000001     YES


                       Distance Matrix (Angstroms)
             C (  1)   C (  2)   C (  3)   C (  4)   C (  5)   N (  6)
   C (  2)  1.536426
   C (  3)  2.314043  1.342948
   C (  4)  2.229983  2.318097  1.542176
   C (  5)  2.205522  2.745850  2.456775  1.542096
   N (  6)  1.521086  2.475541  2.837324  2.348793  1.276048
   H (  7)  1.089001  2.250350  3.295560  3.287353  3.149128  2.172537
   H (  8)  2.334786  1.084432  2.185859  3.385403  3.720515  3.274969
   H (  9)  3.381670  2.188064  1.084571  2.338325  3.287933  3.813743
   H ( 10)  3.288138  3.299922  2.257610  1.090057  2.263760  3.307046
   H ( 11)  3.267851  3.727279  3.279286  2.341881  1.088744  2.075396
   C ( 12)  1.523811  2.292543  2.298201  1.532276  2.278911  2.349904
   H ( 13)  2.309388  2.802809  2.804652  2.306609  3.340420  3.402588
             H (  7)   H (  8)   H (  9)   H ( 10)   H ( 11)   C ( 12)
   H (  8)  2.667259
   H (  9)  4.324942  2.685636
   H ( 10)  4.314922  4.328244  2.673655
   H ( 11)  4.152963  4.646314  3.908175  2.687696
   C ( 12)  2.273690  3.282966  3.291758  2.284425  3.282033
   H ( 13)  2.781066  3.634788  3.640528  2.774573  4.314250  1.088834

 
 Final energy is   -286.851637836603     


 ******************************
 **  OPTIMIZATION CONVERGED  **
 ******************************

                       Coordinates (Angstroms)
     ATOM                X               Y               Z
      1  C         1.0985094330    0.1839562896    0.5374820328
      2  C         0.8754695473   -0.9762216475   -0.4447827596
      3  C        -0.4334755098   -0.9835648469   -0.7449802152
      4  C        -1.0769748012    0.1722851904    0.0476278394
      5  C        -0.3965941324    1.4571040686   -0.4665545873
      6  N         0.8522713095    1.4877023731   -0.2063691292
      7  H         2.0457613317    0.2012382485    1.0744545060
      8  H         1.6541697789   -1.6259804609   -0.8287524447
      9  H        -0.9627012729   -1.6343201000   -1.4325359913
     10  H        -2.1640456805    0.1737690686    0.1282376698
     11  H        -0.8995453322    2.2510901379   -1.0160900970
     12  C        -0.2101619057    0.0339504048    1.3035616432
     13  H        -0.3826827659   -0.7410087262    2.0487015330

Z-matrix Print:
$molecule
0 2
N 
C  1 1.276048
H  2 1.088744 1 122.516650
C  1 1.521086 2 103.744593 3 -179.002966 0
H  4 1.089001 1 111.613414 2 -163.240908 0
C  4 1.523811 1 101.022864 2 -34.495464 0
H  6 1.088834 4 123.379865 1 -173.191563 0
C  6 1.532276 4 93.719682 1 53.530884 0
H  8 1.090057 6 120.242624 4 -176.914624 0
C  4 1.536426 1 108.124144 2 66.747730 0
H  10 1.084432 4 125.069315 1 110.933629 0
C  10 1.342948 4 106.770095 1 -67.231227 0
H  12 1.084571 10 128.359475 4 177.633484 0
$end

 
 --------------------------------------------------------------
 
                    Orbital Energies (a.u.)
 --------------------------------------------------------------
 
 Alpha MOs
 -- Occupied --
-14.322 -10.224 -10.220 -10.210 -10.204 -10.201 -10.197  -0.952
 -0.821  -0.726  -0.705  -0.579  -0.573  -0.531  -0.512  -0.472
 -0.418  -0.410  -0.381  -0.373  -0.348  -0.294  -0.271  -0.258
 -0.196
 -- Virtual --
 -0.021   0.029   0.103   0.140   0.150   0.154   0.159   0.163
  0.172   0.210   0.215   0.255   0.288   0.322   0.346   0.366
  0.495   0.510   0.532   0.540   0.570   0.599   0.606   0.622
  0.635   0.641   0.655   0.690   0.700   0.729   0.778   0.791
  0.799   0.817   0.825   0.846   0.858   0.876   0.891   0.940
  0.965   1.005   1.059   1.092   1.201   1.264   1.334   1.339
  1.396   1.406   1.487   1.510   1.563   1.611   1.659   1.725
  1.784   1.796   1.827   1.892   1.954   1.986   2.000   2.049
  2.097   2.138   2.172   2.208   2.235   2.276   2.315   2.335
  2.425   2.476   2.515   2.532   2.548   2.618   2.629   2.645
  2.722   2.835   2.856   2.904   2.939   3.922   4.187   4.267
  4.279   4.396   4.543   4.678
 
 Beta MOs
 -- Occupied --
-14.321 -10.224 -10.221 -10.210 -10.200 -10.196 -10.190  -0.949
 -0.815  -0.725  -0.690  -0.577  -0.561  -0.527  -0.509  -0.463
 -0.414  -0.406  -0.379  -0.369  -0.342  -0.287  -0.261  -0.255
 -- Virtual --
 -0.045  -0.016   0.031   0.105   0.143   0.153   0.158   0.160
  0.166   0.176   0.216   0.223   0.267   0.290   0.324   0.349
  0.369   0.497   0.529   0.540   0.544   0.577   0.604   0.611
  0.624   0.641   0.658   0.662   0.693   0.708   0.742   0.782
  0.793   0.810   0.819   0.827   0.848   0.860   0.879   0.894
  0.942   0.973   1.013   1.060   1.099   1.204   1.265   1.338
  1.345   1.400   1.411   1.489   1.513   1.578   1.619   1.665
  1.728   1.793   1.799   1.837   1.910   1.966   1.999   2.003
  2.055   2.119   2.144   2.178   2.224   2.249   2.281   2.317
  2.339   2.428   2.493   2.517   2.542   2.553   2.630   2.636
  2.648   2.729   2.837   2.859   2.906   2.942   3.923   4.190
  4.269   4.307   4.399   4.549   4.679
 --------------------------------------------------------------
 
          Ground-State Mulliken Net Atomic Charges

     Atom                 Charge (a.u.)    Spin (a.u.)
  --------------------------------------------------------
      1 C                    -0.094390      -0.044990
      2 C                    -0.087875       0.040304
      3 C                    -0.095936       0.079340
      4 C                    -0.246045      -0.043901
      5 C                     0.092350      -0.008746
      6 N                    -0.325239       0.021819
      7 H                     0.139797       0.003025
      8 H                     0.146104       0.000881
      9 H                     0.145552       0.000363
     10 H                     0.133963       0.002857
     11 H                     0.149648      -0.000177
     12 C                    -0.096775       0.975745
     13 H                     0.138846      -0.026521
  --------------------------------------------------------
  Sum of atomic charges =     0.000000
  Sum of spin   charges =     1.000000

 -----------------------------------------------------------------
                    Cartesian Multipole Moments
 -----------------------------------------------------------------
    Charge (ESU x 10^10)
                -0.0000
    Dipole Moment (Debye)
         X      -1.4462      Y      -1.8696      Z      -0.2296
       Tot       2.3747
    Quadrupole Moments (Debye-Ang)
        XX     -38.5208     XY      -4.0812     YY     -42.6217
        XZ       2.0201     YZ      -0.0560     ZZ     -40.3400
    Octopole Moments (Debye-Ang^2)
       XXX     -10.6706    XXY     -11.5235    XYY     -10.9855
       YYY     -24.1966    XXZ       0.3932    XYZ       2.8511
       YYZ      -4.4127    XZZ      -4.0518    YZZ      -9.7402
       ZZZ      -0.8631
    Hexadecapole Moments (Debye-Ang^3)
      XXXX    -216.9714   XXXY      -8.0767   XXYY     -88.5949
      XYYY     -18.0253   YYYY    -294.2194   XXXZ      -3.3202
      XXYZ       2.2921   XYYZ       2.3119   YYYZ      -5.5546
      XXZZ     -65.0507   XYZZ       0.6598   YYZZ     -71.8473
      XZZZ      -3.9381   YZZZ      -9.4288   ZZZZ    -175.9864
 -----------------------------------------------------------------
Archival summary:
1\1\c8-73\OPT\ProcedureUnspecified\6-31G*\166(2)\hpark21\WedMar201:47:332022WedMar201:47:332022\0\\#,OPT,ProcedureUnspecified,6-31G*,\\0,2\N\C,1,1.27605\H,2,1.08874,1,122.517\C,1,1.52109,2,103.745,3,-179.003,0\H,4,1.089,1,111.613,2,-163.241,0\C,4,1.52381,1,101.023,2,-34.4955,0\H,6,1.08883,4,123.38,1,-173.192,0\C,6,1.53228,4,93.7197,1,53.5309,0\H,8,1.09006,6,120.243,4,-176.915,0\C,4,1.53643,1,108.124,2,66.7477,0\H,10,1.08443,4,125.069,1,110.934,0\C,10,1.34295,4,106.77,1,-67.2312,0\H,12,1.08457,10,128.359,4,177.633,0\\\@

 Total job time:  164.57s(wall), 218.70s(cpu) 
 Wed Mar  2 01:47:33 2022

        *************************************************************
        *                                                           *
        *  Thank you very much for using Q-Chem.  Have a nice day.  *
        *                                                           *
        *************************************************************


