13   
From qcfsm.out: Frame 62 / 62, Energy=       0.0000000000
C        1.4102593078    0.3067171272    0.2236715233
C        0.9970737156   -0.8756588561   -0.4729363080
C       -0.4097842121   -0.9622485335   -0.5120660541
C       -1.0940602419    0.2726526969    0.0222721248
C       -0.3862147814    1.5188972988   -0.3879238546
N        0.8804424877    1.5381870236   -0.2084315810
H        2.4059749072    0.3739874427    0.6581583967
H        1.6672928262   -1.6991155453   -0.6866398562
H       -0.9560440564   -1.7836181876   -0.9652339695
H       -2.1867806586    0.2831682342   -0.0469690083
H       -0.9010078988    2.3780988519   -0.8173079226
C       -0.4857499469   -0.3563048210    1.2467666493
H       -0.9871432278   -1.0202014725    1.9499527041
