13   
From optimize.out: Frame 1 / 1, Energy=    -286.8549868008
C        1.6972674499    0.2878043459   -0.2177946769
C        1.0901877441   -0.9150443011   -0.1130997488
C       -0.3619637773   -1.0474732349    0.0889831806
C       -1.1404209314    0.3810042155   -0.0222865165
C       -0.2577572752    1.5000476524   -0.4006826261
N        1.0305620919    1.4987760097   -0.4081843795
H        2.7791612696    0.3569904953   -0.2962301170
H        1.6743188469   -1.8289541903   -0.1884936329
H       -0.8372409141   -1.9446421130   -0.3118803428
H       -2.1404458750    0.4184069429   -0.4587273145
H       -0.7545360329    2.4046352209   -0.7599226703
C       -0.9922145815   -0.3754667208    1.2230969943
H       -1.7869180147   -0.7360843224    1.8652218504
13   
From optimize.out: Frame 37 / 38, Energy=    -286.8549868008
C        1.6998112451    0.2799588601   -0.2352899921
C        1.0975072488   -0.9171200325   -0.1106214181
C       -0.3608173969   -1.0376959208    0.1000361891
C       -1.1458825307    0.3664429466   -0.0427654045
C       -0.2593689110    1.4994945797   -0.3869690707
N        1.0265592158    1.5029218744   -0.3825205120
H        2.7774427604    0.3559801941   -0.3511580586
H        1.6725674427   -1.8362625886   -0.1880262608
H       -0.8323909959   -1.9485628901   -0.2751396428
H       -2.1114845030    0.3699263276   -0.5513411261
H       -0.7526476822    2.4289858389   -0.6793003961
C       -1.0175482574   -0.3553337758    1.2210372581
H       -1.7937476355   -0.7087354136    1.8820584347
13   
From optimize.out: Frame 36 / 38, Energy=    -286.8549864661
C        1.7026013452    0.2771755790   -0.2813596743
C        1.1025134287   -0.9141574131   -0.0963868337
C       -0.3585005432   -1.0243800896    0.1116405760
C       -1.1413555339    0.3419474227   -0.0720075648
C       -0.2544923860    1.5028077961   -0.3563626416
N        1.0306328116    1.5052329877   -0.3843848338
H        2.7773425216    0.3439352419   -0.4264405000
H        1.6823940767   -1.8329062246   -0.1400330241
H       -0.8225376484   -1.9431399911   -0.2568727845
H       -2.0883726835    0.3289670120   -0.6137526609
H       -0.7543336237    2.4486607946   -0.5807702212
C       -1.0458870859   -0.3495304603    1.2156105564
H       -1.8300046792   -0.6846126554    1.8811196064
13   
From optimize.out: Frame 34 / 38, Energy=    -286.8549818804
C        1.7060324441    0.2714595315   -0.3235422496
C        1.1125255301   -0.9072989372   -0.0752300884
C       -0.3546169064   -1.0199016404    0.1187330549
C       -1.1450511192    0.3156733476   -0.1172437533
C       -0.2528512895    1.4935091384   -0.3348699162
N        1.0284069795    1.4967260951   -0.3922981488
H        2.7780637636    0.3364446719   -0.4876998654
H        1.6918022757   -1.8261276681   -0.0990783319
H       -0.7995562929   -1.9566402474   -0.2252839619
H       -2.0835372999    0.3466412737   -0.6700362539
H       -0.7577850486    2.4532297312   -0.4746727205
C       -1.0745891555   -0.3290565978    1.2068097772
H       -1.8488438810   -0.6746586985    1.8744124579
13   
From optimize.out: Frame 33 / 38, Energy=    -286.8549673691
C        1.7079897627    0.2713867739   -0.3145878605
C        1.1006323835   -0.9076301913   -0.0714783191
C       -0.3665071783   -1.0034277007    0.1247658701
C       -1.1405411742    0.2861896121   -0.1576242041
C       -0.2505286533    1.4866593465   -0.3345132309
N        1.0274226926    1.4940894395   -0.4251225937
H        2.7817383379    0.3412888528   -0.4635215190
H        1.6709014225   -1.8325189887   -0.1091362625
H       -0.8091894994   -1.9492159686   -0.1856366783
H       -2.0824594052    0.3496960813   -0.7097853707
H       -0.7605289617    2.4499645278   -0.4212272954
C       -1.0932238411   -0.2631530882    1.1899949182
H       -1.7857058858   -0.7233286963    1.8778725459
13   
From optimize.out: Frame 32 / 38, Energy=    -286.8549273700
C        1.7143849345    0.2681597576   -0.3393189032
C        1.1076131717   -0.9055297987   -0.0779430727
C       -0.3543055791   -1.0015194431    0.1471203898
C       -1.1568042738    0.2995208919   -0.1649982097
C       -0.2429126748    1.4942710233   -0.3220300631
N        1.0323589383    1.4942448208   -0.4330002903
H        2.7860171225    0.3386735868   -0.5015540082
H        1.6801091916   -1.8299179221   -0.1036830304
H       -0.7942526059   -1.9674058293   -0.0892364092
H       -2.0831919703    0.3898602267   -0.7398345380
H       -0.7468652159    2.4613509329   -0.3925344127
C       -1.1430619188   -0.2423977037    1.1828826253
H       -1.7990891199   -0.7993105430    1.8341299223
13   
From optimize.out: Frame 30 / 38, Energy=    -286.8545123250
C        1.7212874909    0.2615789444   -0.3435134937
C        1.1155624598   -0.8915295979   -0.0729289150
C       -0.3525506022   -0.9837346684    0.1389431217
C       -1.1558031796    0.3009442641   -0.1708311437
C       -0.2419132647    1.4900978054   -0.3365002746
N        1.0313676646    1.4846264376   -0.4736979462
H        2.7947423039    0.3276997135   -0.4944255128
H        1.6939821402   -1.8132847073   -0.0925488781
H       -0.8186830007   -1.9493058420   -0.0182790630
H       -2.0953249564    0.4166648378   -0.7245662069
H       -0.7410779581    2.4600743743   -0.3665149091
C       -1.1675886358   -0.2405482893    1.1727330429
H       -1.7840004619   -0.8632832722    1.7821301785
13   
From optimize.out: Frame 29 / 38, Energy=    -286.8541598187
C        1.7193407469    0.2630732680   -0.3247303742
C        1.0992661351   -0.8880849660   -0.0724617553
C       -0.3669819902   -0.9585615639    0.0946376868
C       -1.1506118038    0.3061149131   -0.1531411130
C       -0.2429152433    1.4923807238   -0.3629192469
N        1.0318311794    1.4806940819   -0.4970958345
H        2.7965654400    0.3233657274   -0.4480533950
H        1.6728615861   -1.8131424451   -0.0714873828
H       -0.8545182806   -1.9183145127   -0.0186641121
H       -2.0972822469    0.4056643907   -0.7000642011
H       -0.7378643615    2.4634474208   -0.4076468757
C       -1.1663516835   -0.2123281615    1.2031858866
H       -1.7033394774   -0.9443088764    1.7584407171
13   
From optimize.out: Frame 26 / 38, Energy=    -286.8527398702
C        1.7139793759    0.2644316987   -0.3129167007
C        1.0876462605   -0.8923037514   -0.0865294050
C       -0.3687420949   -0.9439907333    0.0227852414
C       -1.1258178400    0.3112170444   -0.1147185492
C       -0.2428716588    1.4997587346   -0.3823088489
N        1.0328309044    1.4782316445   -0.5172560500
H        2.7943114154    0.3240300908   -0.4031695130
H        1.6621754579   -1.8163204017   -0.0579678110
H       -0.8887058188   -1.8915998279   -0.0200909462
H       -2.0809622044    0.3779208001   -0.6545394166
H       -0.7390360330    2.4672469964   -0.4619762715
C       -1.1841743058   -0.1691700785    1.2674405078
H       -1.6606334582   -1.0094522168    1.7212477627
13   
From optimize.out: Frame 25 / 38, Energy=    -286.8519680798
C        1.7046230361    0.2665291401   -0.3005936915
C        1.0682063234   -0.8938921761   -0.0950399731
C       -0.3781407344   -0.9228286432   -0.0083732519
C       -1.1053210129    0.3164122499   -0.0963297563
C       -0.2421235724    1.5122727694   -0.3991238516
N        1.0348195985    1.4819107395   -0.5248760478
H        2.7867967123    0.3213749702   -0.3667342019
H        1.6379375794   -1.8196685685   -0.0440359891
H       -0.9274528481   -1.8537966117    0.0114996217
H       -2.0647140956    0.3581812705   -0.6319706155
H       -0.7430552981    2.4745009062   -0.5083822161
C       -1.1805467089   -0.1616496182    1.2965313021
H       -1.5910289793   -1.0793464281    1.6674286711
13   
From optimize.out: Frame 24 / 38, Energy=    -286.8511441466
C        1.6963879571    0.2690941474   -0.2883590668
C        1.0499640334   -0.8972760513   -0.1079900623
C       -0.3836934148   -0.9055262330   -0.0331233134
C       -1.0908259445    0.3207396528   -0.0824251511
C       -0.2415570638    1.5238513388   -0.4116745031
N        1.0370578117    1.4864891451   -0.5244338608
H        2.7795176639    0.3196124967   -0.3312063207
H        1.6143650184   -1.8250423276   -0.0383022012
H       -0.9605686066   -1.8184969836    0.0462002530
H       -2.0493556654    0.3398206411   -0.6208247073
H       -0.7478297664    2.4791792669   -0.5496006429
C       -1.1833122592   -0.1577067132    1.3148503189
H       -1.5201497638   -1.1347383801    1.6268892577
13   
From optimize.out: Frame 22 / 38, Energy=    -286.8450721206
C        1.7044332066    0.2734656534   -0.2823903540
C        1.0597634649   -0.9101088130   -0.1369014417
C       -0.3624336200   -0.9249008386   -0.0842876276
C       -1.0909487194    0.3107388727   -0.0576407756
C       -0.2427969714    1.5111528514   -0.4059516516
N        1.0383360252    1.4822229561   -0.5106251547
H        2.7875066575    0.3326159652   -0.3079911248
H        1.6285363212   -1.8355646664   -0.0775953255
H       -0.9353869025   -1.8421871903   -0.0199495150
H       -2.0425562273    0.3180445284   -0.6092950267
H       -0.7512798939    2.4611396811   -0.5680728854
C       -1.2273287286   -0.1055699648    1.3578003237
H       -1.5658446122   -1.0710490352    1.7029005588
13   
From optimize.out: Frame 21 / 38, Energy=    -286.8396047926
C        1.7124838687    0.2778398111   -0.2764315788
C        1.0695716441   -0.9229386804   -0.1658202631
C       -0.3411662724   -0.9442825720   -0.1353951267
C       -1.0910485008    0.3007204356   -0.0328601269
C       -0.2440306573    1.4984556425   -0.4002159305
N        1.0396201155    1.4779606636   -0.4968115814
H        2.7955008256    0.3456168668   -0.2848159195
H        1.6427271628   -1.8460767232   -0.1169268811
H       -0.9101914698   -1.8658860771   -0.0860591461
H       -2.0357399398    0.2962603094   -0.5977601590
H       -0.7547380999    2.4430958592   -0.5865107246
C       -1.2713487339   -0.0534434995    1.4007228709
H       -1.6116399429   -1.0073220360    1.7788845669
13   
From optimize.out: Frame 20 / 38, Energy=    -286.8346790211
C        1.7208354493    0.2823539439   -0.2713844899
C        1.0799216409   -0.9353108699   -0.1948436948
C       -0.3196527838   -0.9639085215   -0.1809952167
C       -1.0892758774    0.2894389988   -0.0088118616
C       -0.2447367959    1.4860823482   -0.3935325263
N        1.0413600870    1.4740891916   -0.4828412821
H        2.8037775196    0.3581837731   -0.2652955907
H        1.6582618445   -1.8555702189   -0.1587038773
H       -0.8843154924   -1.8898806983   -0.1477584135
H       -2.0276709035    0.2741938844   -0.5860030721
H       -0.7587936642    2.4250199144   -0.6018303031
C       -1.3148940055   -0.0030564235    1.4406681893
H       -1.6648170187   -0.9416353221    1.8513321386
13   
From optimize.out: Frame 18 / 38, Energy=    -286.8115270321
C        1.7310222026    0.2877146256   -0.2722397544
C        1.0936288277   -0.9446090185   -0.2242104421
C       -0.2968038154   -0.9848789030   -0.1907692902
C       -1.0755180371    0.2701869084    0.0102693291
C       -0.2420525176    1.4759254641   -0.3808482990
N        1.0460033830    1.4727671992   -0.4680237055
H        2.8137723050    0.3678262851   -0.2694292746
H        1.6822375204   -1.8584259570   -0.2156889152
H       -0.8543680001   -1.9155007871   -0.1804839298
H       -2.0116606988    0.2505669795   -0.5729538223
H       -0.7666335325    2.4069419203   -0.5969838513
C       -1.3549042211    0.0356098794    1.4610739265
H       -1.7647234160   -0.8641245958    1.9002880287
13   
From optimize.out: Frame 17 / 38, Energy=    -286.7934016227
C        1.7411577586    0.2929559140   -0.2736038092
C        1.1074850293   -0.9536819927   -0.2530978595
C       -0.2739574623   -1.0058923083   -0.1998317519
C       -1.0616876813    0.2508414510    0.0293741813
C       -0.2394353721    1.4656503954   -0.3679932094
N        1.0504909786    1.4714021103   -0.4535729517
H        2.8236931996    0.3774931947   -0.2741449831
H        1.7062446740   -1.8609393881   -0.2722996296
H       -0.8243231275   -1.9411092856   -0.2120884384
H       -1.9961050530    0.2274619170   -0.5589318945
H       -0.7745505349    2.3888380240   -0.5913904838
C       -1.3924883492    0.0723579871    1.4811983698
H       -1.8665240599   -0.7853780187    1.9463824599
13   
From optimize.out: Frame 16 / 38, Energy=    -286.7926216580
C        1.7508028808    0.2973249719   -0.2783468335
C        1.1222737043   -0.9611442748   -0.2785310757
C       -0.2512830585   -1.0272311847   -0.2040492740
C       -1.0473665491    0.2306966612    0.0485353607
C       -0.2373982204    1.4544356663   -0.3540314917
N        1.0537785231    1.4697014471   -0.4415974853
H        2.8329621672    0.3873258738   -0.2824103665
H        1.7303374210   -1.8609722388   -0.3262426412
H       -0.7937135077   -1.9666299744   -0.2362605384
H       -1.9840248489    0.2082037320   -0.5377189884
H       -0.7831033309    2.3703976539   -0.5808188723
C       -1.4122673281    0.0951710643    1.4993223534
H       -1.9809978527   -0.6972793980    1.9721498529
13   
From optimize.out: Frame 14 / 38, Energy=    -286.7875546129
C        1.7590944743    0.3011523052   -0.2821433936
C        1.1362411698   -0.9679164886   -0.3022549736
C       -0.2300842026   -1.0488889099   -0.2084464245
C       -1.0330820972    0.2089776139    0.0666898659
C       -0.2365325954    1.4419360988   -0.3406510976
N        1.0557523649    1.4676023790   -0.4293080020
H        2.8408153710    0.3971559267   -0.2865403238
H        1.7531931493   -1.8596383968   -0.3791623355
H       -0.7640580277   -1.9920848508   -0.2626616711
H       -1.9755068474    0.1916475308   -0.5112307840
H       -0.7927134372    2.3504016047   -0.5714615891
C       -1.4202042652    0.1100068015    1.5167031348
H       -2.0929150566   -0.6003516145    1.9904675940
13   
From optimize.out: Frame 13 / 38, Energy=    -286.7861329053
C        1.7638488701    0.3041707925   -0.2808675553
C        1.1470006480   -0.9743616071   -0.3237524623
C       -0.2129931034   -1.0713927684   -0.2184850110
C       -1.0202929459    0.1851933172    0.0811851661
C       -0.2382909650    1.4278364350   -0.3299005475
N        1.0551663962    1.4649404775   -0.4145770675
H        2.8450331757    0.4066083802   -0.2760544538
H        1.7725870283   -1.8568905804   -0.4302299391
H       -0.7374737789   -2.0178524603   -0.3006910300
H       -1.9745120811    0.1794514617   -0.4774429665
H       -0.8043485184    2.3276984307   -0.5695630830
C       -1.4094682931    0.1123803421    1.5337141525
H       -2.1862564325   -0.4877822206    2.0066647974
13   
From optimize.out: Frame 12 / 38, Energy=    -286.7848872124
C        1.7616960125    0.3055021554   -0.2713232474
C        1.1510132344   -0.9808719603   -0.3390520079
C       -0.2047894582   -1.0942047946   -0.2428102391
C       -1.0149921410    0.1667146877    0.0836772257
C       -0.2437831362    1.4169878778   -0.3267861628
N        1.0508413727    1.4626026976   -0.3988447028
H        2.8416382206    0.4135842388   -0.2382990763
H        1.7848680293   -1.8536855043   -0.4707565721
H       -0.7187831526   -2.0435743903   -0.3498319754
H       -1.9882164646    0.1793685806   -0.4397259655
H       -0.8174023816    2.3073075696   -0.5821997110
C       -1.3674047436    0.0889114481    1.5468405808
H       -2.2346853918   -0.3686426060    2.0291118537
13   
From optimize.out: Frame 10 / 38, Energy=    -286.7825549808
C        1.7554942347    0.3045427435   -0.2477390448
C        1.1491567305   -0.9842815630   -0.3537706539
C       -0.2055933392   -1.1064920752   -0.2738503877
C       -1.0155835169    0.1514263387    0.0757571106
C       -0.2530648221    1.4047331298   -0.3378481749
N        1.0439331094    1.4592230826   -0.3781607005
H        2.8325223214    0.4157449381   -0.1670036129
H        1.7845758557   -1.8499671720   -0.5160885031
H       -0.7158812265   -2.0568068703   -0.3871282569
H       -2.0074493525    0.1927228939   -0.4072904899
H       -0.8305946111    2.2852038147   -0.6165771235
C       -1.3198241995    0.0686835394    1.5475187504
H       -2.2176911841   -0.2847328002    2.0621810870
13   
From optimize.out: Frame 9 / 38, Energy=    -286.7806565999
C        1.7608313979    0.3026189488   -0.2347754518
C        1.1579709189   -0.9815622965   -0.3941663399
C       -0.1923875940   -1.0999155917   -0.2816567990
C       -1.0191432767    0.1420511718    0.0958194458
C       -0.2574859678    1.3877238222   -0.3355129603
N        1.0425019675    1.4549792987   -0.3414045861
H        2.8335113682    0.4121628528   -0.1143233388
H        1.7796304024   -1.8427468929   -0.6211099902
H       -0.7045949013   -2.0527331983   -0.3627364264
H       -1.9958168365    0.1391233882   -0.4157500978
H       -0.8290306957    2.2642480038   -0.6368439453
C       -1.3345383100    0.0841767184    1.5595283328
H       -2.2414484729   -0.2101262253    2.0829321571
13   
From optimize.out: Frame 6 / 38, Energy=    -286.7610579461
C        1.7502133623    0.3006920965   -0.2030980211
C        1.1468206713   -0.9743956859   -0.4199879866
C       -0.2036989702   -1.0921211245   -0.3155182987
C       -1.0248230855    0.1391042505    0.0897031114
C       -0.2640331735    1.3772528797   -0.3581464702
N        1.0359889692    1.4560374372   -0.3046377654
H        2.8150979626    0.4001138306   -0.0234895578
H        1.7593824307   -1.8328653057   -0.6839062932
H       -0.7070432740   -2.0523474141   -0.3643223439
H       -2.0091002051    0.1249431295   -0.4068882530
H       -0.8286554810    2.2481216102   -0.6875718327
C       -1.2874782596    0.0701910515    1.5567176745
H       -2.1826709473   -0.1647267555    2.1211460369
13   
From optimize.out: Frame 5 / 38, Energy=    -286.7416072366
C        1.7440636372    0.2977338487   -0.1707092567
C        1.1350412540   -0.9617936282   -0.4466260532
C       -0.2170790451   -1.0825000988   -0.3350620046
C       -1.0340656157    0.1365259060    0.0716457195
C       -0.2665698076    1.3655700396   -0.3859943520
N        1.0306862262    1.4549821146   -0.2608868525
H        2.8024166886    0.3850515594    0.0540721870
H        1.7374173892   -1.8144092568   -0.7528964543
H       -0.7116330784   -2.0486462146   -0.3185063034
H       -2.0259929592    0.1221149643   -0.4119267973
H       -0.8271911048    2.2359419849   -0.7245111728
C       -1.2431399616    0.0509454871    1.5374614583
H       -2.1239536228   -0.1415167064    2.1439398819
13   
From optimize.out: Frame 4 / 38, Energy=    -286.7206759512
C        1.7417457015    0.2908580772   -0.1680430145
C        1.1375091069   -0.9612381858   -0.4778915695
C       -0.2176972657   -1.0995017207   -0.3559776064
C       -1.0612733800    0.1493342316    0.0476907061
C       -0.2731811460    1.3643065729   -0.4048435744
N        1.0230060602    1.4448549631   -0.2415490208
H        2.7910102917    0.3752017133    0.1029575591
H        1.7463992776   -1.8097167741   -0.7870009606
H       -0.6912998032   -2.0677529255   -0.2162902733
H       -2.0593957253    0.1566905826   -0.4261611863
H       -0.8198337319    2.2561722086   -0.7086855581
C       -1.2276845826    0.0324254284    1.5020390406
H       -2.0893048033   -0.1316341715    2.1337554580
13   
From optimize.out: Frame 2 / 38, Energy=    -286.6493259635
C        1.7352006370    0.2858950765   -0.1554988992
C        1.1272336848   -0.9478181918   -0.5201741167
C       -0.2296289879   -1.1105405420   -0.3717022911
C       -1.0744401492    0.1515802082    0.0318044746
C       -0.2730791595    1.3517954720   -0.4253134820
N        1.0168742230    1.4361838180   -0.2124217429
H        2.7757558656    0.3603249121    0.1583600539
H        1.7426616919   -1.7893189346   -0.8369882403
H       -0.6741955835   -2.0725396370   -0.1118949710
H       -2.0780192360    0.1695499582   -0.4338206633
H       -0.8104567816    2.2590357407   -0.7019201757
C       -1.2093451117    0.0223020215    1.4706878288
H       -2.0485610930   -0.1164499017    2.1088822250
13   
From optimize.out: Frame 1 / 38, Energy=    -286.6166929194
C        1.7053983496    0.2767719030   -0.1378857044
C        1.1106206950   -0.9411218213   -0.5579863990
C       -0.2530655856   -1.1416188725   -0.4176387490
C       -1.0586585545    0.1654472375    0.0411416192
C       -0.2727335563    1.3637761622   -0.4473882112
N        1.0036518440    1.4356735377   -0.1866433612
H        2.7323705225    0.3362205200    0.2182654291
H        1.7491318432   -1.7664739236   -0.8649880173
H       -0.6551783901   -2.1052890944   -0.1024454392
H       -2.0582813465    0.1559969895   -0.4305969338
H       -0.8037374087    2.2735955108   -0.7288933297
C       -1.1849806512    0.0437385384    1.4799436342
H       -2.0145377615   -0.0967166873    2.1351154625
13   
C5H5N+CH->C6H6N atoms 1-13 frame 155 charge -0.000 sz -1.000 sz^2 4.018
C        1.6663289363    0.2652173397   -0.1244608840
C        1.0960699455   -0.9430721300   -0.5885914946
C       -0.2772247886   -1.1859232038   -0.4791925354
C       -1.0346014055    0.1890060306    0.0599614211
C       -0.2747128202    1.3917555271   -0.4677924445
N        0.9867412588    1.4381255261   -0.1701789957
H        2.6774909286    0.3107408741    0.2734202362
H        1.7670554516   -1.7497715853   -0.8698733364
H       -0.6326843013   -2.1568861444   -0.1389910921
H       -2.0264780287    0.1404687374   -0.4232808538
H       -0.7986266026    2.3013969351   -0.7641425498
C       -1.1613447519    0.0773708753    1.5067784403
H       -1.9880138219   -0.0784287818    2.1863440887
13   
C5H5N+CH->C6H6N atoms 1-13 frame 156 charge -0.000 sz -1.000 sz^2 4.105
C        1.6566665405    0.2481217283   -0.1201599463
C        1.1227097148   -0.9469747481   -0.6290221879
C       -0.2596470431   -1.1825649265   -0.5456190035
C       -1.0450706435    0.1912199721    0.0891487852
C       -0.2814705912    1.3826624407   -0.4824133169
N        0.9719701856    1.4178746221   -0.1666050024
H        2.6473983897    0.2907179446    0.3214155508
H        1.8127965714   -1.7444643993   -0.8856997335
H       -0.6102566234   -2.1424261371   -0.1791995266
H       -2.0317021147    0.1348493756   -0.4028511543
H       -0.7915214919    2.2962251740   -0.7905577187
C       -1.1800192563    0.0997999885    1.5449451654
H       -2.0118536378   -0.0450410350    2.2466180889
13   
C5H5N+CH->C6H6N atoms 1-13 frame 157 charge -0.000 sz -1.000 sz^2 4.183
C        1.6625989854    0.2303273570   -0.1206408395
C        1.1662669720   -0.9511417369   -0.6698742992
C       -0.2237922716   -1.1561007249   -0.6065171206
C       -1.0713165829    0.1825613868    0.1198370743
C       -0.2897180338    1.3561715242   -0.4926337351
N        0.9599979163    1.3888123709   -0.1694196481
H        2.6330171908    0.2756239995    0.3606804204
H        1.8665648337   -1.7451005613   -0.9056992231
H       -0.5904841247   -2.0970316006   -0.2154401219
H       -2.0546050375    0.1346934664   -0.3784638563
H       -0.7842049238    2.2752670571   -0.8095161618
C       -1.2170902772    0.1139544014    1.5838537197
H       -2.0572346468   -0.0080369395    2.3038337911
13   
C5H5N+CH->C6H6N atoms 1-13 frame 159 charge +0.000 sz -1.000 sz^2 4.312
C        1.6686401609    0.2147420419   -0.1342308125
C        1.1991693302   -0.9592529344   -0.6992511617
C       -0.1900600859   -1.1414675861   -0.6023874573
C       -1.1031444604    0.1856985702    0.1191200971
C       -0.2955823441    1.3503111652   -0.5010464039
N        0.9498016034    1.3643691340   -0.1748316624
H        2.6295283478    0.2655353648    0.3630075076
H        1.9057327158   -1.7488474475   -0.9273079691
H       -0.5459210135   -2.0601869946   -0.1665593245
H       -2.0828631669    0.1723486542   -0.3830397737
H       -0.7671753344    2.2842023718   -0.8047153338
C       -1.2595118773    0.0940046685    1.5875963595
H       -2.1086138757   -0.0214570080    2.3236459348
13   
C5H5N+CH->C6H6N atoms 1-13 frame 160 charge +0.000 sz -1.000 sz^2 4.363
C        1.6703695484    0.2103412695   -0.1523770153
C        1.2017414289   -0.9664809440   -0.7005207335
C       -0.1789576052   -1.1481163718   -0.5380139062
C       -1.1210507598    0.1990898286    0.0883223265
C       -0.2956627832    1.3688445602   -0.5031100459
N        0.9470492077    1.3590434241   -0.1792519605
H        2.6376671098    0.2658284192    0.3287467449
H        1.9076589453   -1.7530881115   -0.9377425074
H       -0.5029443207   -2.0547453210   -0.0637422656
H       -2.0989295409    0.2245320188   -0.4132486908
H       -0.7505930751    2.3178557055   -0.7801281529
C       -1.2815117860    0.0530536675    1.5550858531
H       -2.1348363691   -0.0761581451    2.2959803537
13   
C5H5N+CH->C6H6N atoms 1-13 frame 161 charge +0.000 sz -1.000 sz^2 4.389
C        1.6720989869    0.2059403671   -0.1705237541
C        1.2043136036   -0.9737091672   -0.7017903428
C       -0.1678547964   -1.1547653539   -0.4736384533
C       -1.1389575883    0.2124814827    0.0575236460
C       -0.2957432247    1.3873785026   -0.5051737488
N        0.9442967307    1.3537175569   -0.1836723892
H        2.6458061122    0.2661214821    0.2944849700
H        1.9095852316   -1.7573289008   -0.9481773540
H       -0.4599663583   -2.0493034866    0.0390778309
H       -2.1149963896    0.2767169251   -0.4434585004
H       -0.7340103259    2.3515100336   -0.7555402456
C       -1.3035123447    0.0121014567    1.5225743863
H       -2.1610596372   -0.1308608983    2.2683139552
13   
C5H5N+CH->C6H6N atoms 1-13 frame 163 charge +0.000 sz -1.000 sz^2 4.386
C        1.6721315913    0.2019196168   -0.1878703613
C        1.2044919896   -0.9793805704   -0.7030143251
C       -0.1597650919   -1.1573849946   -0.4088500038
C       -1.1527353334    0.2244896068    0.0259038936
C       -0.2948544893    1.4063369137   -0.5088503201
N        0.9409350389    1.3494635061   -0.1875926540
H        2.6514669418    0.2653748380    0.2622200561
H        1.9082769659   -1.7607740609   -0.9579640866
H       -0.4206363288   -2.0387680147    0.1431581579
H       -2.1264867994    0.3254892807   -0.4752280712
H       -0.7176920407    2.3847789047   -0.7332560387
C       -1.3216921983   -0.0311899654    1.4899540706
H       -2.1834402457   -0.1903550609    2.2413896824
13   
C5H5N+CH->C6H6N atoms 1-13 frame 164 charge +0.000 sz -1.000 sz^2 4.359
C        1.6591436340    0.2038137758   -0.1861316818
C        1.1862028843   -0.9688919062   -0.7029745948
C       -0.1807956124   -1.1271868074   -0.3892919482
C       -1.1245967999    0.2169317104    0.0116137727
C       -0.2872065780    1.4143854298   -0.5221337915
N        0.9354183227    1.3565961480   -0.1847538848
H        2.6339188770    0.2572226861    0.2693494798
H        1.8831721760   -1.7555520713   -0.9554766790
H       -0.4386236178   -1.9970893527    0.1791481635
H       -2.0943431131    0.3116942088   -0.4952137924
H       -0.7155882129    2.3902454259   -0.7452612158
C       -1.2970295262   -0.0600611992    1.4808657363
H       -2.1596724336   -0.2421080481    2.2402604360
13   
C5H5N+CH->C6H6N atoms 1-13 frame 165 charge -0.000 sz -1.000 sz^2 4.319
C        1.6394279944    0.2093643523   -0.1719398449
C        1.1583518869   -0.9492097138   -0.7020989953
C       -0.2180736007   -1.0796515702   -0.4027944614
C       -1.0727516907    0.1974722986    0.0110088465
C       -0.2762019158    1.4139604262   -0.5398266589
N        0.9292925972    1.3702453622   -0.1778379141
H        2.6035394061    0.2453587789    0.3016532464
H        1.8459767415   -1.7453388625   -0.9451855386
H       -0.4920978261   -1.9409092997    0.1643874933
H       -2.0379486121    0.2582867461   -0.5043552788
H       -0.7232685563    2.3763723768   -0.7783095463
C       -1.2475224769   -0.0750007009    1.4888149166
H       -2.1087239475   -0.2809501941    2.2564837356
13   
C5H5N+CH->C6H6N atoms 1-13 frame 167 charge +0.000 sz -1.000 sz^2 4.232
C        1.6197107927    0.2149153685   -0.1577468836
C        1.1304986830   -0.9295259620   -0.7012233265
C       -0.2553545424   -1.0321125669   -0.4162980443
C       -1.0209024738    0.1780113452    0.0104038725
C       -0.2651963818    1.4135353890   -0.5575209281
N        0.9231663863    1.3838956579   -0.1709213955
H        2.5731575284    0.2334939318    0.3339595723
H        1.8087783602   -1.7351248447   -0.9348935829
H       -0.5455762710   -1.8847247957    0.1496256536
H       -1.9815496431    0.2048750520   -0.5134974895
H       -0.7309495083    2.3624982286   -0.8113604952
C       -1.1980115052   -0.0899413862    1.4967647268
H       -2.0577714249   -0.3197954174    2.2727083204
13   
C5H5N+CH->C6H6N atoms 1-13 frame 169 charge -0.000 sz -1.000 sz^2 4.154
C        1.5999920327    0.2204668235   -0.1435528005
C        1.1026432777   -0.9098406545   -0.7003475884
C       -0.2926384307   -0.9845698064   -0.4298026945
C       -0.9690491591    0.1585488536    0.0097988506
C       -0.2541899779    1.4131103181   -0.5752165958
N        0.9170396913    1.3975470324   -0.1640043302
H        2.5427732495    0.2216281469    0.3662684516
H        1.7715770388   -1.7249100195   -0.9246008138
H       -0.5990589426   -1.8285358512    0.1348626472
H       -1.9251462166    0.1514591365   -0.5226404228
H       -0.7386310673    2.3486229838   -0.8444140562
C       -1.1484966205   -0.1048832524    1.5047151652
H       -2.0068148752   -0.3586437108    2.2889341876
13   
C5H5N+CH->C6H6N atoms 1-13 frame 171 charge +0.000 sz -1.000 sz^2 4.111
C        1.5751114242    0.2231483193   -0.1273786066
C        1.0779766310   -0.8927021033   -0.7027895634
C       -0.3274879371   -0.9477507034   -0.4572856849
C       -0.9173808045    0.1434404701    0.0137099357
C       -0.2444161875    1.4143581738   -0.5949747074
N        0.9061349437    1.4094795447   -0.1555268342
H        2.5034886624    0.2065234221    0.4062828949
H        1.7426617588   -1.7130738580   -0.9129391814
H       -0.6472712842   -1.7848341432    0.1030601180
H       -1.8689194352    0.1020329156   -0.5271284929