13   
From optimize.out: Frame 1 / 1, Energy=    -286.8549868008
C        1.6972674499    0.2878043459   -0.2177946769
C        1.0901877441   -0.9150443011   -0.1130997488
C       -0.3619637773   -1.0474732349    0.0889831806
C       -1.1404209314    0.3810042155   -0.0222865165
C       -0.2577572752    1.5000476524   -0.4006826261
N        1.0305620919    1.4987760097   -0.4081843795
H        2.7791612696    0.3569904953   -0.2962301170
H        1.6743188469   -1.8289541903   -0.1884936329
H       -0.8372409141   -1.9446421130   -0.3118803428
H       -2.1404458750    0.4184069429   -0.4587273145
H       -0.7545360329    2.4046352209   -0.7599226703
C       -0.9922145815   -0.3754667208    1.2230969943
H       -1.7869180147   -0.7360843224    1.8652218504
13   
From optimize.out: Frame 37 / 38, Energy=    -286.8549868008
C        1.6972674499    0.2878043459   -0.2177946769
C        1.0901877441   -0.9150443011   -0.1130997488
C       -0.3619637773   -1.0474732349    0.0889831806
C       -1.1404209314    0.3810042155   -0.0222865165
C       -0.2577572752    1.5000476524   -0.4006826261
N        1.0305620919    1.4987760097   -0.4081843795
H        2.7791612696    0.3569904953   -0.2962301170
H        1.6743188469   -1.8289541903   -0.1884936329
H       -0.8372409141   -1.9446421130   -0.3118803428
H       -2.1404458750    0.4184069429   -0.4587273145
H       -0.7545360329    2.4046352209   -0.7599226703
C       -0.9922145815   -0.3754667208    1.2230969943
H       -1.7869180147   -0.7360843224    1.8652218504
13   
From optimize.out: Frame 36 / 38, Energy=    -286.8549864661
C        1.6979414645    0.2823227004   -0.2106805983
C        1.0937516970   -0.9177944837   -0.1155969976
C       -0.3629184039   -1.0432340151    0.0922887953
C       -1.1463165813    0.3786221441   -0.0311249004
C       -0.2603335760    1.4990602207   -0.3969937822
N        1.0258738808    1.5012621713   -0.3850661982
H        2.7766783330    0.3610725879   -0.3139688881
H        1.6672733920   -1.8369052035   -0.2056052841
H       -0.8376965026   -1.9492181239   -0.2880832088
H       -2.1267145264    0.3940080239   -0.5114002243
H       -0.7538380016    2.4143822795   -0.7324568599
C       -0.9997412585   -0.3629501120    1.2181347042
H       -1.7739599171   -0.7206281894    1.8805534423
13   
From optimize.out: Frame 34 / 38, Energy=    -286.8549818804
C        1.7013270014    0.2780425895   -0.2552398427
C        1.1005517242   -0.9165732820   -0.1065879149
C       -0.3591141947   -1.0332064095    0.1063166912
C       -1.1455306633    0.3565697586   -0.0522018953
C       -0.2585868958    1.4998466973   -0.3788424383
N        1.0271147895    1.5042673292   -0.3804568260
H        2.7780624512    0.3518519943   -0.3813058307
H        1.6768591177   -1.8357416464   -0.1737756502
H       -0.8280900340   -1.9480317183   -0.2646468119
H       -2.0991381326    0.3504042603   -0.5837196167
H       -0.7516827380    2.4408243601   -0.6362085784
C       -1.0319836788   -0.3491595168    1.2233902423
H       -1.8097887468   -0.6990944163    1.8832784718
13   
From optimize.out: Frame 33 / 38, Energy=    -286.8549673691
C        1.7033690322    0.2766532768   -0.2970947177
C        1.1036951937   -0.9127020514   -0.0902415240
C       -0.3581308687   -1.0190629602    0.1148477773
C       -1.1388403629    0.3331386718   -0.0839388464
C       -0.2520257817    1.5045916139   -0.3428204188
N        1.0327521297    1.5058147173   -0.3867511344
H        2.7769088234    0.3391660517   -0.4536304143
H        1.6857284329   -1.8311981170   -0.1197058759
H       -0.8191927942   -1.9401931290   -0.2521895743
H       -2.0818873887    0.3160528386   -0.6318450921
H       -0.7559305636    2.4533815999   -0.5473731851
C       -1.0542627415   -0.3497539232    1.2109239375
H       -1.8421831105   -0.6758885893    1.8798190681
13   
From optimize.out: Frame 32 / 38, Energy=    -286.8549273700
C        1.7060331979    0.2714580618   -0.3235497340
C        1.1125280290   -0.9072974081   -0.0752258403
C       -0.3546159120   -1.0199018777    0.1187341544
C       -1.1450528768    0.3156684051   -0.1172531783
C       -0.2528515231    1.4935060022   -0.3348676663
N        1.0284057499    1.4967235231   -0.3922997186
H        2.7780640904    0.3364439017   -0.4877095067
H        1.6918039946   -1.8261262332   -0.0990724945
H       -0.7995507359   -1.9566449018   -0.2252763478
H       -2.0835377668    0.3466499299   -0.6700470617
H       -0.7577855734    2.4532296882   -0.4746521469
C       -1.0745949077   -0.3290507406    1.2068086130
H       -1.8488457659   -0.6746583505    1.8744109279
13   
From optimize.out: Frame 30 / 38, Energy=    -286.8545123250
C        1.7068794130    0.2714310795   -0.3082607778
C        1.1003590179   -0.9067518399   -0.0690322923
C       -0.3692289437   -1.0030569667    0.1174683431
C       -1.1349530086    0.2819623594   -0.1561696773
C       -0.2527786667    1.4836895184   -0.3391572721
N        1.0256696115    1.4928949780   -0.4271606734
H        2.7813815481    0.3409436852   -0.4524708811
H        1.6711204630   -1.8311690456   -0.1102654405
H       -0.8156797034   -1.9424778198   -0.2071978761
H       -2.0833827170    0.3404845911   -0.6984851534
H       -0.7643077586    2.4460661859   -0.4254355866
C       -1.0811561083   -0.2702155643    1.1905961817
H       -1.7839231472   -0.7038011613    1.8855711058
13   
From optimize.out: Frame 29 / 38, Energy=    -286.8541598187
C        1.7114498177    0.2712487094   -0.3343042210
C        1.1014842411   -0.9103672971   -0.0791005915
C       -0.3580256535   -1.0045829763    0.1475063148
C       -1.1579549327    0.2993625138   -0.1621567788
C       -0.2435171953    1.4959138806   -0.3200415391
N        1.0328856178    1.4978116027   -0.4187715603
H        2.7828501610    0.3423644588   -0.4979573519
H        1.6702188516   -1.8367256616   -0.1056175347
H       -0.7889648225   -1.9702132875   -0.1184479951
H       -2.0795821949    0.3784007898   -0.7449989394
H       -0.7487535310    2.4621124826   -0.4081134811
C       -1.1308291299   -0.2411451054    1.1881212697
H       -1.7912612292   -0.7841801097    1.8538824083
13   
From optimize.out: Frame 28 / 38, Energy=    -286.8536784279
C        1.7215104431    0.2606607876   -0.3514929199
C        1.1224922210   -0.8937859264   -0.0751329935
C       -0.3452744488   -0.9940821812    0.1461834895
C       -1.1540108484    0.2999053825   -0.1718962794
C       -0.2414450957    1.4902827001   -0.3268575523
N        1.0310803319    1.4855858348   -0.4675430173
H        2.7937054744    0.3297133504   -0.5102855195
H        1.7041197192   -1.8133909455   -0.0989866836
H       -0.8070896234   -1.9605902343   -0.0183201831
H       -2.0919553305    0.4176800111   -0.7272970517
H       -0.7422810011    2.4595021379   -0.3547135036
C       -1.1727591501   -0.2454386050    1.1701649013
H       -1.8180926916   -0.8360423122    1.7861773131
13   
From optimize.out: Frame 26 / 38, Energy=    -286.8527398702
C        1.7208512258    0.2633755608   -0.3278996370
C        1.1020025503   -0.8871144947   -0.0686160529
C       -0.3667883198   -0.9634870244    0.1247754281
C       -1.1593103494    0.3029771106   -0.1687469241
C       -0.2428293612    1.4897360099   -0.3553688096
N        1.0319299069    1.4827491233   -0.4857416915
H        2.7967711349    0.3237595005   -0.4633912171
H        1.6741452872   -1.8130768241   -0.0799516098
H       -0.8413685080   -1.9272249454   -0.0181986006
H       -2.1019185201    0.4146783828   -0.7192225871
H       -0.7387238865    2.4611941060   -0.3896074787
C       -1.1574711577   -0.2309790940    1.1777582908
H       -1.7172900025   -0.9165874115    1.7742108897
13   
From optimize.out: Frame 25 / 38, Energy=    -286.8519680798
C        1.7172054001    0.2626459201   -0.3202500238
C        1.0953976964   -0.8894569101   -0.0778983806
C       -0.3672557798   -0.9515984971    0.0520323086
C       -1.1383147701    0.3105507884   -0.1310793573
C       -0.2430366539    1.4961195253   -0.3735932133
N        1.0316916093    1.4777888936   -0.5131470557
H        2.7962746513    0.3228090548   -0.4263704922
H        1.6710468325   -1.8132352127   -0.0595216023
H       -0.8731079629   -1.9057179365   -0.0193222004
H       -2.0907280008    0.3929214136   -0.6729802112
H       -0.7366492609    2.4666329060   -0.4331489637
C       -1.1789059808   -0.1859615529    1.2391325863
H       -1.6836177806   -0.9834983924    1.7361466056
13   
From optimize.out: Frame 24 / 38, Energy=    -286.8511441466
C        1.7104625662    0.2663784428   -0.3049223709
C        1.0791961302   -0.8954071995   -0.0959384075
C       -0.3703623826   -0.9356972254   -0.0090980804
C       -1.1121944691    0.3119433550   -0.0968830204
C       -0.2426917915    1.5037259727   -0.3918100893
N        1.0340728925    1.4787143037   -0.5217354184
H        2.7921712184    0.3253611879   -0.3778772577
H        1.6525044405   -1.8196836816   -0.0562739649
H       -0.9057096250   -1.8762091497   -0.0209289847
H       -2.0703161444    0.3615680702   -0.6344364166
H       -0.7416379426    2.4679164394   -0.4934019978
C       -1.1899175040   -0.1508650641    1.2983000318
H       -1.6355773886   -1.0377454515    1.7050059768
13   
From optimize.out: Frame 22 / 38, Energy=    -286.8450721206
C        1.6990806213    0.2666721699   -0.2964852553
C        1.0577756778   -0.8924542370   -0.0941872510
C       -0.3855233238   -0.9106148143   -0.0076853027
C       -1.0987972781    0.3206537675   -0.0958046422
C       -0.2415842643    1.5203847051   -0.4060654897
N        1.0355283122    1.4849445407   -0.5278568821
H        2.7816956610    0.3175915712   -0.3561581046
H        1.6241118801   -1.8196542243   -0.0324206814
H       -0.9480897763   -1.8325244234    0.0422782609
H       -2.0593970789    0.3549667910   -0.6296302744
H       -0.7444005385    2.4807503554   -0.5226002410
C       -1.1716526998   -0.1718854542    1.2948525653
H       -1.5487471927   -1.1188307475    1.6317632982
13   
From optimize.out: Frame 21 / 38, Energy=    -286.8396047926
C        1.6954666572    0.2685935454   -0.2890425725
C        1.0488418537   -0.8958065106   -0.1046792824
C       -0.3861279753   -0.9033075546   -0.0272642439
C       -1.0908118850    0.3218848898   -0.0852633281
C       -0.2414150761    1.5253055031   -0.4123298541
N        1.0369114374    1.4869776867   -0.5260151616
H        2.7786028062    0.3181234075   -0.3338648035
H        1.6127421950   -1.8238373644   -0.0338025582
H       -0.9634522836   -1.8157841050    0.0537753783
H       -2.0501343015    0.3423143276   -0.6221450260
H       -0.7474346759    2.4812450659   -0.5474852984
C       -1.1782717234   -0.1636771408    1.3099319091
H       -1.5149170289   -1.1420317506    1.6181848413
13   
From optimize.out: Frame 20 / 38, Energy=    -286.8346790211
C        1.7034905181    0.2729534296   -0.2830897278
C        1.0586152330   -0.9086051559   -0.1335137997
C       -0.3649247005   -0.9226306520   -0.0782925356
C       -1.0909343335    0.3119106972   -0.0605448428
C       -0.2426516874    1.5126407752   -0.4066222170
N        1.0381862527    1.4827228396   -0.5122431665
H        2.7865705607    0.3310923058   -0.3107113261
H        1.6268758228   -1.8343317291   -0.0729912201
H       -0.9383375261   -1.8394113304   -0.0121985278
H       -2.0433529400    0.3205961075   -0.6106459975
H       -0.7508756310    2.4632534390   -0.5659084317
C       -1.2221711733   -0.1116790001    1.3527677295
H       -1.5604903956   -1.0785117264    1.6939940632
13   
From optimize.out: Frame 18 / 38, Energy=    -286.8115270321
C        1.7115143790    0.2773133137   -0.2771368831
C        1.0683886124   -0.9214038012   -0.1623483170
C       -0.3437214258   -0.9419537494   -0.1293208274
C       -1.0910567820    0.3019365045   -0.0358263576
C       -0.2438882986    1.4999760473   -0.4009145799
N        1.0394610680    1.4784679925   -0.4984711713
H        2.7945383152    0.3440612040   -0.2875578487
H        1.6410094505   -1.8448260938   -0.1121798820
H       -0.9132227686   -1.8630385557   -0.0781724340
H       -2.0365715784    0.2988778875   -0.5991469689
H       -0.7543165861    2.4452618121   -0.5843315649
C       -1.2660706232   -0.0596808594    1.3956035499
H       -1.6060637623   -1.0149917022    1.7698032851
13   
From optimize.out: Frame 17 / 38, Energy=    -286.7934016227
C        1.7195677444    0.2816868262   -0.2712780553
C        1.0782158307   -0.9341537487   -0.1911891085
C       -0.3224962560   -0.9612988328   -0.1797788683
C       -1.0909879912    0.2918348524   -0.0111864474
C       -0.2450708447    1.4873463360   -0.3951110328
N        1.0407822455    1.4742537088   -0.4846852763
H        2.8025337045    0.3569837971   -0.2647811685
H        1.6552781576   -1.8552148325   -0.1516122937
H       -0.8880423504   -1.8866923702   -0.1436858404
H       -2.0296633160    0.2771341680   -0.5876270045
H       -0.7578180207    2.4272696559   -0.6024334266
C       -1.3099148777   -0.0078683062    1.4381287685
H       -1.6523840260   -0.9512812540    1.8452397537
13   
From optimize.out: Frame 16 / 38, Energy=    -286.7926216580
C        1.7297274257    0.2870332616   -0.2721310468
C        1.0918865897   -0.9434271868   -0.2204778116
C       -0.2997080103   -0.9822134840   -0.1895269666
C       -1.0772667134    0.2726339257    0.0078440338
C       -0.2423937001    1.4772164445   -0.3824605148
N        1.0454132016    1.4729352297   -0.4699070785
H        2.8125019280    0.3666006835   -0.2689038669
H        1.6791901165   -1.8580629813   -0.2084458900
H       -0.8581744456   -1.9122443718   -0.1763243863
H       -2.0136956596    0.2535700531   -0.5746124339
H       -0.7656370540    2.4092397053   -0.5975998546
C       -1.3498187633    0.0306952383    1.4584802761
H       -1.7520249151   -0.8739765178    1.8940655401
13   
From optimize.out: Frame 14 / 38, Energy=    -286.7875546129
C        1.7398871070    0.2923796970   -0.2729840384
C        1.1055573487   -0.9527006249   -0.2497665148
C       -0.2769197646   -1.0031281353   -0.1992750649
C       -1.0635454356    0.2534329990    0.0268745149
C       -0.2397165555    1.4670865530   -0.3698099967
N        1.0500441577    1.4716167506   -0.4551288806
H        2.8224701515    0.3762175699   -0.2730265652
H        1.7031020754   -1.8609111301   -0.2652794863
H       -0.8283065408   -1.9377963735   -0.2089629323
H       -1.9977280032    0.2300059383   -0.5615978633
H       -0.7734560874    2.3912097547   -0.5927662827
C       -1.3897226490    0.0692587828    1.4788317836
H       -1.8516658041   -0.7966717816    1.9428913265
13   
From optimize.out: Frame 13 / 38, Energy=    -286.7861329053
C        1.7495767297    0.2967737614   -0.2777102315
C        1.1202572844   -0.9601842525   -0.2751703882
C       -0.2543301023   -1.0242069210   -0.2035201996
C       -1.0493787374    0.2336706017    0.0459362493
C       -0.2375723320    1.4561348296   -0.3559557012
N        1.0534514853    1.4699799655   -0.4432638157
H        2.8317967636    0.3859451168   -0.2815552970
H        1.7270666255   -1.8611266172   -0.3188130731
H       -0.7979301809   -1.9630596853   -0.2327971394
H       -1.9853518540    0.2106059661   -0.5412679548
H       -0.7818020278    2.3731236211   -0.5822748375
C       -1.4108130807    0.0928924203    1.4968786867
H       -1.9649705735   -0.7105488063    1.9695137019
13   
From optimize.out: Frame 12 / 38, Energy=    -286.7848872124
C        1.7582383443    0.3006675505   -0.2822072314
C        1.1345014123   -0.9669659151   -0.2989105138
C       -0.2328055772   -1.0455705260   -0.2072576176
C       -1.0351645024    0.2126624835    0.0642965493
C       -0.2363423960    1.4441318245   -0.3423629540
N        1.0557617025    1.4680124928   -0.4314927437
H        2.8400292540    0.3956988784   -0.2875955663
H        1.7501717477   -1.8600360777   -0.3712960485
H       -0.7681433141   -1.9882804507   -0.2572628262
H       -1.9759777997    0.1936364211   -0.5161978142
H       -0.7909945216    2.3538672036   -0.5719898002
C       -1.4210859835    0.1089889168    1.5141409149
H       -2.0781883663   -0.6168128017    1.9881356517
13   
From optimize.out: Frame 10 / 38, Energy=    -286.7825549808
C        1.7639514516    0.3039024048   -0.2817812304
C        1.1461111228   -0.9733092607   -0.3212286880
C       -0.2146453614   -1.0677146909   -0.2151907370
C       -1.0212682428    0.1880726943    0.0802675763
C       -0.2376116299    1.4294793573   -0.3309394318
N        1.0556993912    1.4652757308   -0.4169135746
H        2.8452751526    0.4054220201   -0.2805537458
H        1.7703340968   -1.8573822823   -0.4237891781
H       -0.7408814727   -2.0136678884   -0.2932902773
H       -1.9728350516    0.1803642030   -0.4830519394
H       -0.8024651503    2.3307406465   -0.5684649536
C       -1.4152021206    0.1157814419    1.5312390630
H       -2.1764621859   -0.5069643764    2.0036971167
13   
From optimize.out: Frame 9 / 38, Energy=    -286.7806565999
C        1.7632896939    0.3056337846   -0.2758870762
C        1.1518494856   -0.9800979896   -0.3375096561
C       -0.2039865797   -1.0914421157   -0.2364422298
C       -1.0149765633    0.1694977178    0.0861869848
C       -0.2419940479    1.4188808005   -0.3242375480
N        1.0522610191    1.4631129985   -0.4018406746
H        2.8437141500    0.4130752765   -0.2515286345
H        1.7848678476   -1.8542102936   -0.4653387835
H       -0.7188983047   -2.0406627283   -0.3410328273
H       -1.9836536360    0.1744760725   -0.4468682324
H       -0.8146148328    2.3111151911   -0.5755490298
C       -1.3782129716    0.0938408116    1.5472059639
H       -2.2396452601   -0.3832195261    2.0228417435
13   
From optimize.out: Frame 8 / 38, Energy=    -286.7760530325
C        1.7539857345    0.3048653294   -0.2492433067
C        1.1469674259   -0.9846164540   -0.3465139523
C       -0.2086738082   -1.1075707179   -0.2736188586
C       -1.0150675067    0.1532503043    0.0715349360
C       -0.2524387990    1.4078298606   -0.3391164378
N        1.0439730810    1.4601338465   -0.3843501015
H        2.8315948124    0.4160466137   -0.1742940766
H        1.7848689086   -1.8511465577   -0.4969679960
H       -0.7182260431   -2.0576610988   -0.3924025175
H       -2.0102915664    0.2030386811   -0.4051714643
H       -0.8308886261    2.2888861829   -0.6143759064
C       -1.3151142127    0.0650630394    1.5450728466
H       -2.2106894001   -0.2981190294    2.0594468351
13   
From optimize.out: Frame 6 / 38, Energy=    -286.7610579461
C        1.7623221832    0.3030826181   -0.2409302801
C        1.1590662150   -0.9827657405   -0.3866167780
C       -0.1916501628   -1.1016097973   -0.2748983616
C       -1.0179191418    0.1431704940    0.0948680072
C       -0.2558984006    1.3907163477   -0.3321076160
N        1.0437521852    1.4551006778   -0.3501455158
H        2.8367205204    0.4143794588   -0.1340046706
H        1.7832494056   -1.8446288995   -0.6026339598
H       -0.7052678455   -2.0529403624   -0.3632552870
H       -1.9945845940    0.1460303815   -0.4168818693
H       -0.8292638062    2.2685362528   -0.6265405278
C       -1.3411430879    0.0850710661    1.5585896837
H       -2.2493834707   -0.2241424973    2.0745571751
13   
From optimize.out: Frame 5 / 38, Energy=    -286.7416072366
C        1.7573627664    0.3015401228   -0.2204549252
C        1.1554224779   -0.9787622261   -0.4117320130
C       -0.1941033856   -1.0959736594   -0.2973817515
C       -1.0219914887    0.1394468288    0.0980331714
C       -0.2611797831    1.3807610703   -0.3434362233
N        1.0395930682    1.4546968841   -0.3210669406
H        2.8260445880    0.4070054439   -0.0685305041
H        1.7712100163   -1.8383680014   -0.6640984330
H       -0.7030291526   -2.0522511866   -0.3615291859
H       -1.9986839126    0.1230527887   -0.4131167890
H       -0.8284883142    2.2542704738   -0.6608170533
C       -1.3191708792    0.0820958267    1.5617123010
H       -2.2229860007   -0.1775143658    2.1024183467
13   
From optimize.out: Frame 4 / 38, Energy=    -286.7206759512
C        1.7441014680    0.2999671344   -0.1882599227
C        1.1394671449   -0.9706628109   -0.4270458668
C       -0.2119020591   -1.0888276632   -0.3310228997
C       -1.0272437656    0.1388113865    0.0825818962
C       -0.2664724845    1.3742537919   -0.3707219901
N        1.0329078912    1.4571834515   -0.2905927653
H        2.8057398936    0.3942223170    0.0150151198
H        1.7492712450   -1.8281611521   -0.7008396691
H       -0.7104748725   -2.0524296773   -0.3667101634
H       -2.0180049021    0.1265591472   -0.4015635920
H       -0.8287983888    2.2428650596   -0.7104440022
C       -1.2603848212    0.0600138778    1.5524478600
H       -2.1482063486   -0.1537948623    2.1371559952
13   
From optimize.out: Frame 2 / 38, Energy=    -286.6493259635
C        1.7440418600    0.2964482591   -0.1606062256
C        1.1324934923   -0.9566880880   -0.4578973767
C       -0.2200591742   -1.0788576400   -0.3373871132
C       -1.0379926100    0.1352102705    0.0653503154
C       -0.2666258315    1.3605712425   -0.3947858786
N        1.0294073260    1.4537149163   -0.2437866602
H        2.8005036875    0.3797724179    0.0765553661
H        1.7305937238   -1.8064929859   -0.7828629138
H       -0.7122997990   -2.0464682664   -0.2907577781
H       -2.0305912799    0.1195566729   -0.4178923707
H       -0.8262658726    2.2319567208   -0.7326089317
C       -1.2332129677    0.0457252730    1.5288345445
H       -2.1099925547   -0.1344487927    2.1478450225
13   
From optimize.out: Frame 1 / 38, Energy=    -286.6166929194
C        1.7406269348    0.2881343499   -0.1716664718
C        1.1399528855   -0.9634551487   -0.4876334224
C       -0.2165464633   -1.1095602212   -0.3650355289
C       -1.0726165655    0.1562159073    0.0390863420
C       -0.2763751189    1.3661265534   -0.4097440269
N        1.0198871452    1.4405380917   -0.2404587665
H        2.7863847854    0.3729747100    0.1158216084
H        1.7541002826   -1.8112875136   -0.7890171581
H       -0.6810678888   -2.0781235376   -0.1800071643
H       -2.0734302339    0.1747834903   -0.4301900354
H       -0.8166997734    2.2679708203   -0.6970292742
C       -1.2249909648    0.0259452903    1.4889833569
H       -2.0792250250   -0.1302627920    2.1268905415
13   
C5H5N+CH->C6H6N atoms 1-13 frame 155 charge -0.000 sz -1.000 sz^2 4.018
C        1.7327737750    0.2848935820   -0.1482681007
C        1.1215451389   -0.9408247062   -0.5347276438
C       -0.2354800271   -1.1109789816   -0.3746839394
C       -1.0752557304    0.1495069342    0.0285477262
C       -0.2716050718    1.3453860273   -0.4322767780
N        1.0155267212    1.4342364090   -0.1998824412
H        2.7710021787    0.3546674060    0.1773849835
H        1.7375458871   -1.7794936891   -0.8584428669
H       -0.6711220079   -2.0700422887   -0.0814324171
H       -2.0800716251    0.1672093090   -0.4354444284
H       -0.8076646607    2.2550396083   -0.7041075865
C       -1.2023476474    0.0206726029    1.4625053216
H       -2.0348469306   -0.1102722131    2.1008281706
13   
C5H5N+CH->C6H6N atoms 1-13 frame 156 charge -0.000 sz -1.000 sz^2 4.105
C        1.6961790297    0.2740367362   -0.1343891877
C        1.1069416309   -0.9412218819   -0.5658193332
C       -0.2589879370   -1.1519375782   -0.4321047940
C       -1.0530690641    0.1708155105    0.0453829096
C       -0.2731136000    1.3699694737   -0.4524773427
N        0.9996526991    1.4361575246   -0.1821847889
H        2.7193604013    0.3300080962    0.2320328830
H        1.7530336871   -1.7620892106   -0.8671922511
H       -0.6498090008   -2.1171592873   -0.1095220698
H       -2.0509429564    0.1522209765   -0.4289644257
H       -0.8024148140    2.2798446485   -0.7372405132
C       -1.1791319057    0.0515065361    1.4858163971
H       -2.0076981700   -0.0921515444    2.1466625165
13   
C5H5N+CH->C6H6N atoms 1-13 frame 157 charge -0.000 sz -1.000 sz^2 4.183
C        1.6572430649    0.2625328623   -0.1214388737
C        1.0927607854   -0.9436353147   -0.5955229613
C       -0.2827757826   -1.1962678623   -0.4935252598
C       -1.0289801577    0.1945429220    0.0643988773
C       -0.2751995962    1.3983868389   -0.4724541065
N        0.9828112314    1.4387245529   -0.1665246322
H        2.6647465583    0.3048762525    0.2860178574
H        1.7713234433   -1.7460223053   -0.8706894141
H       -0.6274718280   -2.1689783382   -0.1479609718
H       -2.0190313122    0.1368915514   -0.4215508692
H       -0.7974735341    2.3079570923   -0.7723310818
C       -1.1559306384    0.0852435495    1.5131589372
H       -1.9820222341   -0.0742518014    2.1984224985
13   
C5H5N+CH->C6H6N atoms 1-13 frame 159 charge +0.000 sz -1.000 sz^2 4.312
C        1.6565782513    0.2459147999   -0.1199640907
C        1.1272961091   -0.9474861507   -0.6341522766
C       -0.2561050961   -1.1804664519   -0.5535966661
C       -1.0475347487    0.1907110939    0.0929389987
C       -0.2824309346    1.3802543983   -0.4839384755
N        0.9703099823    1.4146816531   -0.1666173103
H        2.6447416823    0.2885497341    0.3268363717
H        1.8191477874   -1.7442258208   -0.8879984215
H       -0.6076202782   -2.1383599194   -0.1839834149
H       -2.0336425279    0.1345366357   -0.3999874704
H       -0.7906099931    2.2944285421   -0.7933489552
C       -1.1837081995    0.1020291690    1.5498129246
H       -2.0164220342   -0.0405676833    2.2539987863
13   
C5H5N+CH->C6H6N atoms 1-13 frame 160 charge +0.000 sz -1.000 sz^2 4.363
C        1.6633825915    0.2282986316   -0.1207289192
C        1.1713390790   -0.9516175161   -0.6745235655
C       -0.2195867168   -1.1529294948   -0.6134047845
C       -1.0744118186    0.1815006922    0.1233378928
C       -0.2906664589    1.3530371077   -0.4937654341
N        0.9586557879    1.3854454512   -0.1697843758
H        2.6314912335    0.2739416988    0.3650852660
H        1.8727362221   -1.7452144098   -0.9080030047
H       -0.5882538327   -2.0916526678   -0.2195342520
H       -2.0573333346    0.1347138782   -0.3756625307
H       -0.7833712959    2.2727731656   -0.8116203441
C       -1.2214349967    0.1155064855    1.5882841721
H       -2.0625464598   -0.0038030222    2.3103198798
13   
C5H5N+CH->C6H6N atoms 1-13 frame 161 charge +0.000 sz -1.000 sz^2 4.389
C        1.6681037724    0.2161069898   -0.1286025686
C        1.1983715655   -0.9570110879   -0.6988573900
C       -0.1935036422   -1.1394053922   -0.6223536209
C       -1.0975906250    0.1815451244    0.1286723638
C       -0.2955573950    1.3445628293   -0.5004063427
N        0.9506552891    1.3660209613   -0.1734606584
H        2.6270040214    0.2654444708    0.3736338592
H        1.9051352746   -1.7475321590   -0.9240715825
H       -0.5592507065   -2.0618747895   -0.1984491640
H       -2.0778800046    0.1561634107   -0.3736701465
H       -0.7723185041    2.2737644209   -0.8123413178
C       -1.2526883641    0.1067060710    1.5976798499
H       -2.1004806815   -0.0044908498    2.3322267185
13   
C5H5N+CH->C6H6N atoms 1-13 frame 163 charge +0.000 sz -1.000 sz^2 4.386
C        1.6698286292    0.2117177466   -0.1467012313
C        1.2009369258   -0.9642201614   -0.7001236358
C       -0.1824302481   -1.1460367592   -0.5581487175
C       -1.1154500130    0.1949013000    0.0979552780
C       -0.2956376234    1.3630476699   -0.5024645783
N        0.9479101042    1.3607092039   -0.1778693761
H        2.6351214612    0.2657367574    0.3394628539
H        1.9070564577   -1.7517617131   -0.9344787841
H       -0.5163866054   -2.0564473721   -0.0959014683
H       -2.0939042875    0.2082100639   -0.4037999214
H       -0.7557796875    2.3073295886   -0.7878185512
C       -1.2746306368    0.0658623547    1.5652545155
H       -2.1266344764   -0.0590486792    2.3046336165
13   
C5H5N+CH->C6H6N atoms 1-13 frame 164 charge +0.000 sz -1.000 sz^2 4.359
C        1.6715534859    0.2073285035   -0.1647998941
C        1.2035022860   -0.9714292348   -0.7013898816
C       -0.1713568539   -1.1526681263   -0.4939438142
C       -1.1333094010    0.2082574756    0.0672381923
C       -0.2957178518    1.3815325105   -0.5045228138
N        0.9451649194    1.3553974465   -0.1822780938
H        2.6432389011    0.2660290440    0.3052918486
H        1.9089776407   -1.7559912673   -0.9448859857
H       -0.4735225043   -2.0510199547    0.0066462274
H       -2.1099285703    0.2602567170   -0.4339296963
H       -0.7392408709    2.3408947564   -0.7632957845
C       -1.2965729095    0.0250186383    1.5328291812
H       -2.1527882714   -0.1136065087    2.2770405145
13   
C5H5N+CH->C6H6N atoms 1-13 frame 165 charge -0.000 sz -1.000 sz^2 4.319
C        1.6732783427    0.2029392604   -0.1828985569
C        1.2060676463   -0.9786383083   -0.7026561273
C       -0.1602834597   -1.1592994933   -0.4297389108
C       -1.1511687890    0.2216136513    0.0365211066
C       -0.2957980802    1.4000173511   -0.5065810494
N        0.9424197345    1.3500856891   -0.1866868115
H        2.6513563409    0.2663213305    0.2711208433
H        1.9108988238   -1.7602208215   -0.9552931873
H       -0.4306584032   -2.0455925374    0.1091939231
H       -2.1259528532    0.3123033701   -0.4640594711
H       -0.7227020543    2.3744599242   -0.7387730179
C       -1.3185151823   -0.0158250780    1.5004038468
H       -2.1789420663   -0.1681643381    2.2494474125
13   
C5H5N+CH->C6H6N atoms 1-13 frame 167 charge +0.000 sz -1.000 sz^2 4.232
C        1.6706261868    0.2005810738   -0.1943971259
C        1.2024235372   -0.9803549791   -0.7034845512
C       -0.1590846015   -1.1548717256   -0.3814279721
C       -1.1547918235    0.2282650339    0.0119660867
C       -0.2936157849    1.4146329554   -0.5118293181
N        0.9389859963    1.3486467319   -0.1887818038
H        2.6516121339    0.2641323245    0.2505354970
H        1.9048351069   -1.7615003291   -0.9614703248
H       -0.4074797934   -2.0298090836    0.1877449009
H       -2.1271877403    0.3427991601   -0.4898897145
H       -0.7111151169    2.3983252053   -0.7260135928