13   
From optimize.out: Frame 1 / 3, Energy=    -286.9243426791
C        0.0353810000   -0.1134610000   -0.0000000000
C       -0.1112130000    0.0921290000   -0.0000000000
C       -0.1113480000    0.0954010000    0.0000000000
C       -0.1311800000    0.3455030000    0.0000000000
C        0.0351700000   -0.1117010000    0.0000000000
N       -0.4230950000    0.3868310000   -0.0000000000
H        0.1426020000    0.0034530000   -0.0000000000
H        0.1419430000   -0.0065620000   -0.0000000000
H        0.1419260000   -0.0067140000    0.0000000000
H        0.1343680000   -0.0182640000    0.0000000000
H        0.1426090000    0.0033660000    0.0000000000
C       -0.1316450000    0.3484180000   -0.0000000000
H        0.1344820000   -0.0183990000   -0.0000000000
13   
From optimize.out: Frame 2 / 3, Energy=    -286.9243457448
C        0.0354270000   -0.1133140000   -0.0000000000
C       -0.1112510000    0.0924030000   -0.0000000000
C       -0.1113520000    0.0950370000    0.0000000000
C       -0.1311780000    0.3456980000    0.0000000000
C        0.0352940000   -0.1119410000    0.0000000000
N       -0.4232650000    0.3871670000   -0.0000000000
H        0.1426510000    0.0034360000   -0.0000000000
H        0.1419540000   -0.0065730000   -0.0000000000
H        0.1419160000   -0.0066970000    0.0000000000
H        0.1343480000   -0.0182730000    0.0000000000
H        0.1426410000    0.0033700000    0.0000000000
C       -0.1315630000    0.3480730000   -0.0000000000
H        0.1343780000   -0.0183850000   -0.0000000000
