13   
From optimize.out: Frame 27 / 28, Energy=    -286.7239725375
C        1.4857242514    0.1403985435   -1.0273985024
C        0.3818308775   -1.5373736536    1.3003364506
C       -0.8735670675   -1.1854072571    1.0586365777
C       -1.3831562798    0.0386825458    0.4438302619
C       -0.6664499257    1.0357765302   -0.1158438988
N        0.7426315719    1.1230951540   -0.1453585458
H        1.7994299597   -0.8867779077   -0.9658731112
H        0.8590313472   -2.3840913248    1.7794556900
H       -1.6541406774   -1.8916486756    1.3742144719
H       -2.4631164119    0.1614477774    0.4627803502
H       -1.1821178147    1.9191284392   -0.4938414681
C        1.3845826537    1.3275891906   -1.4932286479
H        1.5693175161    2.1391806379   -2.1777096282
13   
From optimize.out: Frame 26 / 28, Energy=    -286.7239696069
C        1.4853107463    0.1398053785   -1.0274369400
C        0.3827053394   -1.5367125675    1.2983598621
C       -0.8729782285   -1.1851012815    1.0569897380
C       -1.3843780821    0.0386214105    0.4435491318
C       -0.6678252503    1.0356874524   -0.1163150454
N        0.7407466889    1.1224903922   -0.1464126682
H        1.8001518720   -0.8868097740   -0.9631193797
H        0.8591907117   -2.3846842862    1.7764008574
H       -1.6526174861   -1.8897586941    1.3784010841
H       -2.4643434811    0.1605329277    0.4628181965
H       -1.1829762460    1.9198163923   -0.4931652987
C        1.3840919607    1.3270076997   -1.4936236235
H        1.5729214551    2.1391049499   -2.1764459143
13   
From optimize.out: Frame 25 / 28, Energy=    -286.7239491683
C        1.4836376386    0.1360959766   -1.0390020292
C        0.3833688425   -1.5309737444    1.3012680434
C       -0.8733898329   -1.1825477165    1.0620469645
C       -1.3894719299    0.0354009402    0.4402729944
C       -0.6716051712    1.0297655738   -0.1232697204
N        0.7364384425    1.1110787471   -0.1480260528
H        1.7965000944   -0.8917814924   -0.9864699005
H        0.8628406047   -2.3779259590    1.7774907623
H       -1.6512231456   -1.8845194503    1.3944091490
H       -2.4690063145    0.1585767109    0.4644020455
H       -1.1855805791    1.9142658631   -0.5010737763
C        1.3854121210    1.3302652807   -1.4881318994
H        1.5920792294    2.1522992701   -2.1539165804
13   
From optimize.out: Frame 24 / 28, Energy=    -286.7239155719
C        1.4806384876    0.1327526066   -1.0532812724
C        0.3834377057   -1.5257442096    1.3037817024
C       -0.8745112739   -1.1812758169    1.0672761003
C       -1.3936370806    0.0313455237    0.4371538575
C       -0.6732377619    1.0242084095   -0.1276425631
N        0.7355332326    1.0977682682   -0.1461996744
H        1.7862795792   -0.8981191636   -1.0202637603
H        0.8673424805   -2.3664304756    1.7857789894
H       -1.6510916485   -1.8780670355    1.4137680015
H       -2.4735121931    0.1523671266    0.4589379867
H       -1.1854008435    1.9077342065   -0.5101993826
C        1.3875449468    1.3348029069   -1.4816874450
H        1.6106143691    2.1686576531   -2.1274225400
13   
From optimize.out: Frame 23 / 28, Energy=    -286.7238386120
C        1.4763552739    0.1301062918   -1.0794820548
C        0.3833141395   -1.5188317482    1.3031251419
C       -0.8789010744   -1.1776554349    1.0856970444
C       -1.4013653063    0.0269617316    0.4397657563
C       -0.6772277947    1.0086762111   -0.1381856487
N        0.7360056164    1.0722708882   -0.1390303108
H        1.7611960500   -0.9072051689   -1.0921656918
H        0.8780939681   -2.3439749307    1.7986040422
H       -1.6529874187   -1.8669337002    1.4518390859
H       -2.4821737630    0.1460966790    0.4523677504
H       -1.1840586153    1.8833901384   -0.5469870496
C        1.3966277552    1.3462454740   -1.4637701102
H        1.6451211693    2.2008535687   -2.0717779552
13   
From optimize.out: Frame 22 / 28, Energy=    -286.7236841000
C        1.4696181719    0.1298363524   -1.0955987828
C        0.3832007147   -1.5210214026    1.2864624886
C       -0.8830749996   -1.1724404502    1.1053382287
C       -1.4041227824    0.0175155563    0.4341018268
C       -0.6768969481    0.9968379440   -0.1464490679
N        0.7397307950    1.0539276414   -0.1294238564
H        1.7256831566   -0.9135909622   -1.1499099427
H        0.8893830645   -2.3253681651    1.8055306872
H       -1.6547781667   -1.8423236790    1.5084415677
H       -2.4858426541    0.1256595124    0.4255846406
H       -1.1761379588    1.8661223881   -0.5753626469
C        1.4029743082    1.3567101869   -1.4465641045
H        1.6702632988    2.2281350778   -2.0221510383
13   
From optimize.out: Frame 21 / 28, Energy=    -286.7235345873
C        1.4637572742    0.1347031368   -1.0931840628
C        0.3847798665   -1.5232383807    1.2876407267
C       -0.8823822161   -1.1784071000    1.1029622496
C       -1.3997258209    0.0146755962    0.4357437958
C       -0.6798299919    0.9922896444   -0.1482686387
N        0.7361554097    1.0584405356   -0.1381684826
H        1.6937805250   -0.9142601911   -1.1561163786
H        0.8928878148   -2.3203209142    1.8187400249
H       -1.6527992644   -1.8476303758    1.5072315030
H       -2.4807558258    0.1261942814    0.4315086036
H       -1.1836284977    1.8590647166   -0.5770760261
C        1.4084359076    1.3629522695   -1.4543081565
H        1.6993248191    2.2355367814   -2.0167051584
13   
From optimize.out: Frame 20 / 28, Energy=    -286.7232936895
C        1.4603105290    0.1286385967   -1.0629716170
C        0.3937553234   -1.5020161335    1.3212904573
C       -0.8701181053   -1.1816236533    1.0772474598
C       -1.3896272030    0.0303443503    0.4434263508
C       -0.6682463059    1.0148743943   -0.1278854534
N        0.7488485381    1.0816865306   -0.1397143999
H        1.6795487204   -0.9237751482   -1.0935134284
H        0.8901821553   -2.3191712473    1.8330332426
H       -1.6393643363   -1.8987024781    1.3931097071
H       -2.4711753005    0.1407503113    0.4387413357
H       -1.1739770875    1.8910770084   -0.5348311732
C        1.3822688423    1.3331576760   -1.4890839224
H        1.6575942302    2.2047597929   -2.0588485590
13   
From optimize.out: Frame 19 / 28, Energy=    -286.7227997195
C        1.4644177258    0.1459613238   -0.9989867273
C        0.3983699550   -1.5190922072    1.3196705298
C       -0.8550901950   -1.1877922092    1.0445514093
C       -1.3726432728    0.0373269735    0.4364745964
C       -0.6617864467    1.0447207727   -0.1107860648
N        0.7449910570    1.1418919998   -0.1505565835
H        1.6891579525   -0.9071829785   -0.9477633923
H        0.8724350548   -2.3652133794    1.8079746095
H       -1.6276452393   -1.9213814295    1.3171358040
H       -2.4534267773    0.1497365664    0.4594061334
H       -1.1862527806    1.9295147126   -0.4715956235
C        1.3662529007    1.2999991113   -1.5489717676
H        1.6212200659    2.1515107438   -2.1565529233
13   
From optimize.out: Frame 18 / 28, Energy=    -286.7221128343
C        1.4756598670    0.1600703287   -0.9625202523
C        0.3920040233   -1.5236021656    1.3665464830
C       -0.8403085652   -1.1971370544    1.0040765941
C       -1.3537858078    0.0461543987    0.4340288681
C       -0.6486943223    1.0733121959   -0.0852762771
N        0.7507129316    1.1800659465   -0.1653729690
H        1.7184339510   -0.8859362523   -0.8535295946
H        0.8427272644   -2.3968353140    1.8261741850
H       -1.6143545931   -1.9570556497    1.1916802795
H       -2.4326836953    0.1681223749    0.4822486639
H       -1.1832672598    1.9707160838   -0.3983479271
C        1.3362648396    1.2648536964   -1.5975750575
H        1.5572913667    2.0972714110   -2.2421329960
13   
From optimize.out: Frame 17 / 28, Energy=    -286.7212124275
C        1.5265035616    0.2049650917   -0.8909601018
C        0.3849043584   -1.5979534968    1.3056914132
C       -0.8403220721   -1.2006075041    0.9982413663
C       -1.3389235820    0.0521439105    0.4382082512
C       -0.6497601333    1.0870880559   -0.0962851573
N        0.7403759854    1.2578821332   -0.2108843535
H        1.8106642169   -0.8179569751   -0.6934561986
H        0.8109332967   -2.5024361765    1.7209264974
H       -1.6435933911   -1.9079415420    1.2590270728
H       -2.4158338124    0.1803356200    0.5117086866
H       -1.2096530850    1.9713586611   -0.4035744825
C        1.3272425678    1.2331709828   -1.6244814874
H        1.4974620892    2.0399512392   -2.3141615064
13   
From optimize.out: Frame 16 / 28, Energy=    -286.7200108386
C        1.5763800432    0.2658349075   -0.8143054532
C        0.3683432070   -1.6521121035    1.2527366154
C       -0.8504920945   -1.2056597736    0.9928675349
C       -1.3382718452    0.0684314227    0.4651345133
C       -0.6617937426    1.1070538612   -0.0815300286
N        0.7207400281    1.3188546228   -0.2442260373
H        1.9576880325   -0.6948175709   -0.5060487965
H        0.7848969033   -2.5844788806    1.6033037900
H       -1.6678409682   -1.8983412464    1.2466812034
H       -2.4143052951    0.2048168499    0.5477626639
H       -1.2343592544    1.9999858764   -0.3389704875
C        1.3029827713    1.1629229794   -1.6823201913
H        1.4560322147    1.9075090552   -2.4410853266
13   
From optimize.out: Frame 15 / 28, Energy=    -286.7181368177
C        1.6065118394    0.3178566591   -0.7166027641
C        0.3615393487   -1.7011252114    1.1274558315
C       -0.8577435528   -1.2074439481    0.9824855264
C       -1.3372194443    0.0882806314    0.4916893672
C       -0.6804711714    1.1250281159   -0.0783114970
N        0.6957227987    1.3750523362   -0.2899236195
H        2.0706561745   -0.5575844546   -0.2969485516
H        0.7814549858   -2.6483076113    1.4261267523
H       -1.6776608818   -1.8666597208    1.3032342109
H       -2.4104979783    0.2360461632    0.5970870322
H       -1.2705359038    2.0046408283   -0.3421928296
C        1.2795767295    1.0739443364   -1.6967691902
H        1.4386670558    1.7602718758   -2.5073302687
13   
From optimize.out: Frame 14 / 28, Energy=    -286.7158871808
C        1.6107398974    0.3621720354   -0.6194003313
C        0.3580481492   -1.7179777244    0.9828914254
C       -0.8600698048   -1.2011999656    0.9661837413
C       -1.3432400047    0.1090674548    0.5157659693
C       -0.7019927157    1.1492637580   -0.0634957250
N        0.6688945958    1.4146674638   -0.3083536341
H        2.1506406993   -0.4080741498   -0.0978146327
H        0.7944259539   -2.6702163725    1.2400737874
H       -1.6647042212   -1.8474999168    1.3441909879
H       -2.4159272194    0.2539239846    0.6345499486
H       -1.3055349137    2.0177756605   -0.3310136487
C        1.2630136729    0.9548305098   -1.7057732535
H        1.4457059111    1.5832672621   -2.5578046345
13   
From optimize.out: Frame 13 / 28, Energy=    -286.7132737664
C        1.6064003559    0.3814158538   -0.5700405622
C        0.3393479798   -1.7293074376    0.8856181126
C       -0.8663380675   -1.1914486975    0.9812198068
C       -1.3407591790    0.1182225854    0.5296552357
C       -0.7087755040    1.1500804093   -0.0622623764
N        0.6549216794    1.4154920385   -0.3382037607
H        2.2076548521   -0.3022893197    0.0037257859
H        0.7940176324   -2.6803102255    1.1259528027
H       -1.6552886837   -1.8241339495    1.4086985783
H       -2.4157570897    0.2585864276    0.6333751193
H       -1.3150793597    2.0148796743   -0.3280445286
C        1.2498540366    0.8752228977   -1.7137426373
H        1.4498013474    1.5135897434   -2.5559515762
13   
From optimize.out: Frame 12 / 28, Energy=    -286.7108675588
C        1.6046680244    0.4034209926   -0.5367487168
C        0.3042322418   -1.7623676114    0.7924329017
C       -0.8710961470   -1.1885855839    0.9938354060
C       -1.3392645347    0.1201820639    0.5364377746
C       -0.7101555822    1.1511420176   -0.0669435884
N        0.6495832973    1.4199279439   -0.3362426760
H        2.2662847104   -0.2013582268    0.0642585047
H        0.7684571272   -2.7094548488    1.0410605795
H       -1.6356942257   -1.7891809387    1.5028894660
H       -2.4109053234    0.2668365900    0.6623627130
H       -1.3259579561    1.9875549251   -0.3883315617
C        1.2525674883    0.8197724394   -1.7196001134
H        1.4472808798    1.4821102370   -2.5454106892
13   
From optimize.out: Frame 11 / 28, Energy=    -286.7084704950
C        1.5740699358    0.3730807506   -0.5419878781
C        0.3018533148   -1.7468222079    0.7700135469
C       -0.8717551764   -1.1771964513    0.9964473713
C       -1.3446589402    0.1184697626    0.5210348987
C       -0.7006764210    1.1638960422   -0.0310173936
N        0.6586900755    1.3825168265   -0.2853827409
H        2.2637320914   -0.2252338269    0.0414924662
H        0.7911049526   -2.6769515911    1.0431800652
H       -1.6188836048   -1.7726916455    1.5354317810
H       -2.4240141726    0.2456240472    0.5849770939
H       -1.2996656692    2.0007709718   -0.3799014067
C        1.2369022645    0.8039337465   -1.7330155995
H        1.4333013497    1.5106035754   -2.5212722043
13   
From optimize.out: Frame 10 / 28, Energy=    -286.7055746173
C        1.6000796457    0.3750823304   -0.5684840252
C        0.2720602430   -1.7824090652    0.7863492516
C       -0.8906472714   -1.1825123624    0.9947869580
C       -1.3389924549    0.1045168601    0.4832090817
C       -0.6693583604    1.1487050740   -0.0345779845
N        0.6947403890    1.3544353466   -0.2383507766
H        2.3593489792   -0.1822512231   -0.0302229010
H        0.7533308943   -2.7007390225    1.1119916153
H       -1.6372438704   -1.7325256876    1.5806126837
H       -2.4165089629    0.2502998199    0.5305085306
H       -1.2468438728    2.0128667630   -0.3515158829
C        1.1963462864    0.8005620215   -1.7431854240
H        1.3236883553    1.5339691454   -2.5211211267
13   
From optimize.out: Frame 9 / 28, Energy=    -286.7009259594
C        1.6046262973    0.4541810129   -0.5343527784
C        0.2654911187   -1.7867498938    0.7304580151
C       -0.8981480108   -1.1925969923    0.9511794835
C       -1.3596791100    0.0983739478    0.4669484982
C       -0.6814241848    1.1716228050    0.0095860772
N        0.6718092594    1.3743788736   -0.1553402865
H        2.4076336806   -0.0215262771    0.0273191360
H        0.7556124360   -2.6944673408    1.0731835313
H       -1.6304227847   -1.7442905828    1.5547048194
H       -2.4359711759    0.2443586062    0.5262669675
H       -1.2582038192    2.0612648944   -0.2342875912
C        1.2272506369    0.7073615400   -1.7715094136
H        1.3314256565    1.3280894069   -2.6441564584
13   
From optimize.out: Frame 8 / 28, Energy=    -286.6953693747
C        1.6085566289    0.5145452083   -0.5074052657
C        0.2641468786   -1.7826939460    0.6736919709
C       -0.9011600766   -1.1955800827    0.9028241405
C       -1.3802377114    0.0978403857    0.4404598878
C       -0.6904437979    1.1963084093    0.0416427306
N        0.6602160620    1.3940113085   -0.0773477578
H        2.4556136936    0.1157782417    0.0550359573
H        0.7667065564   -2.6734870239    1.0399294931
H       -1.6166675276   -1.7443486819    1.5305436069
H       -2.4554722994    0.2415073650    0.5166814892
H       -1.2639426010    2.1057196202   -0.1327977810
C        1.2394089038    0.6125045356   -1.7686891518
H        1.3132752906    1.1178946601   -2.7145693201
13   
From optimize.out: Frame 7 / 28, Energy=    -286.6892741179
C        1.5858827646    0.5569697044   -0.5269547443
C        0.2548888855   -1.7917482892    0.6461002673
C       -0.9115230419   -1.2078503211    0.8785365295
C       -1.4157711774    0.0751208071    0.4158159347
C       -0.7179501076    1.1908976189    0.0609917168
N        0.6284783645    1.3790605403   -0.0143000610
H        2.4470512266    0.1902121907    0.0407398191
H        0.7793985938   -2.6478514197    1.0592352442
H       -1.6003841225   -1.7346877966    1.5551210420
H       -2.4881402116    0.2182186883    0.5222952583
H       -1.2890338335    2.1146949429   -0.0420171399
C        1.3091695256    0.6032214373   -1.8134396812
H        1.4179331339    1.0537418969   -2.7821241854
13   
From optimize.out: Frame 6 / 28, Energy=    -286.6840094881
C        1.5829721616    0.5755778230   -0.5347038690
C        0.2561630410   -1.7866364763    0.6316958471
C       -0.9169603098   -1.2092764841    0.8426629996
C       -1.4336803888    0.0689513986    0.3716324380
C       -0.7170861789    1.1995096405    0.0842948361
N        0.6326823877    1.3579818573    0.0580844673
H        2.4764464139    0.2363308480    0.0031409243
H        0.7922986637   -2.6096338454    1.0907298782
H       -1.5948670956   -1.7172124010    1.5461763309
H       -2.5062495069    0.2103115086    0.4787878616
H       -1.2763472304    2.1374684746    0.0565318803
C        1.3094907849    0.5695331506   -1.8182808434
H        1.3951372577    0.9670945057   -2.8107527510
13   
From optimize.out: Frame 5 / 28, Energy=    -286.6769574919
C        1.5620293384    0.5732297682   -0.5756226403
C        0.2544889331   -1.7906260480    0.6457684095
C       -0.9283323199   -1.2227655902    0.8191126109
C       -1.4629614927    0.0434573088    0.3201627602
C       -0.7240098518    1.1842685205    0.0924798566
N        0.6275905702    1.3012911914    0.1197011696
H        2.4560657300    0.1917427578   -0.0635073790
H        0.8045324100   -2.5578344121    1.1743921751
H       -1.5857858100   -1.6868791812    1.5726639123
H       -2.5336416472    0.1855651765    0.4442525130
H       -1.2684829481    2.1317446231    0.1520680057
C        1.3418456826    0.6168937432   -1.8599769080
H        1.4566614053    1.0299121421   -2.8414944854
13   
From optimize.out: Frame 4 / 28, Energy=    -286.6668577605
C        1.5355963309    0.5446221746   -0.6372874682
C        0.2674425432   -1.7694615637    0.6900863293
C       -0.9371757412   -1.2341161652    0.7980211215
C       -1.4958081905    0.0168691861    0.2583827479
C       -0.7269705716    1.1670005864    0.1126609464
N        0.6258290576    1.2163791173    0.1734995061
H        2.4224780486    0.0914115907   -0.1691110183
H        0.8198128508   -2.4706638679    1.2928067646
H       -1.5867286476   -1.6617494197    1.5821138882
H       -2.5687755029    0.1525501203    0.3776813304
H       -1.2462071141    2.1164555548    0.2854340895
C        1.3666794869    0.6822452621   -1.9081516650
H        1.5238274499    1.1484574243   -2.8561365725
13   
From optimize.out: Frame 3 / 28, Energy=    -286.6475644791
C        1.4844934336    0.4925106882   -0.7041100026
C        0.2944218020   -1.6952663590    0.6758193450
C       -0.9391945624   -1.2374080486    0.7787136132
C       -1.5866249276   -0.0178484089    0.2159417370
C       -0.7909897629    1.1564482556    0.1148786161
N        0.5748750729    1.1235484374    0.2005200266
H        2.3103639407   -0.0782170458   -0.2442974675
H        0.8892826531   -2.3060842405    1.3223955293
H       -1.5308779680   -1.6391925737    1.6241752699
H       -2.6585920743    0.0867755496    0.3780595254
H       -1.2840092477    2.0894313434    0.4083708905
C        1.4687947844    0.7486226905   -1.9479713269
H        1.7680568562    1.2766797119   -2.8224957560
13   
From optimize.out: Frame 2 / 28, Energy=    -286.6134299727
C        1.5114147194    0.5017634704   -0.8404342083
C        0.2682239411   -1.6989324250    0.7381166591
C       -0.9751764267   -1.2749183361    0.8260479744
C       -1.6949381015   -0.0740574990    0.2193862230
C       -0.8403273153    1.1421553822    0.1174021155
N        0.5784211850    1.0620933773    0.1496360812
H        2.3233172319   -0.1172668901   -0.4190307508
H        0.8616527416   -2.2370606870    1.4221270164
H       -1.5333349222   -1.6428837343    1.7148614807
H       -2.7673569546    0.0126520090    0.4167491240
H       -1.3140095189    2.0618727810    0.4852720173
C        1.5945297374    0.8390697825   -2.0229594012
H        1.9875836830    1.4255127691   -2.8071743313
13   
From optimize.out: Frame 1 / 28, Energy=    -286.5594986578
C        1.4569605089    0.3813147268   -0.8142946160
C        0.3379301491   -1.4948063003    0.5536463614
C       -0.9333549237   -1.2056985672    0.7483426750
C       -1.8427918764   -0.0744836129    0.1951529634
C       -0.9630816474    1.1802766485    0.1241113737
N        0.4857268498    0.9757439498    0.1611487165
H        2.2011878697   -0.2975109245   -0.3659441269
H        1.0269195019   -1.9314943175    1.1890009797
H       -1.3562068222   -1.5944896974    1.7054526451
H       -2.9083873975   -0.0471896129    0.4667903902
H       -1.4039059287    2.0780954884    0.5890476005
C        1.6827290346    0.7268213658   -1.9323358718
H        2.2162746820    1.3034208534   -2.6201190909
13   
C5H5N+CH->C6H6N atoms 1-13 frame 202 charge +0.000 sz -1.000 sz^2 2.555
C        1.4569605089    0.3813147268   -0.8142946160
C        0.3379301491   -1.4948063003    0.5536463614
C       -0.9333549237   -1.2056985672    0.7483426750
C       -1.8427918764   -0.0744836129    0.1951529634
C       -0.9630816474    1.1802766485    0.1241113737
N        0.4857268498    0.9757439498    0.1611487165
H        2.2011878697   -0.2975109245   -0.3659441269
H        1.0269195019   -1.9314943175    1.1890009797
H       -1.3562068222   -1.5944896974    1.7054526451
H       -2.9083873975   -0.0471896129    0.4667903902
H       -1.4039059287    2.0780954884    0.5890476005
C        1.6827290346    0.7268213658   -1.9323358718
H        2.2162746820    1.3034208534   -2.6201190909
13   
C5H5N+CH->C6H6N atoms 1-13 frame 203 charge +0.000 sz -1.000 sz^2 2.583
C        1.4675861706    0.3835983459   -0.8107677997
C        0.3271806412   -1.4870144721    0.5521912732
C       -0.9317994436   -1.2090322478    0.7394716267
C       -1.8633077107   -0.0751088910    0.1917350178
C       -0.9690740544    1.1726824390    0.1247948427
N        0.4746412916    0.9681114644    0.1600390160
H        2.1995271578   -0.3001200919   -0.3567209839
H        1.0368048035   -1.9395723553    1.1759388793
H       -1.3479029891   -1.5814832490    1.7159900637
H       -2.9261690474   -0.0558404343    0.4900963045
H       -1.4008196509    2.0779421629    0.5846436511
C        1.7010805246    0.7367656508   -1.9347791067
H        2.2322523066    1.3090716784   -2.6326327848
13   
C5H5N+CH->C6H6N atoms 1-13 frame 204 charge +0.000 sz -1.000 sz^2 2.601
C        1.4773389855    0.3855541948   -0.8051209785
C        0.3159203018   -1.4791552613    0.5504563862
C       -0.9311379608   -1.2121704014    0.7309273439
C       -1.8831881099   -0.0750794908    0.1888848500
C       -0.9752573832    1.1644347318    0.1261297811
N        0.4630531621    0.9606552040    0.1591930218
H        2.1964312430   -0.3025063803   -0.3458105086
H        1.0490902711   -1.9497845825    1.1638850668
H       -1.3403878767   -1.5693297309    1.7247714738
H       -2.9428412372   -0.0639384934    0.5132408729
H       -1.3964789175    2.0779086284    0.5794526520
C        1.7191770848    0.7479365117   -1.9385576779
H        2.2482804371    1.3154750698   -2.6474522834
13   
C5H5N+CH->C6H6N atoms 1-13 frame 205 charge +0.000 sz -1.000 sz^2 2.604
C        1.4862527940    0.3872433781   -0.7976235435
C        0.3046107863   -1.4713239249    0.5486904786
C       -0.9314339854   -1.2151160292    0.7229890326
C       -1.9023180967   -0.0745480782    0.1867730661
C       -0.9816549085    1.1554661833    0.1281294376
N        0.4510277548    0.9533411931    0.1585996600
H        2.1921045904   -0.3046779141   -0.3332077640
H        1.0626582969   -1.9611464913    1.1519887361
H       -1.3333827475   -1.5580313423    1.7316701672
H       -2.9580121674   -0.0715608962    0.5362369974
H       -1.3909778564    2.0778658034    0.5734539444
C        1.7369836608    0.7601468743   -1.9434168384
H        2.2641418786    1.3223412439   -2.6642833741
13   
C5H5N+CH->C6H6N atoms 1-13 frame 206 charge +0.000 sz -1.000 sz^2 2.600
C        1.4943830742    0.3887540471   -0.7886009152
C        0.2937230565   -1.4636208625    0.5471132193
C       -0.9327417792   -1.2178761941    0.7159065970
C       -1.9205769281   -0.0736649727    0.1855631503
C       -0.9882777494    1.1457134462    0.1308058290
N        0.4386479500    0.9461265263    0.1582447857
H        2.1867962035   -0.3066582115   -0.3189304695
H        1.0763719192   -1.9726526081    1.1394373148
H       -1.3266542781   -1.5476428303    1.7366260242
H       -2.9713132225   -0.0787686329    0.5591000880
H       -1.3844253193    2.0777024656    0.5666237773
C        1.7544532281    0.7732046789   -1.9490826255
H        2.2796138452    1.3293831481   -2.6828067754
13   
C5H5N+CH->C6H6N atoms 1-13 frame 207 charge -0.000 sz -1.000 sz^2 2.592
C        1.5017978274    0.3901940422   -0.7784102121
C        0.2836929950   -1.4561384461    0.5458928036
C       -0.9351116139   -1.2204567194    0.7098815118
C       -1.9378478972   -0.0725639915    0.1853970933
C       -0.9951235345    1.1351308198    0.1341654711
N        0.4260081707    0.9389646111    0.1581083308
H        2.1807808183   -0.3084836743   -0.3030299722
H        1.0892033911   -1.9833820011    1.1255521775
H       -1.3200380471   -1.5382659750    1.7396377230
H       -2.9824314370   -0.0855878318    0.5818371081
H       -1.3769403032    2.0773331310    0.5589419403
C        1.7715315108    0.7869253912   -1.9552865182
H        2.2944781196    1.3363306440   -2.7026874569
13   
C5H5N+CH->C6H6N atoms 1-13 frame 208 charge +0.000 sz -1.000 sz^2 2.569
C        1.5085726672    0.3916826813   -0.7674158481
C        0.2748911541   -1.4489502748    0.5451406066
C       -0.9385883520   -1.2228589571    0.7050572280
C       -1.9540217901   -0.0713521512    0.1863876916
C       -1.0021806067    1.1236957114    0.1382074633
N        0.4132115661    0.9318051888    0.1581670701
H        2.1743356173   -0.3101933165   -0.2855965238
H        1.1003110867   -1.9925587826    1.1098259531
H       -1.3134494861   -1.5300482876    1.7407611905
H       -2.9911293313   -0.0920004836    0.6044438554
H       -1.3686486607    2.0767016764    0.5503834392
C        1.7881652604    0.8011404630   -1.9617799688
H        2.3085308750    1.3429365325   -2.7235821570
13   
C5H5N+CH->C6H6N atoms 1-13 frame 209 charge -0.000 sz -1.000 sz^2 2.533
C        1.5147886096    0.3933403883   -0.7559684972
C        0.2676044769   -1.4421057353    0.5449148357
C       -0.9432022034   -1.2250811664    0.7015180867
C       -1.9689966021   -0.0701054069    0.1886175996
C       -1.0094291386    1.1114091401    0.1429242628
N        0.4003677297    0.9245947748    0.1583957926
H        2.1677279306   -0.3118106639   -0.2667645199
H        1.1090662648   -1.9995812903    1.0919239084
H       -1.3068860210   -1.5231743920    1.7401141747
H       -2.9972597741   -0.0979460865    0.6269061423
H       -1.3596825713    2.0757791697    0.5409075039
C        1.8043084115    0.8157000654   -1.9683433287
H        2.3215928873    1.3489812030   -2.7451459609
13   
C5H5N+CH->C6H6N atoms 1-13 frame 210 charge +0.000 sz -1.000 sz^2 2.508
C        1.5205335086    0.3952797954   -0.7443897929
C        0.2620245916   -1.4356263127    0.5452300260
C       -0.9489587822   -1.2271188002    0.6992914711
C       -1.9826759913   -0.0688701520    0.1921398084
C       -1.0168427527    1.0982950807    0.1483021659
N        0.3875917642    0.9172746179    0.1587708109
H        2.1611959837   -0.3133245972   -0.2467159069
H        1.1150614393   -2.0040265675    1.0716681939
H       -1.3004252474   -1.5178643554    1.7378787145
H       -3.0007738966   -0.1033251689    0.6492031959
H       -1.3501776169    2.0745613080    0.5304459062
C        1.8199300650    0.8304727659   -1.9747859763
H        2.3335169348    1.3542723861   -2.7670386166
13   
C5H5N+CH->C6H6N atoms 1-13 frame 211 charge +0.000 sz -1.000 sz^2 2.496
C        1.5258995818    0.3975984795   -0.7329635941
C        0.2582426219   -1.4295043883    0.5460633481
C       -0.9558290987   -1.2289649823    0.6983502539
C       -1.9949740128   -0.0676715870    0.1969709686
C       -1.0243807373    1.0844062155    0.1543133312
N        0.3749983226    0.9097906607    0.1592631947
H        2.1549424883   -0.3146761822   -0.2256845348
H        1.1181019337   -2.0056496894    1.0490269461
H       -1.2942227152   -1.5143589592    1.7343094671
H       -3.0017266091   -0.1080088590    0.6713036208
H       -1.3402697990    2.0730481686    0.5189256880
C        1.8350188453    0.8453443849   -1.9809493276
H        2.3441991786    1.3586467383   -2.7889293619
13   
C5H5N+CH->C6H6N atoms 1-13 frame 212 charge -0.000 sz -1.000 sz^2 2.495
C        1.5309826956    0.4003740976   -0.7219306993
C        0.2562448528   -1.4237026261    0.5473619078
C       -0.9637494118   -1.2306084241    0.6986167031
C       -2.0058159770   -0.0665145885    0.2030927135
C       -1.0319906668    1.0698236298    0.1609151936
N        0.3626993664    0.9020928524    0.1598408019
H        2.1491255057   -0.3157476881   -0.2039551544
H        1.1182098696   -2.0043845282    1.0240995389
H       -1.2885078564   -1.5129152004    1.7297323637
H       -3.0002749171   -0.1118414014    0.6931665784
H       -1.3300951967    2.0712393083    0.5062646507
C        1.8495859835    0.8602151710   -1.9867009621
H        2.3535857522    1.3619693977   -2.8105036359
13   
C5H5N+CH->C6H6N atoms 1-13 frame 213 charge +0.000 sz -1.000 sz^2 2.513
C        1.5358786950    0.4036649269   -0.7114893624
C        0.2559172113   -1.4181549018    0.5490445872
C       -0.9726230114   -1.2320314864    0.6999667572
C       -2.0151416984   -0.0653838735    0.2104455895
C       -1.0396070529    1.0546612411    0.1680431240
N        0.3508011536    0.8941440040    0.1604633247
H        2.1438556657   -0.3163657005   -0.1818598311
H        1.1156237783   -2.0003538665    0.9971157761
H       -1.2835803585   -1.5137882552    1.7245429175
H       -2.9966799203   -0.1146468780    0.7147399207