13   
From optimize.out: Frame 1 / 2, Energy=    -286.7239725374
C        1.4857242514    0.1403985435   -1.0273985024
C        0.3818308775   -1.5373736536    1.3003364506
C       -0.8735670675   -1.1854072571    1.0586365777
C       -1.3831562798    0.0386825458    0.4438302619
C       -0.6664499257    1.0357765302   -0.1158438988
N        0.7426315719    1.1230951540   -0.1453585458
H        1.7994299597   -0.8867779077   -0.9658731112
H        0.8590313472   -2.3840913248    1.7794556900
H       -1.6541406774   -1.8916486756    1.3742144719
H       -2.4631164119    0.1614477774    0.4627803502
H       -1.1821178147    1.9191284392   -0.4938414681
C        1.3845826537    1.3275891906   -1.4932286479
H        1.5693175161    2.1391806379   -2.1777096282
13   
From optimize.out: Frame 27 / 28, Energy=    -286.7239725375
C        1.4857242514    0.1403985435   -1.0273985024
C        0.3818308775   -1.5373736536    1.3003364506
C       -0.8735670675   -1.1854072571    1.0586365777
C       -1.3831562798    0.0386825458    0.4438302619
C       -0.6664499257    1.0357765302   -0.1158438988
N        0.7426315719    1.1230951540   -0.1453585458
H        1.7994299597   -0.8867779077   -0.9658731112
H        0.8590313472   -2.3840913248    1.7794556900
H       -1.6541406774   -1.8916486756    1.3742144719
H       -2.4631164119    0.1614477774    0.4627803502
H       -1.1821178147    1.9191284392   -0.4938414681
C        1.3845826537    1.3275891906   -1.4932286479
H        1.5693175161    2.1391806379   -2.1777096282
13   
From optimize.out: Frame 26 / 28, Energy=    -286.7239696069
C        1.4787904519    0.1316108274   -1.0645858642
C        0.3833843918   -1.5227617584    1.3034984228
C       -0.8764052976   -1.1797137666    1.0752240024
C       -1.3969715015    0.0294540924    0.4382807876
C       -0.6749593018    1.0175068859   -0.1321914837
N        0.7357370474    1.0867671665   -0.1431063802
H        1.7754570376   -0.9020394122   -1.0512865736
H        0.8719813182   -2.3567418043    1.7913124877
H       -1.6519095977   -1.8732634457    1.4301941547
H       -2.4772493148    0.1496616787    0.4561031920
H       -1.1848217256    1.8972307128   -0.5260717925
C        1.3914638161    1.3397399179   -1.4739568302
H        1.6255026760    2.1825489056   -2.1034141228
13   
From optimize.out: Frame 25 / 28, Energy=    -286.7239491683
C        1.4709485357    0.1298896569   -1.0924162406
C        0.3832231125   -1.5205890153    1.2897528338
C       -0.8822507819   -1.1734702442    1.1014597182
C       -1.4035782684    0.0193808761    0.4352202731
C       -0.6769622798    0.9991756260   -0.1448173049
N        0.7389951904    1.0575498504   -0.1313208263
H        1.7326958259   -0.9123299707   -1.1385072859
H        0.8871538263   -2.3290424107    1.8041628947
H       -1.6544245508   -1.8471833771    1.4972643741
H       -2.4851181646    0.1296952041    0.4308734547
H       -1.1777020371    1.8695322207   -0.5697593671
C        1.4017210654    1.3546437382   -1.4499617445
H        1.6652985262    2.2227478457   -2.0319507793
13   
From optimize.out: Frame 24 / 28, Energy=    -286.7239155719
C        1.4618769275    0.1313946713   -1.0767018837
C        0.3896763614   -1.5116607388    1.3059980914
C       -0.8756916201   -1.1801618672    1.0889337339
C       -1.3942165937    0.0232235705    0.4399349576
C       -0.6735105966    1.0046105897   -0.1371487409
N        0.7430800531    1.0711222183   -0.1390118465
H        1.6860164680   -0.9194510065   -1.1219637965
H        0.8914117620   -2.3196937218    1.8265375854
H       -1.6454699375   -1.8754923881    1.4449731910
H       -2.4755292402    0.1341352172    0.4354543678
H       -1.1783632414    1.8765287885   -0.5540296552
C        1.3941606563    1.3466980466   -1.4732798215
H        1.6765590012    2.2187466201   -2.0396961827
13   
From optimize.out: Frame 23 / 28, Energy=    -286.7238386120
C        1.4618337504    0.1350630148   -1.0392417689
C        0.3954667353   -1.5083490761    1.3206896806
C       -0.8645447578   -1.1839113637    1.0651215920
C       -1.3833284333    0.0329339709    0.4408481784
C       -0.6658505609    1.0259434144   -0.1215438640
N        0.7474179278    1.1040147185   -0.1437354019
H        1.6831124621   -0.9176216693   -1.0394596316
H        0.8836003513   -2.3362467289    1.8237398366
H       -1.6350181165   -1.9071133400    1.3649335362
H       -2.4645929689    0.1440830117    0.4464052156
H       -1.1785297301    1.9053322629   -0.5113792301
C        1.3763290671    1.3208602772   -1.5112943143
H        1.6441042734    2.1850115077   -2.0950838286
13   
From optimize.out: Frame 22 / 28, Energy=    -286.7236841000
C        1.4652683666    0.1470288868   -0.9962274781
C        0.3978882744   -1.5194334548    1.3232174160
C       -0.8539717376   -1.1884992904    1.0414888676
C       -1.3712164158    0.0379949038    0.4362895395
C       -0.6607958263    1.0468841532   -0.1088558574
N        0.7454240048    1.1447804454   -0.1516776707
H        1.6913731316   -0.9055753372   -0.9406331575
H        0.8701872039   -2.3676060647    1.8093516870
H       -1.6266395976   -1.9240807325    1.3076431658
H       -2.4518572444    0.1511277353    0.4611345219
H       -1.1860268801    1.9326322295   -0.4660533098
C        1.3639838431    1.2973398206   -1.5526493533
H        1.6163828775    2.1474067048   -2.1630283708
13   
From optimize.out: Frame 21 / 28, Energy=    -286.7235345873
C        1.4732536082    0.1570504487   -0.9703255072
C        0.3933665822   -1.5226368578    1.3565131918
C       -0.8434724133   -1.1951368913    1.0127397909
C       -1.3578220444    0.0442649837    0.4345523498
C       -0.6514965501    1.0671925108   -0.0907363715
N        0.7494882262    1.1718952258   -0.1622016818
H        1.7121677399   -0.8904838844   -0.8736993206
H        0.8490858958   -2.3900669806    1.8222787625
H       -1.6171993123   -1.9494199684    1.2185326787
H       -2.4371235278    0.1641870913    0.4773594671
H       -1.1839062783    1.9618973756   -0.4140258049
C        1.3426834600    1.2723761926   -1.5871720486
H        1.5709746139    2.1088807540   -2.2238155063
13   
From optimize.out: Frame 20 / 28, Energy=    -286.7232936895
C        1.4949619351    0.1771139715   -0.9353534835
C        0.3893087389   -1.5518285655    1.3434437422
C       -0.8403136929   -1.1984545601    1.0018613349
C       -1.3481435802    0.0484282296    0.4356155100
C       -0.6490989419    1.0785420005   -0.0894556381
N        0.7467886606    1.2096077283   -0.1826507032
H        1.7534478280   -0.8601289099   -0.7927600615
H        0.8306571477   -2.4369251432    1.7862184335
H       -1.6254546769   -1.9384101941    1.2172475086
H       -2.4262868827    0.1727589555    0.4934327324
H       -1.1932842540    1.9709600289   -0.4003321127
C        1.3328396655    1.2528258157   -1.6077896917
H        1.5345780530    2.0755106427   -2.2694775708
13   
From optimize.out: Frame 19 / 28, Energy=    -286.7227997195
C        1.5225891357    0.2015086705   -0.8964694754
C        0.3854509574   -1.5922292318    1.3103766090
C       -0.8403210322   -1.2003403163    0.9986906170
C       -1.3400678159    0.0516827815    0.4378864829
C       -0.6496780772    1.0860274606   -0.0954375902
N        0.7411718208    1.2518911111   -0.2073804590
H        1.8035634634   -0.8231906593   -0.7057801545
H        0.8133810954   -2.4943060286    1.7290294545
H       -1.6413423134   -1.9117228080    1.2538420831
H       -2.4171310749    0.1793953295    0.5094405769
H       -1.2076216560    1.9713091895   -0.4031720931
C        1.3279371871    1.2356102161   -1.6224099773
H        1.5020683098    2.0443642853   -2.3086160741
13   
From optimize.out: Frame 19 / 28, Energy=    -286.7227997195
C        1.5454634065    0.2281038984   -0.8618209124
C        0.3786088690   -1.6185411314    1.2855613897
C       -0.8441880635   -1.2025280535    0.9961985797
C       -1.3386758334    0.0583353798    0.4484438920
C       -0.6543345411    1.0946777767   -0.0906762021
N        0.7329116517    1.2810599699   -0.2235587269
H        1.8665532580   -0.7711472579   -0.6222159035
H        0.8010359270   -2.5336235596    1.6762138751
H       -1.6528107674   -1.9042921243    1.2543339637
H       -2.4152527680    0.1896418161    0.5254141003
H       -1.2190447888    1.9822408955   -0.3790161800
C        1.3180205464    1.2064671897   -1.6464680594
H        1.4817131035    1.9896052008   -2.3624098162
13   
From optimize.out: Frame 18 / 28, Energy=    -286.7221128343
C        1.5675530794    0.2550623821   -0.8278715226
C        0.3712741412   -1.6425273043    1.2621083688
C       -0.8486922398   -1.2047656408    0.9938185767
C       -1.3383871872    0.0655489162    0.4603691984
C       -0.6596640769    1.1035203834   -0.0841413392
N        0.7242151305    1.3080639266   -0.2383253436
H        1.9316682761   -0.7166103484   -0.5392154976
H        0.7895047324   -2.5699592522    1.6241202419
H       -1.6635497176   -1.9000402729    1.2488661318
H       -2.4145758067    0.2004842481    0.5413819581
H       -1.2299868437    1.9949195328   -0.3504038747
C        1.3072761845    1.1753552233   -1.6720841015
H        1.4633643278    1.9309482059   -2.4186227965
13   
From optimize.out: Frame 17 / 28, Energy=    -286.7212124275
C        1.5839004737    0.2788187325   -0.7899203723
C        0.3666450692   -1.6643450176    1.2214684685
C       -0.8523019464   -1.2061050760    0.9902763461
C       -1.3380091822    0.0733854783    0.4717621943
C       -0.6664553401    1.1115399573   -0.0807267328
N        0.7144961143    1.3328807033   -0.2556314474
H        1.9858831344   -0.6605663065   -0.4538606078
H        0.7840378539   -2.6004095451    1.5590831403
H       -1.6702918669   -1.8904340274    1.2607959598
H       -2.4133550477    0.2126112037    0.5600732638
H       -1.2433883869    2.0011476804   -0.3397747342
C        1.2971409851    1.1407152856   -1.6859264381
H        1.4516981395    1.8707609313   -2.4576190401
13   
From optimize.out: Frame 16 / 28, Energy=    -286.7200108386
C        1.5964261086    0.3004439107   -0.7493058602
C        0.3638167398   -1.6847195178    1.1693898822
C       -0.8553163408   -1.2068467483    0.9859605979
C       -1.3375717045    0.0816366937    0.4828009124
C       -0.6742194525    1.1190117638   -0.0793888056
N        0.7040965790    1.3562418076   -0.2746277004
H        2.0328434178   -0.6035191964   -0.3669386969
H        0.7826070663   -2.6269428246    1.4854315447
H       -1.6743739551   -1.8772641779    1.2843047581
H       -2.4117723654    0.2255930708    0.5805771534
H       -1.2584268365    2.0030827203   -0.3411142455
C        1.2874112123    1.1037273152   -1.6919328136
H        1.4444795310    1.8095551829   -2.4851567264
13   
From optimize.out: Frame 15 / 28, Energy=    -286.7181368177
C        1.6068530886    0.3214333808   -0.7087574952
C        0.3612575718   -1.7024853883    1.1157879482
C       -0.8579313060   -1.2069399924    0.9811697992
C       -1.3377053675    0.0899583488    0.4936326048
C       -0.6822081887    1.1269841897   -0.0771157068
N        0.6935574777    1.3782496978   -0.2914111174
H        2.0771117753   -0.5455173848   -0.2808763289
H        0.7825018807   -2.6500758811    1.4111103016
H       -1.6766151417   -1.8651133210    1.3065398579
H       -2.4109361757    0.2374890933    0.6001106876
H       -1.2733606957    2.0057009488   -0.3412905509
C        1.2782399149    1.0643305852   -1.6974959138
H        1.4392351662    1.7459857231   -2.5114040862
13   
From optimize.out: Frame 14 / 28, Energy=    -286.7158871808
C        1.6086049456    0.3397950500   -0.6684825597
C        0.3598110254   -1.7094680722    1.0558890140
C       -0.8588951672   -1.2043528556    0.9744153042
C       -1.3401999314    0.0985711783    0.5036085238
C       -0.6911254429    1.1370260054   -0.0709769278
N        0.6824414582    1.3946638621   -0.2990474248
H        2.1102526287   -0.4835691628   -0.1983670182
H        0.7878762822   -2.6591535751    1.3340209640
H       -1.6712466683   -1.8571746322    1.3235099223
H       -2.4131857319    0.2448966044    0.6156331029
H       -1.2878622141    2.0111432459   -0.3366585600
C        1.2713771644    1.0149768650   -1.7012266647
H        1.4421516513    1.6726454868   -2.5323176762
13   
From optimize.out: Frame 13 / 28, Energy=    -286.7132737664
C        1.6103568026    0.3581567193   -0.6282076243
C        0.3583644789   -1.7164507562    0.9959900798
C       -0.8598590284   -1.2017657188    0.9676608092
C       -1.3426944953    0.1071840077    0.5135844427
C       -0.7000426971    1.1470678212   -0.0648381487
N        0.6713254387    1.4110780265   -0.3066837321
H        2.1433934821   -0.4216209409   -0.1158577075
H        0.7932506837   -2.6682312691    1.2569316264
H       -1.6658781950   -1.8492359433    1.3404799868
H       -2.4154352881    0.2523041156    0.6311555183
H       -1.3023637324    2.0165855430   -0.3320265690
C        1.2645144140    0.9656231447   -1.7049574156
H        1.4450681363    1.5993052505   -2.5532312661
13   
From optimize.out: Frame 12 / 28, Energy=    -286.7108675588
C        1.6083716882    0.3726739254   -0.5924633246
C        0.3478429437   -1.7241606658    0.9298066577
C       -0.8634905711   -1.1958784259    0.9743893428
C       -1.3418861487    0.1140636656    0.5233457305
C       -0.7056942730    1.1497094275   -0.0628226522
N        0.6612691844    1.4151174572   -0.3246436831
H        2.1817549173   -0.3503444090   -0.0424011860
H        0.7942031214   -2.6757248704    1.1777947739
H       -1.6595658990   -1.8347484548    1.3793945844
H       -2.4158343748    0.2564684101    0.6339088114
H       -1.3107435849    2.0161952398   -0.3293933168
C        1.2558320912    0.9113864091   -1.7101223691
H        1.4479409053    1.5452422912   -2.5567933687
13   
From optimize.out: Frame 11 / 28, Energy=    -286.7084704950
C        1.6059433553    0.3872209566   -0.5612579508
C        0.3300842133   -1.7380289325    0.8610352308
C       -0.8675932807   -1.1906933890    0.9845478862
C       -1.3403648819    0.1187395089    0.5314445148
C       -0.7091395779    1.1503604687   -0.0634973114
N        0.6535133785    1.4166622600   -0.3376864134
H        2.2231218008   -0.2756630225    0.0196947219
H        0.7872746002   -2.6879987720    1.1035576665
H       -1.6501195346   -1.8149131115    1.4335467644
H       -2.4144771613    0.2607628756    0.6410222404
H       -1.3179492062    2.0076712227   -0.3439486511
C        1.2505698633    0.8605946960   -1.7152878787
H        1.4491364312    1.5052852391   -2.5531708197
13   
From optimize.out: Frame 10 / 28, Energy=    -286.7055746173
C        1.6037611369    0.4025217474   -0.5369039987
C        0.3041617335   -1.7619068660    0.7917684213
C       -0.8711156797   -1.1882480249    0.9939128213
C       -1.3394244178    0.1201313135    0.5359812535
C       -0.7098746322    1.1515200303   -0.0658787829
N        0.6498532103    1.4188191273   -0.3347352539
H        2.2662090541   -0.2020658684    0.0635837491
H        0.7691283792   -2.7084914946    1.0411233983
H       -1.6351959808   -1.7886922176    1.5038539777
H       -2.4112938526    0.2662078779    0.6600691042
H       -1.3251786871    1.9879466315   -0.3880817029
C        1.2521031915    0.8193030012   -1.7199977309
H        1.4468665448    1.4829547424   -2.5446952560
13   
From optimize.out: Frame 9 / 28, Energy=    -286.7009259594
C        1.5781506473    0.3733947821   -0.5461449077
C        0.2971790245   -1.7524054959    0.7725764858
C       -0.8747191922   -1.1780304745    0.9961868660
C       -1.3437699149    0.1162806659    0.5151003362
C       -0.6957628724    1.1615127031   -0.0315760213
N        0.6643460759    1.3781110711   -0.2780038089
H        2.2787336021   -0.2184902066    0.0302409093
H        0.7851785106   -2.6806836453    1.0539760368
H       -1.6217641809   -1.7663899339    1.5425202965
H       -2.4228366663    0.2463576379    0.5764314201
H       -1.2913783597    2.0026687029   -0.3754479493
C        1.2305393620    0.8034047503   -1.7346111621
H        1.4161039639    1.5142694430   -2.5212485015
13   
From optimize.out: Frame 8 / 28, Energy=    -286.6953693747
C        1.5982397618    0.3749407419   -0.5666097315
C        0.2741677557   -1.7798917098    0.7851936908
C       -0.8893108758   -1.1821363237    0.9949044129
C       -1.3393932927    0.1055038654    0.4858848175
C       -0.6715737482    1.1497796580   -0.0343261142
N        0.6921902494    1.3564217841   -0.2416777400
H        2.3525851986   -0.1852917415   -0.0251498745
H        0.7560029687   -2.6990563389    1.1071240000
H       -1.6359450956   -1.7353669611    1.5774166613
H       -2.4170398691    0.2499690635    0.5343615468
H       -1.2505803994    2.0120111267   -0.3535238279
C        1.1992151493    0.8008005318   -1.7424660274
H        1.3314421974    1.5323163035   -2.5211318137
13   
From optimize.out: Frame 7 / 28, Energy=    -286.6892741179
C        1.6020911045    0.4100759381   -0.5533842103
C        0.2691540333   -1.7843294671    0.7616227208
C       -0.8939656318   -1.1869738474    0.9754948180
C       -1.3481443228    0.1017992085    0.4760153275
C       -0.6746963346    1.1588439798   -0.0150396079
N        0.6845955556    1.3632584513   -0.2016265678
H        2.3807103451   -0.1111457946   -0.0047660488
H        0.7543402585   -2.6979644027    1.0948227469
H       -1.6342261919   -1.7377305294    1.5691509297
H       -2.4251191322    0.2476714006    0.5286320443
H       -1.2518695634    2.0342783108   -0.2996535670
C        1.2100185081    0.7593297154   -1.7557160825
H        1.3271113716    1.4428870365   -2.5755525028
13   
From optimize.out: Frame 6 / 28, Energy=    -286.6840094881
C        1.6043053582    0.4485975947   -0.5367620351
C        0.2659548201   -1.7864434834    0.7344032660
C       -0.8976185485   -1.1918851384    0.9542576481
C       -1.3582188803    0.0988075637    0.4680963003
C       -0.6805724823    1.1700050881    0.0064686241
N        0.6734279221    1.3729710998   -0.1611998314
H        2.4042253598   -0.0328715305    0.0232573583
H        0.7554513865   -2.6949100463    1.0759229165
H       -1.6309042716   -1.7434601223    1.5565336039
H       -2.4345973771    0.2447779846    0.5265663710
H       -1.2574019432    2.0578485668   -0.2425625025
C        1.2250691605    0.7139403761   -1.7695100796
H        1.3308794958    1.3426220471   -2.6354716397
13   
From optimize.out: Frame 5 / 28, Energy=    -286.6769574919
C        1.6064466055    0.4821383085   -0.5218722082
C        0.2648685424   -1.7848714072    0.7041671805
C       -0.8995430300   -1.1939785918    0.9287840120
C       -1.3692006963    0.0981268319    0.4546804657
C       -0.6856015616    1.1830557866    0.0244329136
N        0.6664399433    1.3834715117   -0.1192185398
H        2.4298553203    0.0420654429    0.0401560066
H        0.7607506077   -2.6847504396    1.0577821337
H       -1.6240521243   -1.7443174910    1.5435147066
H       -2.4450029980    0.2430380718    0.5218275138
H       -1.2608616997    2.0818538197   -0.1872832271
C        1.2328816614    0.6634291180   -1.7702032272
H        1.3230194292    1.2307390385   -2.6767677302
13   
From optimize.out: Frame 4 / 28, Energy=    -286.6668577605
C        1.6084013612    0.5148357257   -0.5075391380
C        0.2640834810   -1.7827559489    0.6735030265
C       -0.9012310408   -1.1956641077    0.9026578221
C       -1.3804810399    0.0976848050    0.4402911292
C       -0.6906321575    1.1962713569    0.0417752299
N        0.6599987264    1.3939089276   -0.0769160154
H        2.4555550589    0.1162879556    0.0549380592
H        0.7667934698   -2.6733114746    1.0400616964
H       -1.6165560210   -1.7442825255    1.5307119100
H       -2.4556960050    0.2413478872    0.5167199316
H       -1.2641144225    2.1057810820   -0.1321761270
C        1.2398866155    0.6124409662   -1.7689955976
H        1.3139919738    1.1174553504   -2.7150319269
13   
From optimize.out: Frame 3 / 28, Energy=    -286.6475644791
C        1.5908644268    0.5476486418   -0.5226595391
C        0.2569229540   -1.7897589644    0.6521624253
C       -0.9092462005   -1.2051544338    0.8838727471
C       -1.4079641392    0.0801125132    0.4212304440
C       -0.7119067115    1.1920864207    0.0567405617
N        0.6354514365    1.3823453653   -0.0281522357
H        2.4489324815    0.1738583488    0.0438808157
H        0.7766100333   -2.6534838042    1.0549935883
H       -1.6039617404   -1.7368103844    1.5497211473
H       -2.4809627627    0.2233354306    0.5210618602
H       -1.2835210526    2.1127229797   -0.0619625045
C        1.2938424579    0.6052610217   -1.8036075671
H        1.3949388169    1.0678368651   -2.7672817432
13   
From optimize.out: Frame 3 / 28, Energy=    -286.6475644791
C        1.5839857359    0.5690978215   -0.5320053512
C        0.2557193352   -1.7884165894    0.6367119729
C       -0.9150668619   -1.2087798440    0.8551554245
C       -1.4274437715    0.0710998036    0.3870186857
C       -0.7173870293    1.1965106317    0.0761798703
N        0.6312183989    1.3653221962    0.0328776284
H        2.4662099757    0.2202707093    0.0162341820
H        0.7878064056   -2.6229425491    1.0797623388
H       -1.5967883184   -1.7232979485    1.5492911939
H       -2.4999432133    0.2130650667    0.4939386675
H       -1.2807651518    2.1295379298    0.0222136450
C        1.3093789111    0.5812645970   -1.8165949804
H        1.4030755836    0.9972681752   -2.8007832775
13   
From optimize.out: Frame 2 / 28, Energy=    -286.6134299727
C        1.5731480690    0.5744763713   -0.5538985016
C        0.2553777318   -1.7885079490    0.6382971613
C       -0.9222948188   -1.2156041041    0.8316157212
C       -1.4474158949    0.0569923472    0.3474884687
C       -0.7203340124    1.1923601663    0.0881343566
N        0.6302938613    1.3313887688    0.0869883158
H        2.4668860159    0.2154149704   -0.0281232035
H        0.7980374056   -2.5853351907    1.1299751195
H       -1.5906071451   -1.7029833567    1.5586014203
H       -2.5190989169    0.1987032237    0.4625876359
H       -1.2726581653    2.1347834666    0.1013470292
C        1.3246681804    0.5917495845   -1.8378400974
H        1.4239976896    0.9965617017   -2.8251734259
13   
From optimize.out: Frame 1 / 28, Energy=    -286.5594986578
C        1.5578222657    0.5686765887   -0.5854372032
C        0.2565506274   -1.7872575125    0.6528220416
C       -0.9297398372   -1.2245721457    0.8157556932
C       -1.4681893673    0.0392255480    0.3103298645
C       -0.7244810794    1.1815201592    0.0956918752
N        0.6273102082    1.2877766009    0.1282637032
H        2.4507199207    0.1757740673   -0.0803152353
H        0.8069644422   -2.5439603639    1.1932390199
H       -1.5859358719   -1.6828795329    1.5741679687
H       -2.5392335454    0.1803105061    0.4336570555
H       -1.2649375304    2.1293112177    0.1732945276
C        1.3457982265    0.6272950792   -1.8676443937
H        1.4673515409    1.0487797879   -2.8438249174
13   
C5H5N+CH->C6H6N atoms 1-13 frame 202 charge +0.000 sz -1.000 sz^2 2.555
C        1.5438521169    0.5535571462   -0.6180277747
C        0.2633967595   -1.7760718388    0.6762445725
C       -0.9344136872   -1.2305710553    0.8046085983
C       -1.4855492252    0.0251734190    0.2776784167
C       -0.7260458540    1.1723938572    0.1063578135
N        0.6263792285    1.2428995921    0.1566967434
H        2.4329684444    0.1227478903   -0.1361279745
H        0.8150403311   -2.4978897277    1.2558224937
H       -1.5864341724   -1.6695981646    1.5791623898
H       -2.5578021926    0.1628616687    0.3984734191
H       -1.2531644957    2.1212307691    0.2437800384
C        1.3589231779    0.6618341094   -1.8931053073
H        1.5028495688    1.1114323344   -2.8515634290
13   
C5H5N+CH->C6H6N atoms 1-13 frame 203 charge +0.000 sz -1.000 sz^2 2.583
C        1.5278583286    0.5367314518   -0.6474057384
C        0.2715277434   -1.7582269235    0.6879260221
C       -0.9374814311   -1.2346146223    0.7950975780
C       -1.5095596636    0.0116122468    0.2519563287
C       -0.7366643595    1.1654027521    0.1129967460
N        0.6181136036    1.2023226929    0.1775909542
H        2.4055017270    0.0657264174   -0.1804957527
H        0.8303319704   -2.4457432157    1.2972870963
H       -1.5782717360   -1.6583338614    1.5884828239
H       -2.5823755309    0.1425905328    0.3777385967
H       -1.2519311144    2.1123635479    0.3040491837
C        1.3821417884    0.6922961344   -1.9141811594
H        1.5608086741    1.1678728470   -2.8510426790
13   
C5H5N+CH->C6H6N atoms 1-13 frame 204 charge +0.000 sz -1.000 sz^2 2.601
C        1.5089409013    0.5174406618   -0.6721423092
C        0.2815150082   -1.7307611150    0.6826446261
C       -0.9382287646   -1.2358332218    0.7879502653
C       -1.5431784820   -0.0012396190    0.2362453851
C       -0.7603631802    1.1614964579    0.1138176898
N        0.5992513012    1.1679583470    0.1875934933
H        2.3639989825    0.0029327682   -0.2083285032
H        0.8560485150   -2.3848186242    1.3082403560
H       -1.5575967600   -1.6499836990    1.6040532352
H       -2.6156241049    0.1182419004    0.3778785981
H       -1.2659248242    2.1023596424    0.3495583059
C        1.4199431426    0.7168679345   -1.9289217240
H        1.6512182651    1.2153385668   -2.8385894184
13   
C5H5N+CH->C6H6N atoms 1-13 frame 205 charge +0.000 sz -1.000 sz^2 2.604
C        1.4900234740    0.4981498719   -0.6968788800
C        0.2915022730   -1.7032953065    0.6773632301
C       -0.9389760980   -1.2370518213    0.7808029526
C       -1.5767973004   -0.0140914849    0.2205344414
C       -0.7840620009    1.1575901638    0.1146386336
N        0.5803889988    1.1335940011    0.1975960325
H        2.3224962380   -0.0598608809   -0.2361612537
H        0.8817650596   -2.3238940328    1.3191936156
H       -1.5369217841   -1.6416335365    1.6196236466
H       -2.6488726789    0.0938932680    0.3780185995
H       -1.2799185340    2.0923557369    0.3950674281
C        1.4577444967    0.7414397345   -1.9436622887
H        1.7416278561    1.2628042867   -2.8261361577
13   
C5H5N+CH->C6H6N atoms 1-13 frame 206 charge +0.000 sz -1.000 sz^2 2.600
C        1.4917142538    0.4949924670   -0.7406748454
C        0.2873950186   -1.6962496703    0.6925287143
C       -0.9488456086   -1.2474690481    0.7914096232
C       -1.6156766588   -0.0329247963    0.2168656161
C       -0.8042230683    1.1526146248    0.1155554685
N        0.5758262101    1.1070649773    0.1868719481
H        2.3138382691   -0.0886909849   -0.2911643831
H        0.8818717655   -2.2875707610    1.3491454827
H       -1.5315369716   -1.6401826159    1.6484991017
H       -2.6877649621    0.0668941529    0.3884368394
H       -1.2920559126    2.0820395930    0.4289972906
C        1.5025193807    0.7728823858   -1.9680846086
H        1.8269382843    1.3165996756   -2.8183862475
13   
C5H5N+CH->C6H6N atoms 1-13 frame 207 charge -0.000 sz -1.000 sz^2 2.592
C        1.5019178389    0.4984994151   -0.7923438350
C        0.2774656227   -1.6976391662    0.7161403631
C       -0.9624832936   -1.2616860292    0.8093500807
C       -1.6567290326   -0.0542289138    0.2181711298
C       -0.8229227664    1.1471974040    0.1165119139
N        0.5771702416    1.0837725557    0.1675861431
H        2.3187477674   -0.1034914819   -0.3573910092
H        0.8713996002   -2.2614097631    1.3869452640
H       -1.5324681954   -1.6415816230    1.6828705830
H       -2.7289885397    0.0388001807    0.4031007978
H       -1.3034264810    2.0715944702    0.4581440111
C        1.5501748791    0.8071632374   -1.9965062525
H        1.9101423586    1.3730097140   -2.8125791897
13   
C5H5N+CH->C6H6N atoms 1-13 frame 208 charge +0.000 sz -1.000 sz^2 2.569
C        1.5105193200    0.4997829124   -0.8400043908
C        0.2693701315   -1.6955759463    0.7350833843
C       -0.9744887490   -1.2737801443    0.8247702537
C       -1.6973692849   -0.0740645057    0.2189877516
C       -0.8423457845    1.1427822163    0.1175124369
N        0.5768969971    1.0606735198    0.1498253853
H        2.3213090391   -0.1202306718   -0.4181578389
H        0.8643702496   -2.2320362100    1.4182936875
H       -1.5304223764   -1.6420879834    1.7147067697
H       -2.7696759409    0.0116680236    0.4175719606
H       -1.3154877001    2.0621395336    0.4869784159
C        1.5959800126    0.8372240637   -2.0214692639
H        1.9913440859    1.4235051921   -2.8040985519
13   
C5H5N+CH->C6H6N atoms 1-13 frame 209 charge -0.000 sz -1.000 sz^2 2.533
C        1.4975913123    0.4711871019   -0.8337985741
C        0.2859191253   -1.6471142373    0.6912881772
C       -0.9645598802   -1.2573466363    0.8063221907
C       -1.7324713407   -0.0741656696    0.2132345186
C       -0.8714889661    1.1518326096    0.1191052860
N        0.5548903779    1.0401732490    0.1525586072
H        2.2923142320   -0.1630225190   -0.4055545108
H        0.9036063329   -2.1594915100    1.3629470915
H       -1.4883702850   -1.6305987252    1.7124730123
H       -2.8031580652   -0.0025390127    0.4294522885
H       -1.3368300621    2.0659909765    0.5116158410
C        1.6169194621    0.8105750980   -1.9999542760
H        2.0456377569    1.3945192752   -2.7596896520
13   
C5H5N+CH->C6H6N atoms 1-13 frame 210 charge +0.000 sz -1.000 sz^2 2.508
C        1.4846633047    0.4425912915   -0.8275927573
C        0.3024681191   -1.5986525282    0.6474929702
C       -0.9546310114   -1.2409131283    0.7878741277
C       -1.7675733965   -0.0742668336    0.2074812855
C       -0.9006321478    1.1608830029    0.1206981351
N        0.5328837586    1.0196729782    0.1552918290
H        2.2633194249   -0.2058143663   -0.3929511828
H        0.9428424163   -2.0869468099    1.3076004955
H       -1.4463181937   -1.6191094671    1.7102392548
H       -2.8366401896   -0.0167460491    0.4413326163
H       -1.3581724241    2.0698424195    0.5362532662