13   
From optimize.out: Frame 1 / 2, Energy=    -286.7239725374
C        1.4857242514    0.1403985435   -1.0273985024
C        0.3818308775   -1.5373736536    1.3003364506
C       -0.8735670675   -1.1854072571    1.0586365777
C       -1.3831562798    0.0386825458    0.4438302619
C       -0.6664499257    1.0357765302   -0.1158438988
N        0.7426315719    1.1230951540   -0.1453585458
H        1.7994299597   -0.8867779077   -0.9658731112
H        0.8590313472   -2.3840913248    1.7794556900
H       -1.6541406774   -1.8916486756    1.3742144719
H       -2.4631164119    0.1614477774    0.4627803502
H       -1.1821178147    1.9191284392   -0.4938414681
C        1.3845826537    1.3275891906   -1.4932286479
H        1.5693175161    2.1391806379   -2.1777096282
13   
From optimize.out: Frame 27 / 28, Energy=    -286.7239725375
C        1.4783765542    0.1315199837   -1.0660547562
C        0.3833758795   -1.5226470806    1.3027729283
C       -0.8767138233   -1.1793842324    1.0766087279
C       -1.3973202077    0.0289224263    0.4381192531
C       -0.6750650193    1.0165393589   -0.1328578767
N        0.7359090127    1.0852250716   -0.1424843366
H        1.7732000935   -0.9025825496   -1.0558900977
H        0.8727821258   -2.3552798256    1.7919907344
H       -1.6520423373   -1.8718869353    1.4337341324
H       -2.4776646340    0.1486078448    0.4547715622
H       -1.1844459472    1.8957687817   -0.5283776301
C        1.3920051954    1.3405265440   -1.4726903655
H        1.6276031078    2.1846706125   -2.0996422753
13   
From optimize.out: Frame 26 / 28, Energy=    -286.7239696069
C        1.4697851211    0.1300826718   -1.0904009075
C        0.3840507281   -1.5194439827    1.2918362537
C       -0.8814095832   -1.1743284307    1.0998532872
C       -1.4023776534    0.0198736935    0.4358249214
C       -0.6765196088    0.9998726486   -0.1438338277
N        0.7395190654    1.0592904779   -0.1323071833
H        1.7267092969   -0.9132432285   -1.1363856184
H        0.8876998976   -2.3278434612    1.8070324015
H       -1.6532761406   -1.8508139479    1.4905581404
H       -2.4838884053    0.1302646264    0.4314609471
H       -1.1777868351    1.8704295157   -0.5677420648
C        1.4007514589    1.3536247201   -1.4529522386
H        1.6667426583    2.2222346969   -2.0329441109
13   
From optimize.out: Frame 25 / 28, Energy=    -286.7239491683
C        1.4618524000    0.1334785433   -1.0554219562
C        0.3929656930   -1.5097794861    1.3143439268
C       -0.8693594339   -1.1822918396    1.0754067958
C       -1.3880313680    0.0287397473    0.4404537300
C       -0.6691591683    1.0167291047   -0.1282840951
N        0.7455442650    1.0898074258   -0.1416951516
H        1.6843667924   -0.9184118169   -1.0750957436
H        0.8869743423   -2.3290969709    1.8249482712
H       -1.6395325827   -1.8934552685    1.3995051497
H       -2.4693166842    0.1397862502    0.4416752042
H       -1.1784578185    1.8928911475   -0.5298012737
C        1.3840310844    1.3320204125   -1.4948746739
H        1.6581224786    2.1995827508   -2.0711601836
13   
From optimize.out: Frame 24 / 28, Energy=    -286.7239155719
C        1.4638859257    0.1422125957   -1.0135408294
C        0.3969135993   -1.5149719668    1.3221999966
C       -0.8582274026   -1.1866526393    1.0510010936
C       -1.3760915307    0.0359578666    0.4381244022
C       -0.6628303687    1.0384554576   -0.1139628093
N        0.7462265634    1.1283721463   -0.1484808892
H        1.6880481931   -0.9104240136   -0.9804110413
H        0.8755860267   -2.3549838597    1.8151429504
H       -1.6300119708   -1.9172513179    1.3307026720
H       -2.4569834029    0.1482922178    0.4552059421
H       -1.1830092599    1.9216439299   -0.4842970973
C        1.3689528242    1.3068068587   -1.5360038547
H        1.6275408033    2.1625427247   -2.1356805359
13   
From optimize.out: Frame 22 / 28, Energy=    -286.7236841000
C        1.4700635785    0.1530469280   -0.9806731035
C        0.3951729561   -1.5213571281    1.3432118392
C       -0.8476667956   -1.1924852315    1.0242247795
C       -1.3631729711    0.0417601451    0.4352463409
C       -0.6552115244    1.0590795109   -0.0979749375
N        0.7478646076    1.1610631233   -0.1579974373
H        1.7038604874   -0.8965127793   -0.9004387656
H        0.8575156721   -2.3810940537    1.8171145162
H       -1.6209706184   -1.9392971794    1.2541314890
H       -2.4430095105    0.1589700001    0.4708777525
H       -1.1847534390    1.9502062221   -0.4348103089
C        1.3511927648    1.2823489297   -1.5733805531
H        1.5891147926    2.1242715128   -2.1995316114
13   
From optimize.out: Frame 21 / 28, Energy=    -286.7235345873
C        1.4883839736    0.1710344114   -0.9459505518
C        0.3905383287   -1.5429830230    1.3474039891
C       -0.8412708344   -1.1974492547    1.0051576766
C       -1.3510763057    0.0471667012    0.4352933559
C       -0.6498254546    1.0751029282   -0.0898437203
N        0.7476066710    1.1981802522   -0.1764543309
H        1.7409393178   -0.8693269403   -0.8172859187
H        0.8362413456   -2.4227263895    1.7971452753
H       -1.6229531727   -1.9417463273    1.2176369352
H       -2.4295705551    0.1701615470    0.4885622825
H       -1.1904425812    1.9682139037   -0.4044815149
C        1.3358224887    1.2587498846   -1.6015422244
H        1.5456067783    2.0856223066   -2.2556412535
13   
From optimize.out: Frame 20 / 28, Energy=    -286.7232936895
C        1.5153614667    0.1951266700   -0.9066420855
C        0.3864602080   -1.5816598423    1.3190274418
C       -0.8403191122   -1.1998469756    0.9995201220
C       -1.3421805509    0.0508313444    0.4372923641
C       -0.6495265671    1.0840691577   -0.0938726264
N        0.7426412660    1.2408291762   -0.2009108028
H        1.7904524997   -0.8328542316   -0.7285353365
H        0.8179007566   -2.4792943721    1.7439909056
H       -1.6371858815   -1.9187046082    1.2442684214
H       -2.4195263646    0.1776591596    0.5052526969
H       -1.2038707875    1.9712178441   -0.4024291138
C        1.3292197453    1.2401140621   -1.6185851025
H        1.5105733215    2.0525126158   -2.2983768844
13   
From optimize.out: Frame 19 / 28, Energy=    -286.7227997195
C        1.5396863783    0.2213871211   -0.8705716055
C        0.3803368776   -1.6118959104    1.2918286155
C       -0.8432114226   -1.2019755279    0.9968279580
C       -1.3390273866    0.0566552280    0.4457775578
C       -0.6531585244    1.0924930898   -0.0918787180
N        0.7349978047    1.2736932074   -0.2194728126
H        1.8506448244   -0.7842911172   -0.6433205340
H        0.8041537700   -2.5236936918    1.6895527524
H       -1.6499143436   -1.9061687861    1.2542097365
H       -2.4157271451    0.1870540072    0.5213798954
H       -1.2161598111    1.9794800305   -0.3851168943
C        1.3205250509    1.2138274280   -1.6403920529
H        1.4868539275    2.0034349214   -2.3488238983
13   
From optimize.out: Frame 19 / 28, Energy=    -286.7227997195
C        1.5620278056    0.2483192763   -0.8363632586
C        0.3731087713   -1.6365276604    1.2679746557
C       -0.8475656135   -1.2042059547    0.9944138851
C       -1.3384593861    0.0637445996    0.4573863302
C       -0.6583310040    1.1013085886   -0.0857758997
N        0.7263903850    1.3013094467   -0.2346317806
H        1.9153811043   -0.7302516256   -0.5599763284
H        0.7923890216   -2.5608706320    1.6371503843
H       -1.6608635918   -1.9011037854    1.2502337966
H       -2.4147451345    0.1977722385    0.5373879296
H       -1.2272499155    1.9917482345   -0.3575606497
C        1.3099636639    1.1831372367   -1.6656767796
H        1.4679538936    1.9456200371   -2.4045622849
13   
From optimize.out: Frame 18 / 28, Energy=    -286.7221128343
C        1.5800435147    0.2732137249   -0.7988744617
C        0.3677372396   -1.6591974067    1.2310569341
C       -0.8514502822   -1.2057890533    0.9911120902
C       -1.3380983676    0.0715365416    0.4690741624
C       -0.6648530282    1.1096478412   -0.0815323656
N        0.7167891921    1.3270255017   -0.2515482931
H        1.9730918307   -0.6737891827   -0.4739990043
H        0.7853276941   -2.5932251872    1.5744278141
H       -1.6687011428   -1.8927004984    1.2579812692
H       -2.4136430702    0.2097500034    0.5556632888
H       -1.2402264639    1.9996782285   -0.3422825442
C        1.2995322560    1.1488881367   -1.6826605155
H        1.4544506277    1.8849613503   -2.4484183743
13   
From optimize.out: Frame 17 / 28, Energy=    -286.7212124275
C        1.5935174437    0.2954221775   -0.7587372389
C        0.3644735259   -1.6799882132    1.1814834134
C       -0.8546163473   -1.2066745194    0.9869627878
C       -1.3376732942    0.0797206215    0.4802375348
C       -0.6724164939    1.1172766836   -0.0796994950
N        0.7065115275    1.3508169629   -0.2702164482
H        2.0219384434   -0.6167665031   -0.3871234392
H        0.7829393194   -2.6207813470    1.5025346946
H       -1.6734260250   -1.8803224404    1.2788456163
H       -2.4121398911    0.2225784610    0.5758158024
H       -1.2549346534    2.0026333712   -0.3408031883
C        1.2896706306    1.1123165494   -1.6905380313
H        1.4461558144    1.8237681960   -2.4787620085
13   
From optimize.out: Frame 16 / 28, Energy=    -286.7200108386
C        1.6044580069    0.3166120906   -0.7180714718
C        0.3618454138   -1.6984045603    1.1281003352
C       -0.8573306474   -1.2069185742    0.9822702477
C       -1.3376746650    0.0880468611    0.4911445605
C       -0.6803731726    1.1251529200   -0.0776378386
N        0.6959783137    1.3731944761   -0.2875559594
H        2.0669433148   -0.5588404255   -0.3006448914
H        0.7825260419   -2.6447622082    1.4281819226
H       -1.6761003402   -1.8679043780    1.3014324460
H       -2.4111282488    0.2347565719    0.5956238265
H       -1.2699303819    2.0050995406   -0.3412500535
C        1.2803465658    1.0733800308   -1.6962180673
H        1.4404397990    1.7605876550   -2.5053750565
13   
From optimize.out: Frame 15 / 28, Energy=    -286.7181368177
C        1.6082026855    0.3355788568   -0.6777304612
C        0.3601431803   -1.7078647134    1.0696429639
C       -0.8586738461   -1.2049469121    0.9759662665
C       -1.3396271314    0.0965935066    0.5013178605
C       -0.6890778695    1.1347202110   -0.0723865098
N        0.6849939105    1.3908948536   -0.2972939814
H        2.1026428500   -0.4977936686   -0.2173127463
H        0.7866422161   -2.6570691616    1.3517221618
H       -1.6724793733   -1.8589975082    1.3196132684
H       -2.4126691904    0.2431956971    0.6120688572
H       -1.2845323860    2.0098935896   -0.3377221544
C        1.2729529842    1.0263094304   -1.7003700124
H        1.4414819701    1.6894858187   -2.5275155128
13   
From optimize.out: Frame 13 / 28, Energy=    -286.7132737664
C        1.6099528585    0.3539228759   -0.6374942402
C        0.3586980243   -1.7148406853    1.0098016077
C       -0.8596367808   -1.2023622621    0.9692182643
C       -1.3421192974    0.1051980569    0.5112841901
C       -0.6979865519    1.1447523740   -0.0662536316
N        0.6738885763    1.4072932398   -0.3049229483
H        2.1357518466   -0.4359049946   -0.1348827479
H        0.7920114514   -2.6661381296    1.2747069266
H       -1.6671160604   -1.8510664504    1.3365670204
H       -2.4149165842    0.2505960877    0.6275763516
H       -1.2990199647    2.0153306553   -0.3330946159
C        1.2660968306    0.9770031516   -1.7040971771
H        1.4443956516    1.6162160809   -2.5484089995
13   
From optimize.out: Frame 12 / 28, Energy=    -286.7108675588
C        1.6088157010    0.3694268454   -0.6004582929
C        0.3501963074   -1.7224361815    0.9446099791
C       -0.8626782998   -1.1971952434    0.9728843641
C       -1.3420669525    0.1125248847    0.5211624121
C       -0.7044301786    1.1491185764   -0.0632734606
N        0.6635184783    1.4142139532   -0.3206265604
H        2.1731745714   -0.3662869121   -0.0588312898
H        0.7939900886   -2.6740487681    1.1954954038
H       -1.6609777774   -1.8379888879    1.3706905120
H       -2.4157451106    0.2555369776    0.6332929792
H       -1.3088692537    2.0162825394   -0.3299822993
C        1.2577740763    0.9235176015   -1.7089671181
H        1.4472983498    1.5573346148   -2.5559966292
13   
From optimize.out: Frame 11 / 28, Energy=    -286.7084704950
C        1.6064323154    0.3842918204   -0.5675413489
C        0.3336600453   -1.7352364699    0.8748827899
C       -0.8667671743   -1.1917374288    0.9825023997
C       -1.3406711985    0.1177979985    0.5298137737
C       -0.7084458441    1.1502293774   -0.0633614645
N        0.6550750587    1.4163512043   -0.3350601777
H        2.2147923188   -0.2907005890    0.0071913206
H        0.7886697015   -2.6855273448    1.1185057747
H       -1.6520216195   -1.8189070826    1.4226428826
H       -2.4147504448    0.2598981580    0.6395899067
H       -1.3164983090    2.0093875871   -0.3410178431
C        1.2516294460    0.8708219266   -1.7142477708
H        1.4488957046    1.5133308427   -2.5539002427
13   
From optimize.out: Frame 10 / 28, Energy=    -286.7055746173
C        1.6041425745    0.3998472685   -0.5411609114
C        0.3086928146   -1.7577331583    0.8038758097
C       -0.8704999873   -1.1886754586    0.9922758914
C       -1.3395888048    0.1198880351    0.5351882610
C       -0.7097461495    1.1513173464   -0.0654625172
N        0.6504929839    1.4184421209   -0.3352510974
H        2.2586776821   -0.2149301729    0.0559122322
H        0.7723002208   -2.7049094998    1.0520365028
H       -1.6378045211   -1.7932754595    1.4915647335
H       -2.4118502743    0.2652561269    0.6567398361
H       -1.3239150208    1.9913943619   -0.3803675321
C        1.2518351757    0.8265205212   -1.7191744793
H        1.4472633062    1.4868579682   -2.5461767295
13   
From optimize.out: Frame 9 / 28, Energy=    -286.7009259594
C        1.5798346072    0.3753099599   -0.5455372926
C        0.2976381568   -1.7530302370    0.7738384082
C       -0.8744822514   -1.1787023064    0.9960373413
C       -1.3434841865    0.1165338565    0.5164733137
C       -0.6966907593    1.1608556574   -0.0338315219
N        0.6633931303    1.3807877374   -0.2817340569
H        2.2779100787   -0.2174102613    0.0324332924
H        0.7841231705   -2.6825120876    1.0531309406
H       -1.6226473586   -1.7678563702    1.5399778801
H       -2.4220776947    0.2476628456    0.5819308271
H       -1.2936008238    2.0017006863   -0.3762786532
C        1.2319572429    0.8044501039   -1.7336502890
H        1.4181266879    1.5122104156   -2.5227901899
13   
From optimize.out: Frame 8 / 28, Energy=    -286.6953693747
C        1.5970484139    0.3748490617   -0.5653961030
C        0.2755323965   -1.7782616906    0.7844454508
C       -0.8884455430   -1.1818928339    0.9949804665
C       -1.3396528402    0.1061429636    0.4876173899
C       -0.6730082396    1.1504754645   -0.0341630250
N        0.6905390021    1.3577080272   -0.2438319905
H        2.3482055660   -0.1872605151   -0.0218650263
H        0.7577331704   -2.6979667802    1.1039721581
H       -1.6351041226   -1.7372067212    1.5753471968
H       -2.4173836374    0.2497548946    0.5368564229
H       -1.2529998471    2.0114570915   -0.3548239975
C        1.2010727739    0.8009549702   -1.7420002092
H        1.3364629071    1.5312460678   -2.5211387336
13   
From optimize.out: Frame 7 / 28, Energy=    -286.6892741179
C        1.6021457419    0.4110264728   -0.5529740526
C        0.2690750916   -1.7843816311    0.7609510717
C       -0.8940557687   -1.1870950351    0.9749707838
C       -1.3483929159    0.1017253887    0.4758199229
C       -0.6748413305    1.1591193838   -0.0145088851
N        0.6843199905    1.3634981141   -0.2006290247
H        2.3812905859   -0.1092143511   -0.0040745619
H        0.7543676759   -2.6978890355    1.0943563873
H       -1.6341442224   -1.7378719090    1.5688395930
H       -2.4253530110    0.2476000046    0.5285810731
H       -1.2520060768    2.0348599147   -0.2982448260
C        1.2103898879    0.7582097184   -1.7560564540
H        1.3272043514    1.4404129646   -2.5770310274
13   
From optimize.out: Frame 6 / 28, Energy=    -286.6840094881
C        1.6043562630    0.4493949728   -0.5364080527
C        0.2659289955   -1.7864061098    0.7336844502
C       -0.8976643001   -1.1919349070    0.9536520522
C       -1.3584799558    0.0987913804    0.4677773598
C       -0.6806920408    1.1703153481    0.0068956971
N        0.6732617938    1.3732207307   -0.1602017917
H        2.4048346721   -0.0310900209    0.0236590973
H        0.7555773672   -2.6946685175    1.0754916478
H       -1.6307413725   -1.7434805049    1.5562240999
H       -2.4348447545    0.2447366209    0.5264537120
H       -1.2574841935    2.0584192542   -0.2412483240
C        1.2252548905    0.7127395498   -1.7695265581
H        1.3306926350    1.3399622032   -2.6364533898
13   
From optimize.out: Frame 5 / 28, Energy=    -286.6769574919
C        1.6064973808    0.4829876328   -0.5214999028
C        0.2648481502   -1.7848164576    0.7033706707
C       -0.8995868765   -1.1940223735    0.9281053771
C       -1.3694937063    0.0981153501    0.4543066987
C       -0.6857322327    1.1833990647    0.0248833850
N        0.6662726309    1.3837426264   -0.1181197202
H        2.4305228781    0.0439933930    0.0405399744
H        0.7609075727   -2.6844533094    1.0573218405
H       -1.6238574110   -1.7443165828    1.5431821504
H       -2.4452807517    0.2429941688    0.5216948430
H       -1.2609461901    2.0824753368   -0.1858518051
C        1.2330636170    0.6621046868   -1.7701718587
H        1.3227849386    1.2277964638   -2.6777616532
13   
From optimize.out: Frame 3 / 28, Energy=    -286.6475644791
C        1.6079032727    0.5157676865   -0.5079685915
C        0.2638801059   -1.7829548504    0.6728969053
C       -0.9014586894   -1.1959336543    0.9021242836
C       -1.3812616220    0.0971857123    0.4397497627
C       -0.6912364028    1.1961524953    0.0422002791
N        0.6593015280    1.3935804963   -0.0755310140
H        2.4553669628    0.1179230847    0.0546240086
H        0.7670722824   -2.6727483240    1.0404857958
H       -1.6161983150   -1.7440702998    1.5312518152
H       -2.4564136379    0.2408362928    0.5168432522
H       -1.2646656146    2.1059782476   -0.1301819017
C        1.2414190831    0.6122370395   -1.7699786556
H        1.3162910468    1.1160460735   -2.7165159396
13   
From optimize.out: Frame 3 / 28, Energy=    -286.6475644791
C        1.5906593795    0.5482880216   -0.5229381290
C        0.2568870753   -1.7897189495    0.6517018618
C       -0.9094197090   -1.2052625039    0.8830167107
C       -1.4085448087    0.0798438528    0.4202106237
C       -0.7120700746    1.1922183022    0.0573200292
N        0.6353252536    1.3818379207   -0.0263329928
H        2.4494475074    0.1752418576    0.0430566956
H        0.7769437866   -2.6525733981    1.0557319215
H       -1.6037479075   -1.7364075914    1.5497083308
H       -2.4815285521    0.2230292807    0.5202533433
H       -1.2834389018    2.1132242175   -0.0594532926
C        1.2943055850    0.6045457108   -1.8039947097
H        1.3951813662    1.0657332788   -2.7682803924
13   
From optimize.out: Frame 2 / 28, Energy=    -286.6134299727
C        1.5826454706    0.5697629724   -0.5347128186
C        0.2556770901   -1.7884278876    0.6369080089
C       -0.9159607240   -1.2096237820    0.8522443323
C       -1.4299136706    0.0693551722    0.3821300894
C       -0.7177514748    1.1959973547    0.0776582496
N        0.6311040638    1.3611257399    0.0395693525
H        2.4662935798    0.2196702130    0.0107486227
H        0.7890716460   -2.6182917476    1.0859720192
H       -1.5960239092   -1.7207856972    1.5504425648
H       -2.5023121480    0.2112889759    0.4900615692
H       -1.2797625825    2.1301866313    0.0319998592
C        1.3112696942    0.5825612474   -1.8192223073
H        1.4056629646    0.9971808075   -2.8037995419
13   
From optimize.out: Frame 1 / 28, Energy=    -286.5594986578
C        1.5691534783    0.5729646882   -0.5621188998
C        0.2556834409   -1.7881820293    0.6420829956
C       -0.9242353241   -1.2179415774    0.8274818876
C       -1.4528303922    0.0523615236    0.3378032722
C       -0.7214149238    1.1895347750    0.0901041844
N        0.6295161877    1.3200214846    0.0977465303
H        2.4626724074    0.2050827756   -0.0417267845
H        0.8003641911   -2.5745510578    1.1464645254
H       -1.5893896021   -1.6977433998    1.5626587600
H       -2.5243469029    0.1939092577    0.4550470309
H       -1.2706458221    2.1333571535    0.1200997696
C        1.3301756168    0.6010143324   -1.8456084319
H        1.4352976449    1.0101720737   -2.8300348400
13   
C5H5N+CH->C6H6N atoms 1-13 frame 202 charge +0.000 sz -1.000 sz^2 2.555
C        1.5541018504    0.5646501030   -0.5941164565
C        0.2583738330   -1.7842786358    0.6590597376
C       -0.9309845385   -1.2261697260    0.8127870905
C       -1.4728125020    0.0354833004    0.3016343992
C       -0.7248977973    1.1790897175    0.0985323403
N        0.6270622773    1.2758253246    0.1358357569
H        2.4459924933    0.1616525715   -0.0951788254
H        0.8091151466   -2.5316912106    1.2099057365
H       -1.5860685752   -1.6793425480    1.5754980419
H       -2.5441785949    0.1756636751    0.4242872385
H       -1.2618022325    2.1271592990    0.1920656498
C        1.3492935557    0.6364932300   -1.8744249350
H        1.4768050841    1.0654648994   -2.8458857742
13   
C5H5N+CH->C6H6N atoms 1-13 frame 203 charge +0.000 sz -1.000 sz^2 2.583
C        1.5393562778    0.5488274591   -0.6262858931
C        0.2656823715   -1.7710556497    0.6795282172
C       -0.9352760272   -1.2317076982    0.8019350593
C       -1.4922985372    0.0213613861    0.2704479616
C       -0.7290307060    1.1704286641    0.1082240113
N        0.6240557690    1.2314934634    0.1625700867
H        2.4252475756    0.1067192072   -0.1485997158
H        0.8193387968   -2.4832313915    1.2674781551
H       -1.5841397191   -1.6664317794    1.5817823552
H       -2.5647097352    0.1571634712    0.3926448798
H       -1.2528177933    2.1187382014    0.2607216392
C        1.3654499078    0.6703969563   -1.8990297098
H        1.5191418195    1.1272977101   -2.8514170467
13   
C5H5N+CH->C6H6N atoms 1-13 frame 204 charge +0.000 sz -1.000 sz^2 2.601
C        1.5217966705    0.5305501581   -0.6553320084
C        0.2747279347   -1.7494261316    0.6862337192
C       -0.9377208971   -1.2350050947    0.7928073847
C       -1.5203320473    0.0074941595    0.2469221151
C       -0.7442581061    1.1641510692    0.1132597987
N        0.6120696090    1.1913114219    0.1807960397
H        2.3922031190    0.0456056246   -0.1894141229
H        0.8385722506   -2.4262213198    1.3007968185
H       -1.5716469114   -1.6556582423    1.5934720071
H       -2.5930292782    0.1347885688    0.3777834570
H       -1.2564150795    2.1091580245    0.3186315440
C        1.3942543702    0.7001696073   -1.9189044371
H        1.5897783656    1.1830821544   -2.8470523157
13   
C5H5N+CH->C6H6N atoms 1-13 frame 205 charge +0.000 sz -1.000 sz^2 2.604
C        1.5028973786    0.5112778615   -0.6800448651
C        0.2847056250   -1.7219866535    0.6809573863
C       -0.9384675141   -1.2362225260    0.7856669238
C       -1.5539186365   -0.0053453857    0.2312262330
C       -0.7679342076    1.1602485199    0.1140799555
N        0.5932253892    1.1569800199    0.1907889898
H        2.3507401617   -0.0171278266   -0.2172201911
H        0.8642641417   -2.3653551346    1.3117395777
H       -1.5509917558   -1.6473160848    1.6090274917
H       -2.6262459779    0.1104632786    0.3779233241
H       -1.2703953741    2.0991637094    0.3640970383
C        1.4320194856    0.7247178513   -1.9336308705
H        1.6801012842    1.2305023706   -2.8346109935
13   
C5H5N+CH->C6H6N atoms 1-13 frame 206 charge +0.000 sz -1.000 sz^2 2.600
C        1.4905937666    0.4970848931   -0.7116510669
C        0.2901169141   -1.7009188443    0.6824784813
C       -0.9423050406   -1.2405655062    0.7843805361
C       -1.5899111373   -0.0204438782    0.2192969627
C       -0.7908622404    1.1559119363    0.1149478780
N        0.5788499902    1.1246458778    0.1939788459
H        2.3195759431   -0.0695851484   -0.2547135678
H        0.8818010510   -2.3116423527    1.3292962489
H       -1.5351055105   -1.6411441473    1.6293632108
H       -2.6619908753    0.0847865850    0.3815326261
H       -1.2840124185    2.0888761469    0.4065118218
C        1.4728468685    0.7520452028   -1.9518998300
H        1.7704026891    1.2809492352   -2.8235221470
13   
C5H5N+CH->C6H6N atoms 1-13 frame 208 charge +0.000 sz -1.000 sz^2 2.569
C        1.4955241511    0.4963019197   -0.7599674315
C        0.2836875003   -1.6967684915    0.7013450231
C       -0.9539377580   -1.2527774997    0.7981083766
C       -1.6310051268   -0.0408795004    0.2173530794
C       -0.8112053132    1.1505918990    0.1159125938
N        0.5763280555    1.0983678641    0.1796708579
H        2.3156714174   -0.0942173144   -0.3158926175
H        0.8779615836   -2.2778025556    1.3632594714
H       -1.5318846795   -1.6407049885    1.6613330039
H       -2.7031573556    0.0564041979    0.3939121871
H       -1.2963015476    2.0781395084    0.4398803294
C        1.5203133769    0.7856824480   -1.9786969124
H        1.8580056959    1.3376625130   -2.8162179612
13   
C5H5N+CH->C6H6N atoms 1-13 frame 209 charge -0.000 sz -1.000 sz^2 2.533
C        1.5053199754    0.4990070757   -0.8111949740
C        0.2742636200   -1.6968231026    0.7236328801
C       -0.9672318012   -1.2664696042    0.8154492086
C       -1.6728034369   -0.0620744686    0.2184941275
C       -0.8306051362    1.1454510686    0.1169076499
N        0.5770621655    1.0746362138    0.1605612457
H        2.3197608250   -0.1101123194   -0.3814260615
H        0.8686192872   -2.2497916667    1.3993444792
H       -1.5316590143   -1.6417819033    1.6954627228
H       -2.7450815928    0.0280686217    0.4088245645
H       -1.3081970447    2.0678547672    0.4695488586
C        1.5682921445    0.8190531704   -2.0063798511
H        1.9422600085    1.3929821474   -2.8092248503
13   
C5H5N+CH->C6H6N atoms 1-13 frame 210 charge +0.000 sz -1.000 sz^2 2.508
C        1.5049616709    0.4874897977   -0.8373365588
C        0.2764844142   -1.6747426375    0.7162561681
C       -0.9702204062   -1.2667155080    0.8168395760
C       -1.7124593835   -0.0741079953    0.2165144818
C       -0.8548742098    1.1466729094    0.1181971902
N        0.5674365240    1.0518606141    0.1510003760
H        2.3088443989   -0.1386265514   -0.4127397670
H        0.8812375342   -2.2008498122    1.3945006198
H       -1.5123445120   -1.6371488414    1.7137464949
H       -2.7840696436    0.0055605301    0.4226792204
H       -1.3246626142    2.0637952387    0.4975698518
C        1.6049817178    0.8257678823   -2.0122201393
H        2.0146845094    1.4110443737   -2.7850075140
13   
C5H5N+CH->C6H6N atoms 1-13 frame 211 charge +0.000 sz -1.000 sz^2 2.496
C        1.4920455622    0.4589203070   -0.8311364540
C        0.2930181762   -1.6263255330    0.6725012705
C       -0.9603006760   -1.2502971256    0.7984084928
C       -1.7475291311   -0.0742090661    0.2107665441
C       -0.8839905679    1.1557149727    0.1197885733
N        0.5454501598    1.0313792119    0.1537310821
H        2.2798762788   -0.1813790128   -0.4001480391
H        0.9204375044   -2.1283718828    1.3392049651
H       -1.4703311257   -1.6256701580    1.7115147934
H       -2.8175209508   -0.0086334300    0.4345486135
H       -1.3459853325    2.0676431368    0.5221846005
C        1.6259018945    0.7991434444   -1.9907249539
H        2.0689282081    1.3820851356   -2.7406394884
13   
C5H5N+CH->C6H6N atoms 1-13 frame 212 charge -0.000 sz -1.000 sz^2 2.495
C        1.4791299868    0.4303519958   -0.8249366051
C        0.3095512556   -1.5779104272    0.6287481792
C       -0.9503813553   -1.2338794209    0.7799781703
C       -1.7825974310   -0.0743101328    0.2050188436
C       -0.9131057239    1.1647566627    0.1213798906
N        0.5234647033    1.0108986552    0.1564616756
H        2.2509093545   -0.2241297092   -0.3875568310
H        0.9596358564   -2.0558969454    1.2839115932
H       -1.4283194737   -1.6141919486    1.7092831841
H       -2.8509708770   -0.0228268041    0.4464175166
H       -1.3673071707    2.0714908760    0.5467983330
C        1.6468212075    0.7725201056   -1.9692306558
H        2.1231696675    1.3531270930   -2.6962732943
13   
C5H5N+CH->C6H6N atoms 1-13 frame 213 charge +0.000 sz -1.000 sz^2 2.513
C        1.4662149422    0.4017848586   -0.8187370110
C        0.3260836555   -1.5294973112    0.5849968860
C       -0.9404624423   -1.2174623909    0.7615486054
C       -1.8176642897   -0.0744111953    0.1992713793
C       -0.9422196833    1.1737979811    0.1229711426
N        0.5014801503    0.9904189402    0.1591921568
H        2.2219436208   -0.2668786487   -0.3749661404
H        0.9988325973   -1.9834249867    1.2286204938
H       -1.3863095484   -1.6027142109    1.7070516664
H       -2.8844194285   -0.0370195949    0.4582859319
H       -1.3886281325    2.0753384570    0.5714110540
C        1.6677396608    0.7458978610   -1.9477372412
H        2.1774088977    1.3241702405   -2.6519089237
13   
C5H5N+CH->C6H6N atoms 1-13 frame 214 charge -0.000 sz -1.000 sz^2 2.543
C        1.4697817217    0.3859059619   -0.8085406876
C        0.3234542000   -1.4891383590    0.5550220253
C       -0.9331456183   -1.2107355579    0.7395422678
C       -1.8639728140   -0.0746186971    0.1921096829
C       -0.9682189584    1.1698617617    0.1254500172
N        0.4736824335    0.9683500221    0.1598723100
H        2.2000481762   -0.2971617453   -0.3542280771
H        1.0378166694   -1.9484908333    1.1783758021
H       -1.3501858910   -1.5806685147    1.7164479280
H       -2.9258894901   -0.0559184559    0.4935643063