13   
From optimize.out: Frame 2 / 3, Energy=    -286.8249551859
C        1.3118553965    0.3025645483    0.2420680501
C        0.6068016140   -1.0007437408   -0.1830377253
C       -0.6883432701   -0.4654887350   -0.8439833543
C       -1.0780816294    0.1914248105    0.4506992150
C       -0.5189778790    1.0592796455   -0.6927874810
N        0.8291126319    1.4230372465   -0.4714120611
H        2.3483758206    0.2894064774    0.5607696643
H        1.1233254710   -1.9344691093   -0.3753888304
H       -1.2958121827   -0.9367535784   -1.6085309573
H       -2.0520569287    0.3366788924    0.9044507954
H       -1.1651298397    1.7418607690   -1.2337022453
C        0.2167204484   -0.3451412793    1.1120381956
H        0.3622103476   -0.6616559464    2.1388167342
13   
From optimize.out: Frame 1 / 2, Energy=    -286.9243518580
C        1.5348642784    0.3456500851   -0.6179040600
C        1.1737607234   -0.9591985572   -0.3362297236
C       -0.0771302035   -1.4426645606    0.1892855113
C       -1.3053709349    0.7328232315    0.4113220772
C       -0.3748333053    1.6477135252   -0.0419390194
N        0.8918951021    1.5302174533   -0.5068801945
H        2.5464116681    0.4648680033   -1.0124057567
H        1.9328936696   -1.7109568903   -0.5384422558
H       -0.1450774496   -2.5187971166    0.3362074361
H       -2.2591542260    1.1498718485    0.7256742459
H       -0.7106593325    2.6868701717   -0.0314869532
C       -1.1699021564   -0.6977770935    0.5183381078
H       -2.0376978333   -1.2286201003    0.9044605850
