
Running Job 1 of 1 irc_product.in
qchem irc_product.in_16014.0 ./irc_product.d/ 1
/home/leeping/opt/qchem/5.0.2-openmp/exe/qcprog.exe_s irc_product.in_16014.0 ./irc_product.d/
Check license passed

                  Welcome to Q-Chem
     A Quantum Leap Into The Future Of Chemistry


 Q-Chem 5.0, Q-Chem, Inc., Pleasanton, CA (2017)

 Yihan Shao,  Zhengting Gan,  E. Epifanovsky,  A. T. B. Gilbert,  M. Wormit,  
 J. Kussmann,  A. W. Lange,  A. Behn,  Jia Deng,  Xintian Feng,  D. Ghosh,  
 M. Goldey,  P. R. Horn,  L. D. Jacobson,  I. Kaliman,  T. Kus,  A. Landau,  
 Jie Liu,  E. I. Proynov,  R. M. Richard,  R. P. Steele,  E. J. Sundstrom,  
 H. L. Woodcock III,  P. M. Zimmerman,  D. Zuev,  B. Albrecht,  E. Alguire,  
 S. A. Baeppler,  D. Barton,  Z. Benda,  Y. A. Bernard,  E. J. Berquist,  
 K. B. Bravaya,  H. Burton,  D. Casanova,  Chun-Min Chang,  Yunqing Chen,  
 A. Chien,  K. D. Closser,  M. P. Coons,  S. Dasgupta,  A. L. Dempwolff,  
 M. Diedenhofen,  Hainam Do,  R. G. Edgar,  Po-Tung Fang,  S. Fatehi,  
 Qingguo Feng,  J. Fosso-Tande,  Qinghui Ge,  A. Ghysels,  G. Gidofalvi,  
 J. Gomes,  J. Gonthier,  A. Gunina,  M. W. D. Hanson-Heine,  
 P. H. P. Harbach,  A. W. Hauser,  J. E. Herr,  E. G. Hohenstein,  
 Z. C. Holden,  Kerwin Hui,  T.-C. Jagau,  Hyunjun Ji,  B. Kaduk,  
 K. Khistyaev,  Jaehoon Kim,  P. Klunzinger,  K. Koh,  D. Kosenkov,  
 L. Koulias,  T. Kowalczyk,  C. M. Krauter,  A. Kunitsa,  Ka Un Lao,  
 A. Laurent,  K. V. Lawler,  Joonho Lee,  D. Lefrancois,  S. Lehtola,  
 D. S. Levine,  Yi-Pei Li,  You-Sheng Lin,  Fenglai Liu,  E. Livshits,  
 A. Luenser,  P. Manohar,  E. Mansoor,  S. F. Manzer,  Shan-Ping Mao,  
 Yuezhi Mao,  N. Mardirossian,  A. V. Marenich,  T. Markovich,  
 L. A. Martinez-Martinez,  S. A. Maurer,  N. J. Mayhall,  S. C. McKenzie,  
 J.-M. Mewes,  A. F. Morrison,  J. W. Mullinax,  K. Nanda,  
 T. S. Nguyen-Beck,  R. Olivares-Amaya,  J. A. Parkhill,  T. M. Perrine,  
 F. Plasser,  S. Prager,  A. Prociuk,  E. Ramos,  D. R. Rehn,  F. Rob,  
 M. Schneider,  N. Sergueev,  S. M. Sharada,  S. Sharma,  D. W. Small,  
 T. Stauch,  T. Stein,  Yu-Chuan Su,  A. J. W. Thom,  A. Tkatchenko,  
 T. Tsuchimochi,  L. Vogt,  O. Vydrov,  M. A. Watson,  J. Wenzel,  
 M. de Wergifosse,  T. A. Wesolowski,  A. White,  J. Witte,  A. Yamada,  
 Jun Yang,  K. Yao,  S. Yeganeh,  S. R. Yost,  Zhi-Qiang You,  A. Zech,  
 Igor Ying Zhang,  Xing Zhang,  Yan Zhao,  Ying Zhu,  B. R. Brooks,  
 G. K. L. Chan,  C. J. Cramer,  M. S. Gordon,  W. J. Hehre,  A. Klamt,  
 M. W. Schmidt,  C. D. Sherrill,  D. G. Truhlar,  A. Aspuru-Guzik,  R. Baer,  
 A. T. Bell,  N. A. Besley,  Jeng-Da Chai,  R. A. DiStasio Jr.,  A. Dreuw,  
 B. D. Dunietz,  T. R. Furlani,  Chao-Ping Hsu,  Yousung Jung,  Jing Kong,  
 D. S. Lambrecht,  WanZhen Liang,  C. Ochsenfeld,  V. A. Rassolov,  
 L. V. Slipchenko,  J. E. Subotnik,  T. Van Voorhis,  J. M. Herbert,  
 A. I. Krylov,  P. M. W. Gill,  M. Head-Gordon

 Contributors to earlier versions of Q-Chem not listed above: 
 R. D. Adamson,  B. Austin,  J. Baker,  G. J. O. Beran,  K. Brandhorst,  
 S. T. Brown,  E. F. C. Byrd,  A. K. Chakraborty,  C.-L. Cheng,  
 Siu Hung Chien,  D. M. Chipman,  D. L. Crittenden,  H. Dachsel,  
 R. J. Doerksen,  A. D. Dutoi,  L. Fusti-Molnar,  W. A. Goddard III,  
 A. Golubeva-Zadorozhnaya,  S. R. Gwaltney,  G. Hawkins,  A. Heyden,  
 S. Hirata,  G. Kedziora,  F. J. Keil,  C. Kelley,  Jihan Kim,  R. A. King,  
 R. Z. Khaliullin,  P. P. Korambath,  W. Kurlancheek,  A. M. Lee,  M. S. Lee,  
 S. V. Levchenko,  Ching Yeh Lin,  D. Liotard,  R. C. Lochan,  I. Lotan,  
 P. E. Maslen,  N. Nair,  D. P. O'Neill,  D. Neuhauser,  E. Neuscamman,  
 C. M. Oana,  R. Olson,  B. Peters,  R. Peverati,  P. A. Pieniazek,  
 Y. M. Rhee,  J. Ritchie,  M. A. Rohrdanz,  E. Rosta,  N. J. Russ,  
 H. F. Schaefer III,  N. E. Schultz,  N. Shenvi,  A. C. Simmonett,  A. Sodt,  
 D. Stuck,  K. S. Thanthiriwatte,  V. Vanovschi,  Tao Wang,  A. Warshel,  
 C. F. Williams,  Q. Wu,  X. Xu,  W. Zhang

 Please cite Q-Chem as follows:
 Y. Shao et al., Mol. Phys. 113, 184-215 (2015)
 DOI: 10.1080/00268976.2014.952696

 Q-Chem 5.0.2 for Intel X86 EM64T Linux

 Parts of Q-Chem use Armadillo 5.200.1 (Boston Tea Smuggler).
 http://arma.sourceforge.net/

 Q-Chem begins on Thu Mar  3 16:58:50 2022  

Host: 
0

     Scratch files written to ./irc_product.d//
 Dec517 15110_ 26548  26544 5633   
Processing $rem in /home/leeping/opt/qchem/5.0.2-openmp/config/preferences.
 MEM_STATIC 2000
 MEM_TOTAL  8000
 SYMMETRY   OFF
 SYM_IGNORE TRUE 

Checking the input file for inconsistencies... 	...done.

--------------------------------------------------------------
User input:
--------------------------------------------------------------
$molecule
0 2
C        1.2521785188    0.2904034341    0.1752140049
C        0.5899811805   -1.1243724622   -0.1734495836
C       -0.7548097676   -0.9467461782   -0.7021208947
C       -1.0475459933    0.2060051445    0.2555312202
C       -0.4990821194    1.4379093787   -0.4536865988
N        0.7838793682    1.4512654324   -0.5361386470
H        2.3061313601    0.2446440891    0.4257634231
H        1.2486217820   -1.9812572572   -0.2667342020
H       -1.2131632232   -1.2149101780   -1.6503168362
H       -2.0345117610    0.2826098306    0.7151071739
H       -1.1150519513    2.1704455650   -0.9707923711
C        0.2082700142   -0.2821749579    1.0638695660
H        0.2751025921   -0.5338218408    2.1177537455
$end

$rem
method                b3lyp
basis                 6-31+g(d,p)
unrestricted          true
symmetry              off
sym_ignore            true
incdft                false
incfock               0
scf_convergence       6
thresh                14
jobtype               sp
scf_guess             read
scf_algorithm         diis
max_scf_cycles        100
stability_analysis    true
max_cis_cycles        100
cis_n_roots           4
$end

--------------------------------------------------------------
 ----------------------------------------------------------------
             Standard Nuclear Orientation (Angstroms)
    I     Atom           X                Y                Z
 ----------------------------------------------------------------
    1      C       1.2521785188     0.2904034341     0.1752140049
    2      C       0.5899811805    -1.1243724622    -0.1734495836
    3      C      -0.7548097676    -0.9467461782    -0.7021208947
    4      C      -1.0475459933     0.2060051445     0.2555312202
    5      C      -0.4990821194     1.4379093787    -0.4536865988
    6      N       0.7838793682     1.4512654324    -0.5361386470
    7      H       2.3061313601     0.2446440891     0.4257634231
    8      H       1.2486217820    -1.9812572572    -0.2667342020
    9      H      -1.2131632232    -1.2149101780    -1.6503168362
   10      H      -2.0345117610     0.2826098306     0.7151071739
   11      H      -1.1150519513     2.1704455650    -0.9707923711
   12      C       0.2082700142    -0.2821749579     1.0638695660
   13      H       0.2751025921    -0.5338218408     2.1177537455
 ----------------------------------------------------------------
 Nuclear Repulsion Energy =   282.1465452816 hartrees
 There are       25 alpha and       24 beta electrons
 Requested basis set is 6-31+G(d,p)
 There are 53 shells and 163 basis functions

 Total QAlloc Memory Limit   8000 MB
 Mega-Array Size      1956 MB
 MEM_STATIC part      2000 MB

                       Distance Matrix (Angstroms)
             C (  1)   C (  2)   C (  3)   C (  4)   C (  5)   N (  6)
   C (  2)  1.600519
   C (  3)  2.515603  1.455853
   C (  4)  2.302674  2.153004  1.526967
   C (  5)  2.186138  2.798192  2.411161  1.523611
   N (  6)  1.439766  2.608266  2.854045  2.351921  1.285678
   H (  7)  1.084290  2.275617  3.472880  3.358217  3.172781  2.167589
   H (  8)  2.314254  1.084786  2.296413  3.213917  3.844492  3.474302
   H (  9)  3.417081  2.332523  1.086773  2.382999  2.996546  3.512558
   H ( 10)  3.330747  3.107587  2.271011  1.091412  2.249075  3.297681
   H ( 11)  3.232904  3.794564  3.149419  2.316776  1.087854  2.076556
   C ( 12)  1.485698  1.544655  2.118466  1.571243  2.400420  2.428203
   H ( 13)  2.325400  2.386946  3.030333  2.400961  3.331575  3.352994
             H (  7)   H (  8)   H (  9)   H ( 10)   H ( 11)   C ( 12)
   H (  8)  2.559788
   H (  9)  4.338876  2.926085
   H ( 10)  4.350442  4.107076  2.917604
   H ( 11)  4.166962  4.829005  3.454275  2.692877
   C ( 12)  2.255159  2.395771  3.202698  2.338950  3.450562
   H ( 13)  2.755706  2.954419  4.108184  2.822817  4.334133  1.085571

 
 A cutoff of  1.0D-14 yielded   1404 shell pairs
 There are     13520 function pairs
 Smallest overlap matrix eigenvalue = 2.33E-05

 Scale SEOQF with 1.000000e-01/1.000000e-01/1.000000e-01

 Standard Electronic Orientation quadrupole field applied
 Nucleus-field energy     =     0.0000000028 hartrees
 Guess MOs from SCF MO coefficient file
 Reading MOs from coefficient file
 Reading MOs from coefficient file
 An unrestricted hybrid HF-DFT SCF calculation will be
 performed using Pulay DIIS extrapolation
 Exchange:     0.2000 Hartree-Fock + 0.0800 Slater + 0.7200 B88
 Correlation:  0.1900 VWN1RPA + 0.8100 LYP
 Using SG-1 standard quadrature grid
 SCF converges when DIIS error is below 1.0E-06
Using Q-Chem read-in guess as SCF_GUESS READ specified.

 -------------------------------------------------------
 OpenMP BLAS3 based DFT computing Module                
 -------------------------------------------------------
 ---------------------------------------
  Cycle       Energy         DIIS Error
 ---------------------------------------
    1    -286.8593808221      1.05E-09
    2    -286.8593808221      1.08E-09 Convergence criterion met
 ---------------------------------------
 <S^2> = 0.7567
 SCF time:  CPU 6.42 s  wall 6.80 s
 SCF   energy in the final basis set = -286.85938082
 Total energy in the final basis set = -286.85938082
 
 Direct TDDFT/TDA calculation will be performed
 Exchange:     0.2000 Hartree-Fock + 0.0800 Slater + 0.7200 B88
 Correlation:  0.1900 VWN1RPA + 0.8100 LYP
 Using SG-1 standard quadrature grid
 CIS energy converged when residual is below 10e- 6
 ---------------------------------------------------
 Iter    Rts Conv    Rts Left    Ttl Dev     Max Dev
 ---------------------------------------------------
   1         0           4      0.003506    0.001203
   2         0           4      0.001073    0.000382
   3         0           4      0.000555    0.000277
   4         0           4      0.000253    0.000123
   5         0           4      0.000098    0.000053
   6         0           4      0.000030    0.000015
   7         1           3      0.000007    0.000003
   8         4           0      0.000002    0.000001    Roots Converged
 ---------------------------------------------------
 
 ---------------------------------------------------
         TDDFT/TDA Excitation Energies              
 ---------------------------------------------------

 Excited state   1: excitation energy (eV) =    3.5115
 Total energy for state  1:                  -286.73033402 au
    <S**2>     :  0.9743
    Trans. Mom.:  0.0139 X  -0.3831 Y   0.0472 Z
    Strength   :     0.0128321035
    S(  1) --> V(  1) amplitude =  0.8744 alpha
    D( 23) --> S(  1) amplitude =  0.4080 beta
    D( 24) --> S(  1) amplitude = -0.1616 beta

 Excited state   2: excitation energy (eV) =    3.5343
 Total energy for state  2:                  -286.72949757 au
    <S**2>     :  1.1744
    Trans. Mom.: -0.0493 X   0.0026 Y   0.0716 Z
    Strength   :     0.0006550254
    D( 24) --> V(  1) amplitude = -0.2368 alpha
    D( 23) --> S(  1) amplitude =  0.1519 beta
    D( 24) --> S(  1) amplitude =  0.9215 beta

 Excited state   3: excitation energy (eV) =    4.0930
 Total energy for state  3:                  -286.70896523 au
    <S**2>     :  0.8771
    Trans. Mom.:  0.1721 X   0.5203 Y   0.0585 Z
    Strength   :     0.0304632428
    S(  1) --> V(  1) amplitude = -0.4311 alpha
    D( 23) --> S(  1) amplitude =  0.8577 beta
    D( 23) --> V(  1) amplitude =  0.1544 beta

 Excited state   4: excitation energy (eV) =    4.4231
 Total energy for state  4:                  -286.69683549 au
    <S**2>     :  0.8128
    Trans. Mom.:  0.0262 X   0.1013 Y  -0.1139 Z
    Strength   :     0.0025936351
    S(  1) --> V(  2) amplitude =  0.9840 alpha
 
 ---------------------------------------------------

 Stability analysis will be performed
 ---------------------------------------------------
 Iter    Rts Conv    Rts Left    Ttl Dev     Max Dev
 ---------------------------------------------------
   1         0           8      0.003798    0.000660
   2         0           8      0.001811    0.000882
   3         0           8      0.001799    0.000781
   4         0           8      0.000845    0.000309
   5         3           5      0.000369    0.000154
   6         4           4      0.000144    0.000062
   7         4           4      0.000049    0.000021
   8         5           3      0.000017    0.000007
   9         6           2      0.000006    0.000002
  10         8           0      0.000003    0.000001    Roots Converged
 UKS-> UKS   stable,    smallest eigenvalue:      0.0979232
 UKS->CUKS   stable,    smallest eigenvalue:      0.1302328
 ---------------------------------------------------
  SETman timing summary (seconds)
  CPU time               180.72s
  System time              0.00s
  Wall time              183.13s
 
 --------------------------------------------------------------
 
                    Orbital Energies (a.u.)
 --------------------------------------------------------------
 
 Alpha MOs
 -- Occupied --
-14.334 -10.234 -10.230 -10.220 -10.219 -10.218 -10.217  -0.979
 -0.866  -0.759  -0.674  -0.616  -0.580  -0.543  -0.525  -0.475
 -0.448  -0.415  -0.410  -0.366  -0.347  -0.308  -0.285  -0.267
 -0.192
 -- Virtual --
 -0.018   0.002   0.016   0.020   0.032   0.045   0.047   0.059
  0.072   0.074   0.080   0.092   0.103   0.109   0.112   0.114
  0.125   0.139   0.146   0.162   0.165   0.175   0.183   0.186
  0.188   0.194   0.211   0.215   0.227   0.240   0.246   0.254
  0.260   0.263   0.284   0.292   0.301   0.322   0.331   0.338
  0.358   0.387   0.421   0.455   0.617   0.663   0.675   0.689
  0.706   0.724   0.732   0.745   0.752   0.767   0.785   0.789
  0.804   0.812   0.820   0.871   0.902   0.920   0.932   0.981
  0.991   1.030   1.040   1.044   1.078   1.089   1.103   1.157
  1.232   1.262   1.321   1.390   1.412   1.468   1.483   1.496
  1.548   1.582   1.643   1.685   1.691   1.776   1.800   1.852
  1.909   1.918   1.968   1.972   2.020   2.080   2.114   2.141
  2.160   2.184   2.228   2.306   2.349   2.360   2.369   2.400
  2.416   2.447   2.464   2.483   2.500   2.513   2.543   2.563
  2.569   2.592   2.615   2.639   2.685   2.718   2.766   2.801
  2.822   2.872   2.997   3.041   3.093   3.270   3.332   3.369
  3.529   3.548   3.648   4.180   4.428   4.456   4.599   4.614
  4.658   4.880
 
 Beta MOs
 -- Occupied --
-14.333 -10.232 -10.230 -10.220 -10.219 -10.217 -10.205  -0.975
 -0.861  -0.752  -0.662  -0.611  -0.576  -0.536  -0.519  -0.470
 -0.443  -0.412  -0.404  -0.358  -0.342  -0.302  -0.274  -0.261
 -- Virtual --
 -0.078  -0.007   0.003   0.016   0.020   0.036   0.046   0.047
  0.060   0.073   0.078   0.082   0.094   0.105   0.109   0.113
  0.117   0.129   0.140   0.148   0.162   0.167   0.177   0.185
  0.188   0.191   0.195   0.212   0.220   0.233   0.242   0.249
  0.256   0.263   0.265   0.287   0.295   0.303   0.323   0.334
  0.341   0.362   0.389   0.427   0.460   0.620   0.670   0.687
  0.699   0.710   0.729   0.740   0.751   0.757   0.774   0.790
  0.801   0.808   0.814   0.825   0.873   0.905   0.923   0.934
  0.983   0.995   1.033   1.044   1.047   1.082   1.093   1.110
  1.164   1.234   1.267   1.327   1.392   1.415   1.477   1.488
  1.505   1.553   1.588   1.647   1.689   1.698   1.782   1.806
  1.866   1.913   1.927   1.975   1.979   2.025   2.087   2.129
  2.153   2.165   2.189   2.231   2.311   2.354   2.363   2.374
  2.405   2.421   2.454   2.467   2.488   2.506   2.519   2.546
  2.566   2.578   2.598   2.621   2.644   2.688   2.724   2.773
  2.804   2.825   2.875   2.999   3.044   3.095   3.271   3.334
  3.374   3.530   3.553   3.652   4.182   4.446   4.458   4.601
  4.618   4.662   4.885
 --------------------------------------------------------------
 
          Ground-State Mulliken Net Atomic Charges

     Atom                 Charge (a.u.)    Spin (a.u.)
  --------------------------------------------------------
      1 C                    -0.290041       0.110728
      2 C                    -0.050423      -0.155441
      3 C                    -0.155762       0.978457
      4 C                    -0.024580      -0.113272
      5 C                    -0.058225       0.053069
      6 N                    -0.169256       0.037674
      7 H                     0.144375       0.003073
      8 H                     0.139084       0.005432
      9 H                     0.129745      -0.020424
     10 H                     0.134605       0.024722
     11 H                     0.131444       0.000949
     12 C                    -0.063469       0.075017
     13 H                     0.132505       0.000018
  --------------------------------------------------------
  Sum of atomic charges =    -0.000000
  Sum of spin   charges =     1.000000

 -----------------------------------------------------------------
                    Cartesian Multipole Moments
 -----------------------------------------------------------------
    Charge (ESU x 10^10)
                 0.0000
    Dipole Moment (Debye)
         X      -1.1673      Y      -1.5363      Z       1.1191
       Tot       2.2305
    Quadrupole Moments (Debye-Ang)
        XX     -39.2590     XY      -5.3603     YY     -44.8820
        XZ       2.6623     YZ       1.3262     ZZ     -40.9780
    Octopole Moments (Debye-Ang^2)
       XXX      -6.2351    XXY      -6.7678    XYY      -8.0049
       YYY     -20.6505    XXZ       4.6816    XYZ       2.8562
       YYZ       1.6909    XZZ      -6.1850    YZZ      -8.7054
       ZZZ      10.3966
    Hexadecapole Moments (Debye-Ang^3)
      XXXX    -232.6043   XXXY     -11.8251   XXYY     -96.7429
      XYYY     -30.0443   YYYY    -322.2147   XXXZ      -8.1647
      XXYZ       7.7890   XYYZ       4.0632   YYYZ      17.3476
      XXZZ     -67.8109   XYZZ      -3.8246   YYZZ     -78.4743
      XZZZ      -6.6864   YZZZ      15.6993   ZZZZ    -151.6550
 -----------------------------------------------------------------
Archival summary:
1\1\c8-66\SP\ProcedureUnspecified\6-31+G**\166(2)\hpark21\ThuMar317:02:022022ThuMar317:02:022022\0\\#,ProcedureUnspecified,6-31+G**,\\0,2\N\C,1,1.28568\H,2,1.08785,1,121.84\C,1,1.43977,2,106.53,3,-175.465,0\H,4,1.08429,1,117.668,2,-165.66,0\C,4,1.4857,1,112.193,2,-16.5263,0\H,6,1.08557,4,128.812,1,-128.572,0\C,2,1.52361,1,113.42,3,171.804,0\H,8,1.09141,2,117.696,1,156.295,0\C,8,1.52697,2,104.445,1,-68.697,0\H,10,1.08677,8,130.739,2,-72.7495,0\C,10,1.45585,8,92.3756,2,85.5441,0\H,12,1.08479,10,128.755,8,161.925,0\\\@

 Total job time:  191.39s(wall), 187.34s(cpu) 
 Thu Mar  3 17:02:02 2022

        *************************************************************
        *                                                           *
        *  Thank you very much for using Q-Chem.  Have a nice day.  *
        *                                                           *
        *************************************************************


