
Running Job 1 of 1 qcfsm.in
qchem qcfsm.in_9278.0 ./qcfsm.d/ 1
/home/leeping/opt/qchem/5.0.2-openmp/exe/qcprog.exe_s qcfsm.in_9278.0 ./qcfsm.d/
Check license passed

                  Welcome to Q-Chem
     A Quantum Leap Into The Future Of Chemistry


 Q-Chem 5.0, Q-Chem, Inc., Pleasanton, CA (2017)

 Yihan Shao,  Zhengting Gan,  E. Epifanovsky,  A. T. B. Gilbert,  M. Wormit,  
 J. Kussmann,  A. W. Lange,  A. Behn,  Jia Deng,  Xintian Feng,  D. Ghosh,  
 M. Goldey,  P. R. Horn,  L. D. Jacobson,  I. Kaliman,  T. Kus,  A. Landau,  
 Jie Liu,  E. I. Proynov,  R. M. Richard,  R. P. Steele,  E. J. Sundstrom,  
 H. L. Woodcock III,  P. M. Zimmerman,  D. Zuev,  B. Albrecht,  E. Alguire,  
 S. A. Baeppler,  D. Barton,  Z. Benda,  Y. A. Bernard,  E. J. Berquist,  
 K. B. Bravaya,  H. Burton,  D. Casanova,  Chun-Min Chang,  Yunqing Chen,  
 A. Chien,  K. D. Closser,  M. P. Coons,  S. Dasgupta,  A. L. Dempwolff,  
 M. Diedenhofen,  Hainam Do,  R. G. Edgar,  Po-Tung Fang,  S. Fatehi,  
 Qingguo Feng,  J. Fosso-Tande,  Qinghui Ge,  A. Ghysels,  G. Gidofalvi,  
 J. Gomes,  J. Gonthier,  A. Gunina,  M. W. D. Hanson-Heine,  
 P. H. P. Harbach,  A. W. Hauser,  J. E. Herr,  E. G. Hohenstein,  
 Z. C. Holden,  Kerwin Hui,  T.-C. Jagau,  Hyunjun Ji,  B. Kaduk,  
 K. Khistyaev,  Jaehoon Kim,  P. Klunzinger,  K. Koh,  D. Kosenkov,  
 L. Koulias,  T. Kowalczyk,  C. M. Krauter,  A. Kunitsa,  Ka Un Lao,  
 A. Laurent,  K. V. Lawler,  Joonho Lee,  D. Lefrancois,  S. Lehtola,  
 D. S. Levine,  Yi-Pei Li,  You-Sheng Lin,  Fenglai Liu,  E. Livshits,  
 A. Luenser,  P. Manohar,  E. Mansoor,  S. F. Manzer,  Shan-Ping Mao,  
 Yuezhi Mao,  N. Mardirossian,  A. V. Marenich,  T. Markovich,  
 L. A. Martinez-Martinez,  S. A. Maurer,  N. J. Mayhall,  S. C. McKenzie,  
 J.-M. Mewes,  A. F. Morrison,  J. W. Mullinax,  K. Nanda,  
 T. S. Nguyen-Beck,  R. Olivares-Amaya,  J. A. Parkhill,  T. M. Perrine,  
 F. Plasser,  S. Prager,  A. Prociuk,  E. Ramos,  D. R. Rehn,  F. Rob,  
 M. Schneider,  N. Sergueev,  S. M. Sharada,  S. Sharma,  D. W. Small,  
 T. Stauch,  T. Stein,  Yu-Chuan Su,  A. J. W. Thom,  A. Tkatchenko,  
 T. Tsuchimochi,  L. Vogt,  O. Vydrov,  M. A. Watson,  J. Wenzel,  
 M. de Wergifosse,  T. A. Wesolowski,  A. White,  J. Witte,  A. Yamada,  
 Jun Yang,  K. Yao,  S. Yeganeh,  S. R. Yost,  Zhi-Qiang You,  A. Zech,  
 Igor Ying Zhang,  Xing Zhang,  Yan Zhao,  Ying Zhu,  B. R. Brooks,  
 G. K. L. Chan,  C. J. Cramer,  M. S. Gordon,  W. J. Hehre,  A. Klamt,  
 M. W. Schmidt,  C. D. Sherrill,  D. G. Truhlar,  A. Aspuru-Guzik,  R. Baer,  
 A. T. Bell,  N. A. Besley,  Jeng-Da Chai,  R. A. DiStasio Jr.,  A. Dreuw,  
 B. D. Dunietz,  T. R. Furlani,  Chao-Ping Hsu,  Yousung Jung,  Jing Kong,  
 D. S. Lambrecht,  WanZhen Liang,  C. Ochsenfeld,  V. A. Rassolov,  
 L. V. Slipchenko,  J. E. Subotnik,  T. Van Voorhis,  J. M. Herbert,  
 A. I. Krylov,  P. M. W. Gill,  M. Head-Gordon

 Contributors to earlier versions of Q-Chem not listed above: 
 R. D. Adamson,  B. Austin,  J. Baker,  G. J. O. Beran,  K. Brandhorst,  
 S. T. Brown,  E. F. C. Byrd,  A. K. Chakraborty,  C.-L. Cheng,  
 Siu Hung Chien,  D. M. Chipman,  D. L. Crittenden,  H. Dachsel,  
 R. J. Doerksen,  A. D. Dutoi,  L. Fusti-Molnar,  W. A. Goddard III,  
 A. Golubeva-Zadorozhnaya,  S. R. Gwaltney,  G. Hawkins,  A. Heyden,  
 S. Hirata,  G. Kedziora,  F. J. Keil,  C. Kelley,  Jihan Kim,  R. A. King,  
 R. Z. Khaliullin,  P. P. Korambath,  W. Kurlancheek,  A. M. Lee,  M. S. Lee,  
 S. V. Levchenko,  Ching Yeh Lin,  D. Liotard,  R. C. Lochan,  I. Lotan,  
 P. E. Maslen,  N. Nair,  D. P. O'Neill,  D. Neuhauser,  E. Neuscamman,  
 C. M. Oana,  R. Olson,  B. Peters,  R. Peverati,  P. A. Pieniazek,  
 Y. M. Rhee,  J. Ritchie,  M. A. Rohrdanz,  E. Rosta,  N. J. Russ,  
 H. F. Schaefer III,  N. E. Schultz,  N. Shenvi,  A. C. Simmonett,  A. Sodt,  
 D. Stuck,  K. S. Thanthiriwatte,  V. Vanovschi,  Tao Wang,  A. Warshel,  
 C. F. Williams,  Q. Wu,  X. Xu,  W. Zhang

 Please cite Q-Chem as follows:
 Y. Shao et al., Mol. Phys. 113, 184-215 (2015)
 DOI: 10.1080/00268976.2014.952696

 Q-Chem 5.0.2 for Intel X86 EM64T Linux

 Parts of Q-Chem use Armadillo 5.200.1 (Boston Tea Smuggler).
 http://arma.sourceforge.net/

 Q-Chem begins on Thu Mar  3 14:28:19 2022  

Host: 
0

     Scratch files written to ./qcfsm.d//
 Dec517 15110_ 26548  26544 5633   
Processing $rem in /home/leeping/opt/qchem/5.0.2-openmp/config/preferences.
 MEM_STATIC 2000
 MEM_TOTAL  8000
 SYMMETRY   OFF
 SYM_IGNORE TRUE 
 Now reading second FSM geometry

Checking the input file for inconsistencies... 	...done.

--------------------------------------------------------------
User input:
--------------------------------------------------------------
$molecule
0 2
C        1.3119832026    0.3024639842    0.2418450666
C        0.6067813895   -1.0007324541   -0.1827277502
C       -0.6879962090   -0.4652710104   -0.8442673523
C       -1.0782594737    0.1910344549    0.4506508298
C       -0.5191779217    1.0594042307   -0.6924931429
N        0.8290508102    1.4231658196   -0.4713972156
H        2.3485696173    0.2892655803    0.5603271077
H        1.1221951757   -1.9351789616   -0.3745474573
H       -1.2950975532   -0.9364177124   -1.6091722852
H       -2.0524462796    0.3360300536    0.9040256583
H       -1.1654104444    1.7420801816   -1.2331782202
C        0.2167898071   -0.3445443101    1.1121710373
H        0.3630178796   -0.6612998559    2.1387637239
****
C        1.5352298992    0.3455464336   -0.6174311162
C        1.1739543799   -0.9592461281   -0.3358050316
C       -0.0768555452   -1.4427270681    0.1897675599
C       -1.3056556612    0.7329186614    0.4109571775
C       -0.3749832816    1.6478911158   -0.0425738178
N        0.8920149141    1.5303482886   -0.5070899948
H        2.5466547899    0.4651951944   -1.0123050314
H        1.9324592649   -1.7113823214   -0.5388658439
H       -0.1454627912   -2.5190147030    0.3350271403
H       -2.2596542499    1.1495051515    0.7253365236
H       -0.7106204863    2.6872230759   -0.0313349639
C       -1.1696661591   -0.6977023088    0.5190041393
H       -2.0374150735   -1.2285553917    0.9053132591
$end

$rem
method                b3lyp
basis                 6-31g(d)
unrestricted          true
symmetry              off
sym_ignore            true
incdft                false
incfock               0
scf_convergence       8
thresh                14
jobtype               fsm
scf_guess             core
scf_guess_mix         5
scf_algorithm         diis
max_scf_cycles        100
fsm_nnode             21
fsm_ngrad             6
fsm_mode              2
fsm_opt_mode          2
$end

--------------------------------------------------------------
 ----------------------------------------------------------------
             Standard Nuclear Orientation (Angstroms)
    I     Atom           X                Y                Z
 ----------------------------------------------------------------
    1      C       1.3119832026     0.3024639842     0.2418450666
    2      C       0.6067813895    -1.0007324541    -0.1827277502
    3      C      -0.6879962090    -0.4652710104    -0.8442673523
    4      C      -1.0782594737     0.1910344549     0.4506508298
    5      C      -0.5191779217     1.0594042307    -0.6924931429
    6      N       0.8290508102     1.4231658196    -0.4713972156
    7      H       2.3485696173     0.2892655803     0.5603271077
    8      H       1.1221951757    -1.9351789616    -0.3745474573
    9      H      -1.2950975532    -0.9364177124    -1.6091722852
   10      H      -2.0524462796     0.3360300536     0.9040256583
   11      H      -1.1654104444     1.7420801816    -1.2331782202
   12      C       0.2167898071    -0.3445443101     1.1121710373
   13      H       0.3630178796    -0.6612998559     2.1387637239
 ----------------------------------------------------------------
 Nuclear Repulsion Energy =   288.0352975847 hartrees
 There are       25 alpha and       24 beta electrons
 Requested basis set is 6-31G(d)
 There are 40 shells and 117 basis functions

 Total QAlloc Memory Limit   8000 MB
 Mega-Array Size      1956 MB
 MEM_STATIC part      2000 MB
 beginning FSman 

*******************************************
*******************************************
******** Starting FSM Calculation *********
*******************************************
*******************************************
-FSM parameters:
 Maximum displacement of each coordinate during optimization (Angstrom)      0.05
 Maximum optimization steps for each new node                                6
 The scaling factor for optimization (hartrees/Angstrom^2)                   1.75
 The number of LST interpolations used for reparameterization                100
-Aligning product structure to maximum coincidence with the reactant structure
 Total R --> P Distance 5.371833
 New node interpolation distace (Angstroms): 0.26
-Performing force calculation on reactant structure in state:0
 ----------------------------------------------------------------
             Standard Nuclear Orientation (Angstroms)
    I     Atom           X                Y                Z
 ----------------------------------------------------------------
    1      C       1.3119832026     0.3024639842     0.2418450666
    2      C       0.6067813895    -1.0007324541    -0.1827277502
    3      C      -0.6879962090    -0.4652710104    -0.8442673523
    4      C      -1.0782594737     0.1910344549     0.4506508298
    5      C      -0.5191779217     1.0594042307    -0.6924931429
    6      N       0.8290508102     1.4231658196    -0.4713972156
    7      H       2.3485696173     0.2892655803     0.5603271077
    8      H       1.1221951757    -1.9351789616    -0.3745474573
    9      H      -1.2950975532    -0.9364177124    -1.6091722852
   10      H      -2.0524462796     0.3360300536     0.9040256583
   11      H      -1.1654104444     1.7420801816    -1.2331782202
   12      C       0.2167898071    -0.3445443101     1.1121710373
   13      H       0.3630178796    -0.6612998559     2.1387637239
 ----------------------------------------------------------------
 Nuclear Repulsion Energy =   288.0352975847 hartrees
 There are       25 alpha and       24 beta electrons

                       Distance Matrix (Angstroms)
             C (  1)   C (  2)   C (  3)   C (  4)   C (  5)   N (  6)
   C (  2)  1.541393
   C (  3)  2.401869  1.549452
   C (  4)  2.401932  2.158898  1.503282
   C (  5)  2.190684  2.402459  1.541483  1.540590
   N (  6)  1.413475  2.451126  2.450848  2.450745  1.413834
   H (  7)  1.084489  2.291299  3.429715  3.429991  3.222832  2.158500
   H (  8)  2.328735  1.084268  2.378667  3.169185  3.429683  3.372505
   H (  9)  3.428989  2.378240  1.084265  2.358185  2.329304  3.372562
   H ( 10)  3.429139  3.168510  2.358036  1.084257  2.328745  3.372933
   H ( 11)  3.222680  3.430325  2.291632  2.290986  1.084437  2.158678
   C ( 12)  1.541277  1.503143  2.158903  1.549712  2.401985  2.450990
   H ( 13)  2.329737  2.358804  3.168838  2.377705  3.428572  3.372703
             H (  7)   H (  8)   H (  9)   H ( 10)   H ( 11)   C ( 12)
   H (  8)  2.706684
   H (  9)  4.414220  2.892253
   H ( 10)  4.414664  4.107492  2.916996
   H ( 11)  4.204211  4.415045  2.707867  2.707665
   C ( 12)  2.291448  2.358010  3.168884  2.378222  3.430035
   H ( 13)  2.708773  2.918193  4.107561  2.890279  4.413878  1.084255

 
 Requested basis set is 6-31G(d)
 There are 40 shells and 117 basis functions
 A cutoff of  1.0D-14 yielded    812 shell pairs
 There are      7084 function pairs
 
 -------------------------------------------------------
 OpenMP Integral Computing Module                       
 Release: version 1.0, May 2013, Q-Chem Inc. Pittsburgh 
 -------------------------------------------------------
 Integral Job Info:
 Integral job number is                      11
 Integral operator is                         1
 short-range coefficients                     0
 long-range coefficients              100000000
 Omega coefficients                           0
 if combine SR and LR in K                    0
 Integral screening is                        0
 Integral computing path is                   2
 max size of driver memory is            800000
 size of driver memory is                593474
 size of scratch memory is              2361544
 max col of scratch BK array               1296
 max len of scratch array in speh3          155
 max len of scratch index in speh4           18
 max int batch size is                      520
 min int batch size is                       52
 fixed nKL is                                52
 max L of basis functions is                  2
 order of int derivative is                   0
 number of shells is                         40
 number of basis is                         117
 number of cartesian basis is               117
 number of contracted shell pairs           812
 number of primitive shell pairs           3655
 maxK2 (contraction) of shell pair           36
 max number of K2 of shell pair               1
 max number of CS2 of shell pair             84
 max number of PS2 of shell pair            402
 mem total for path MDJ                  535308
 -------------------------------------------------------
 Smallest overlap matrix eigenvalue = 1.00E-03

 Scale SEOQF with 1.000000e-01/1.000000e-01/1.000000e-01

 Standard Electronic Orientation quadrupole field applied
 Nucleus-field energy     =     0.0000000013 hartrees
 Guess MOs from core Hamiltonian diagonalization
 Mixing HOMO and LUMO in initial guess
 Adding  50% of the LUMO to the HOMO
 An unrestricted hybrid HF-DFT SCF calculation will be
 performed using Pulay DIIS extrapolation
 Exchange:     0.2000 Hartree-Fock + 0.0800 Slater + 0.7200 B88
 Correlation:  0.1900 VWN1RPA + 0.8100 LYP
 Using SG-1 standard quadrature grid
 SCF converges when DIIS error is below 1.0E-08
 using 4 threads for integral computing
 -------------------------------------------------------
 OpenMP Integral computing Module                
 Release: version 1.0, May 2013, Q-Chem Inc. Pittsburgh 
 -------------------------------------------------------
 -------------------------------------------------------
 OpenMP BLAS3 based DFT computing Module                
 Release: version 1.0, May 2013, Q-Chem Inc. Pittsburgh 
 -------------------------------------------------------
 ---------------------------------------
  Cycle       Energy         DIIS Error
 ---------------------------------------
    1    -239.7213942592      1.31E-01
    2    -233.1206881935      1.03E-01
    3    -266.5355850931      9.24E-02
    4    -280.1361177490      6.26E-02
    5    -283.9437031086      3.96E-02
    6    -286.1870723644      1.62E-02
    7    -286.7960447245      3.66E-03
    8    -286.8141101528      2.41E-03
    9    -286.8241897734      5.37E-04
   10    -286.8249000568      9.89E-05
   11    -286.8249439801      4.18E-05
   12    -286.8249528528      2.09E-05
   13    -286.8249552249      6.10E-06
   14    -286.8249555624      3.30E-06
   15    -286.8249556852      1.78E-06
   16    -286.8249557133      5.73E-07
   17    -286.8249557158      3.51E-07
   18    -286.8249557163      1.20E-07
   19    -286.8249557164      2.39E-08
   20    -286.8249557164      5.82E-09 Convergence criterion met
 ---------------------------------------
 <S^2> = 0.7558
 SCF time:  CPU 48.97 s  wall 13.70 s
 SCF   energy in the final basis set = -286.82495572
 Total energy in the final basis set = -286.82495572
 
 --------------------------------------------------------------
 
                    Orbital Energies (a.u.)
 --------------------------------------------------------------
 
 Alpha MOs
 -- Occupied --
-14.335 -10.215 -10.215 -10.207 -10.207 -10.207 -10.206  -0.986
 -0.837  -0.793  -0.649  -0.588  -0.574  -0.542  -0.533  -0.455
 -0.427  -0.415  -0.395  -0.384  -0.337  -0.275  -0.274  -0.248
 -0.212
 -- Virtual --
  0.090   0.094   0.117   0.147   0.150   0.156   0.167   0.180
  0.184   0.197   0.217   0.251   0.255   0.302   0.364   0.378
  0.477   0.520   0.537   0.541   0.561   0.565   0.574   0.608
  0.621   0.630   0.676   0.728   0.729   0.742   0.743   0.781
  0.786   0.801   0.828   0.831   0.848   0.856   0.918   0.938
  0.983   1.005   1.137   1.161   1.195   1.235   1.399   1.455
  1.490   1.538   1.622   1.630   1.653   1.658   1.667   1.691
  1.754   1.824   1.854   1.942   1.968   1.974   1.978   1.984
  2.043   2.128   2.134   2.242   2.273   2.404   2.412   2.489
  2.517   2.522   2.536   2.560   2.570   2.638   2.710   2.719
  2.757   2.769   2.837   2.881   2.932   3.847   4.233   4.317
  4.370   4.460   4.639   4.673
 
 Beta MOs
 -- Occupied --
-14.319 -10.217 -10.216 -10.205 -10.205 -10.205 -10.205  -0.976
 -0.812  -0.789  -0.644  -0.585  -0.568  -0.537  -0.529  -0.453
 -0.423  -0.392  -0.390  -0.378  -0.322  -0.269  -0.257  -0.244
 -- Virtual --
 -0.078   0.091   0.101   0.120   0.147   0.152   0.157   0.176
  0.182   0.188   0.202   0.225   0.259   0.259   0.302   0.367
  0.384   0.479   0.522   0.540   0.542   0.568   0.568   0.576
  0.613   0.621   0.639   0.679   0.732   0.733   0.743   0.782
  0.787   0.794   0.801   0.830   0.839   0.849   0.857   0.919
  0.944   1.003   1.007   1.140   1.164   1.205   1.236   1.401
  1.474   1.507   1.541   1.626   1.634   1.658   1.660   1.691
  1.696   1.759   1.827   1.858   1.946   1.970   1.979   1.982
  1.987   2.058   2.130   2.156   2.247   2.282   2.403   2.431
  2.502   2.523   2.529   2.541   2.565   2.603   2.639   2.714
  2.720   2.761   2.772   2.839   2.887   2.937   3.873   4.239
  4.320   4.369   4.462   4.641   4.676
 --------------------------------------------------------------
 
          Ground-State Mulliken Net Atomic Charges

     Atom                 Charge (a.u.)    Spin (a.u.)
  --------------------------------------------------------
      1 C                    -0.044699      -0.080431
      2 C                    -0.124694       0.089486
      3 C                    -0.124936       0.089558
      4 C                    -0.124617       0.088872
      5 C                    -0.044896      -0.080279
      6 N                    -0.285847       0.811145
      7 H                     0.149304       0.001046
      8 H                     0.144001      -0.002501
      9 H                     0.144002      -0.002518
     10 H                     0.143991      -0.002466
     11 H                     0.149343       0.001045
     12 C                    -0.124888       0.089531
     13 H                     0.143935      -0.002489
  --------------------------------------------------------
  Sum of atomic charges =    -0.000000
  Sum of spin   charges =     1.000000

 -----------------------------------------------------------------
                    Cartesian Multipole Moments
 -----------------------------------------------------------------
    Charge (ESU x 10^10)
                 0.0000
    Dipole Moment (Debye)
         X      -1.1245      Y      -1.9293      Z       0.6400
       Tot       2.3230
    Quadrupole Moments (Debye-Ang)
        XX     -37.9741     XY      -3.8519     YY     -43.4382
        XZ       2.4113     YZ       0.8314     ZZ     -39.2036
    Octopole Moments (Debye-Ang^2)
       XXX      -9.6421    XXY      -7.2178    XYY      -7.9037
       YYY     -25.6953    XXZ       4.0781    XYZ       1.8938
       YYZ       1.0248    XZZ      -6.2104    YZZ      -7.8484
       ZZZ       8.4052
    Hexadecapole Moments (Debye-Ang^3)
      XXXX    -228.2139   XXXY      -6.0751   XXYY     -80.8906
      XYYY     -18.0767   YYYY    -233.4474   XXXZ     -10.2281
      XXYZ       8.8596   XYYZ       1.2372   YYYZ      23.1338
      XXZZ     -66.7899   XYZZ      -2.7097   YYZZ     -64.7968
      XZZZ     -10.3884   YZZZ      17.0355   ZZZZ    -165.4204
 -----------------------------------------------------------------
 Calculating analytic gradient of the SCF energy
 Gradient of SCF Energy
            1           2           3           4           5           6
    1   0.0000268  -0.0002344   0.0000518  -0.0000400   0.0000276  -0.0000023
    2   0.0001348  -0.0001318   0.0000224  -0.0000399   0.0000660  -0.0000676
    3  -0.0000511   0.0000280  -0.0000286  -0.0000807   0.0000355   0.0000301
            7           8           9          10          11          12
    1   0.0000003   0.0000677   0.0000135  -0.0000009  -0.0000019   0.0001825
    2  -0.0000236   0.0000283  -0.0000046  -0.0000230  -0.0000099   0.0000021
    3   0.0000017   0.0000493  -0.0000101   0.0000037  -0.0000120   0.0000014
           13
    1  -0.0000906
    2   0.0000468
    3   0.0000329
 Max gradient component =       2.344E-04
 RMS gradient           =       6.687E-05
 Gradient time:  CPU 7.78 s  wall 1.99 s
-Performing force calculation on product structure in state0
 ----------------------------------------------------------------
             Standard Nuclear Orientation (Angstroms)
    I     Atom           X                Y                Z
 ----------------------------------------------------------------
    1      C       1.5351516574     0.3456120171    -0.6175889303
    2      C       1.1739511053    -0.9591988499    -0.3359514970
    3      C      -0.0767857354    -1.4427336979     0.1897454148
    4      C      -1.3056365538     0.7328652898     0.4111130354
    5      C      -0.3750442840     1.6478791708    -0.0424987578
    6      N       0.8919079733     1.5303895197    -0.5071536646
    7      H       2.5465299791     0.4653037343    -1.0125690915
    8      H       1.9324599021    -1.7113047893    -0.5391097321
    9      H      -0.1453405057    -2.5190267424     0.3349896871
   10      H      -2.2596155920     1.1494124858     0.7256037547
   11      H      -0.7107158663     2.6871993997    -0.0312019025
   12      C      -1.1695864463    -0.6977532994     0.5191152181
   13      H      -2.0372756334    -1.2286442380     0.9055064656
 ----------------------------------------------------------------
 Nuclear Repulsion Energy =   260.7278079408 hartrees
 There are       25 alpha and       24 beta electrons

                       Distance Matrix (Angstroms)
             C (  1)   C (  2)   C (  3)   C (  4)   C (  5)   N (  6)
   C (  2)  1.382865
   C (  3)  2.539353  1.440314
   C (  4)  3.046025  3.093468  2.508448
   C (  5)  2.382326  3.046696  3.113645  1.381671
   N (  6)  1.352648  2.511356  3.203669  2.511665  1.354576
   H (  7)  1.092347  2.090692  3.459473  4.115537  3.297744  2.031656
   H (  8)  2.096406  1.087323  2.154165  4.166792  4.105522  3.404754
   H (  9)  3.455085  2.150292  1.088211  3.453532  4.190270  4.264137
   H ( 10)  4.104939  4.166836  3.430905  1.087424  2.095247  3.405427
   H ( 11)  3.297090  4.115952  4.184141  2.090214  1.092241  2.033013
   C ( 12)  3.113891  2.508318  1.362972  1.441126  2.539429  3.204311
   H ( 13)  4.190506  3.453375  2.098015  2.151102  3.454868  4.264738
             H (  7)   H (  8)   H (  9)   H ( 10)   H ( 11)   C ( 12)
   H (  8)  2.310600
   H (  9)  4.238904  2.394519
   H ( 10)  5.156383  5.230363  4.252080
   H ( 11)  4.063195  5.156664  5.249622  2.310116
   C ( 12)  4.184290  3.430717  2.097622  2.154721  3.459959
   H ( 13)  5.249738  4.251903  2.360084  2.395194  4.239223  1.088130

 
 Applying Cartesian multipole field
    Component          Value
    ---------          -----
     (2,0,0)        1.00000E-11
     (0,2,0)        2.00000E-11
     (0,0,2)       -3.00000E-11
 Nucleus-field energy     =     0.0000000068 hartrees
 Requested basis set is 6-31G(d)
 There are 40 shells and 117 basis functions
 A cutoff of  1.0D-14 yielded    791 shell pairs
 There are      7063 function pairs
 Smallest overlap matrix eigenvalue = 1.33E-03
 Guess MOs from core Hamiltonian diagonalization
 Mixing HOMO and LUMO in initial guess
 Adding  50% of the LUMO to the HOMO
 An unrestricted hybrid HF-DFT SCF calculation will be
 performed using Pulay DIIS extrapolation
 Exchange:     0.2000 Hartree-Fock + 0.0800 Slater + 0.7200 B88
 Correlation:  0.1900 VWN1RPA + 0.8100 LYP
 Using SG-1 standard quadrature grid
 SCF converges when DIIS error is below 1.0E-08
 using 4 threads for integral computing
 -------------------------------------------------------
 OpenMP Integral computing Module                
 Release: version 1.0, May 2013, Q-Chem Inc. Pittsburgh 
 -------------------------------------------------------
 -------------------------------------------------------
 OpenMP BLAS3 based DFT computing Module                
 Release: version 1.0, May 2013, Q-Chem Inc. Pittsburgh 
 -------------------------------------------------------
 ---------------------------------------
  Cycle       Energy         DIIS Error
 ---------------------------------------
    1    -239.4882321180      1.26E-01
    2    -227.8993346028      1.03E-01
    3    -250.2573682163      1.03E-01
    4    -281.9166596678      4.85E-02
    5    -282.4523382504      4.74E-02
    6    -285.5297200282      2.31E-02
    7    -286.6136718979      1.25E-02
    8    -286.8607635233      4.94E-03
    9    -286.9210476455      8.95E-04
   10    -286.9229951688      7.34E-04
   11    -286.9240052762      1.81E-04
   12    -286.9242084548      7.84E-05
   13    -286.9243281748      2.04E-05
   14    -286.9243439923      1.38E-05
   15    -286.9243502244      4.86E-06
   16    -286.9243518249      3.05E-06
   17    -286.9243524406      6.71E-07
   18    -286.9243524757      2.52E-07
   19    -286.9243524791      1.22E-07
   20    -286.9243524796      5.42E-08
   21    -286.9243524797      3.50E-08
   22    -286.9243524797      1.81E-08
   23    -286.9243524798      4.68E-09 Convergence criterion met
 ---------------------------------------
 <S^2> = 0.7684
 SCF time:  CPU 54.34 s  wall 14.96 s
 SCF   energy in the final basis set = -286.92435248
 Total energy in the final basis set = -286.92435248
 
 --------------------------------------------------------------
 
                    Orbital Energies (a.u.)
 --------------------------------------------------------------
 
 Alpha MOs
 -- Occupied --
-14.322 -10.232 -10.232 -10.212 -10.211 -10.201 -10.200  -0.922
 -0.818  -0.784  -0.693  -0.667  -0.551  -0.537  -0.518  -0.449
 -0.439  -0.414  -0.394  -0.386  -0.349  -0.322  -0.299  -0.251
 -0.162
 -- Virtual --
 -0.072   0.077   0.097   0.101   0.117   0.142   0.181   0.184
  0.193   0.213   0.266   0.320   0.356   0.390   0.412   0.483
  0.496   0.521   0.547   0.576   0.584   0.587   0.591   0.610
  0.619   0.624   0.646   0.658   0.714   0.718   0.833   0.840
  0.847   0.854   0.868   0.872   0.885   0.922   0.965   0.975
  1.024   1.027   1.043   1.127   1.177   1.185   1.300   1.303
  1.326   1.401   1.429   1.480   1.482   1.546   1.574   1.586
  1.682   1.732   1.769   1.829   1.850   1.919   1.925   2.030
  2.046   2.048   2.100   2.141   2.142   2.191   2.247   2.391
  2.410   2.414   2.446   2.545   2.577   2.601   2.614   2.739
  2.749   2.808   3.052   3.249   3.250   4.018   4.046   4.102
  4.196   4.239   4.532   4.595
 
 Beta MOs
 -- Occupied --
-14.314 -10.234 -10.233 -10.210 -10.210 -10.196 -10.196  -0.911
 -0.809  -0.777  -0.681  -0.665  -0.546  -0.535  -0.514  -0.447
 -0.438  -0.411  -0.383  -0.373  -0.348  -0.295  -0.276  -0.241
 -- Virtual --
 -0.078  -0.070   0.078   0.118   0.124   0.125   0.142   0.182
  0.187   0.196   0.219   0.268   0.324   0.360   0.393   0.415
  0.486   0.504   0.525   0.551   0.587   0.588   0.592   0.596
  0.614   0.624   0.629   0.649   0.676   0.716   0.729   0.834
  0.843   0.846   0.869   0.875   0.880   0.887   0.925   0.967
  0.979   1.026   1.030   1.045   1.133   1.180   1.189   1.311
  1.315   1.333   1.411   1.429   1.489   1.492   1.560   1.582
  1.597   1.685   1.737   1.781   1.831   1.853   1.922   1.933
  2.036   2.058   2.061   2.110   2.141   2.147   2.203   2.259
  2.399   2.422   2.426   2.448   2.558   2.578   2.611   2.624
  2.743   2.761   2.810   3.054   3.252   3.254   4.030   4.053
  4.109   4.200   4.239   4.537   4.601
 --------------------------------------------------------------
 
          Ground-State Mulliken Net Atomic Charges

     Atom                 Charge (a.u.)    Spin (a.u.)
  --------------------------------------------------------
      1 C                     0.036231      -0.115088
      2 C                    -0.132051       0.351160
      3 C                    -0.110659       0.088443
      4 C                    -0.130807       0.342750
      5 C                     0.034751      -0.110079
      6 N                    -0.423331       0.386892
      7 H                     0.142567       0.003524
      8 H                     0.134300      -0.018527
      9 H                     0.141988      -0.006383
     10 H                     0.134390      -0.018138
     11 H                     0.142674       0.003276
     12 C                    -0.111970       0.099063
     13 H                     0.141916      -0.006891
  --------------------------------------------------------
  Sum of atomic charges =    -0.000000
  Sum of spin   charges =     1.000000

 -----------------------------------------------------------------
                    Cartesian Multipole Moments
 -----------------------------------------------------------------
    Charge (ESU x 10^10)
                -0.0000
    Dipole Moment (Debye)
         X      -1.0854      Y      -1.8641      Z       0.6169
       Tot       2.2435
    Quadrupole Moments (Debye-Ang)
        XX     -37.2934     XY      -3.5753     YY     -39.9510
        XZ      -1.8933     YZ       0.9722     ZZ     -42.7544
    Octopole Moments (Debye-Ang^2)
       XXX      -9.3425    XXY      -9.1149    XYY     -11.5918
       YYY     -26.2695    XXZ       2.3412    XYZ       2.5131
       YYZ       6.1805    XZZ      -3.4564    YZZ      -6.4675
       ZZZ       5.3441
    Hexadecapole Moments (Debye-Ang^3)
      XXXX    -339.2223   XXXY       0.7261   XXYY    -130.4177
      XYYY     -17.1015   YYYY    -396.7337   XXXZ      45.1356
      XXYZ       8.0205   XYYZ      21.2699   YYYZ      23.7462
      XXZZ     -74.5642   XYZZ       1.9669   YYZZ     -89.8129
      XZZZ      62.7291   YZZZ      19.4809   ZZZZ     -96.2418
 -----------------------------------------------------------------
 Calculating analytic gradient of the SCF energy
 Gradient of SCF Energy
            1           2           3           4           5           6
    1  -0.0000336  -0.0000166   0.0000169   0.0000346  -0.0001132   0.0001147
    2   0.0002310  -0.0001122   0.0000214   0.0000008   0.0000118  -0.0001342
    3   0.0000378   0.0000121   0.0000156   0.0000048  -0.0000519  -0.0000074
            7           8           9          10          11          12
    1   0.0000079  -0.0000034   0.0000043   0.0000016   0.0000079  -0.0000154
    2  -0.0000157   0.0000078  -0.0000060   0.0000113   0.0000070  -0.0000170
    3  -0.0000208  -0.0000122  -0.0000086   0.0000119   0.0000324   0.0000067
           13
    1  -0.0000056
    2  -0.0000060
    3  -0.0000205
 Max gradient component =       2.310E-04
 RMS gradient           =       5.583E-05
 Gradient time:  CPU 7.40 s  wall 1.89 s

STARTING FREEZING STRING ITERATION # 1
 The distance between the innermost nodes (Angstroms): 5.372
-Adding two new nodes
 The distance between the previous and current R_nodes (Angstroms): 0.2658
 The distance between the previous and current P_nodes (Angstroms): 0.2809
-Optimizing new reactant side node
 Using BFGS, step: 2 E_tol 0.0994
 max_steps 6, node_spacing 0.2558, sigma 0.7000
 ----------------------------------------------------------------
             Standard Nuclear Orientation (Angstroms)
    I     Atom           X                Y                Z
 ----------------------------------------------------------------
    1      C       1.3347920231     0.3038692094     0.2014845644
    2      C       0.6519935323    -1.0012359936    -0.2141546166
    3      C      -0.6723440833    -0.5257762354    -0.8313735581
    4      C      -1.0962031125     0.2389947940     0.4594135199
    5      C      -0.5214568343     1.0955434109    -0.6703700775
    6      N       0.8337895763     1.4328563941    -0.4772886948
    7      H       2.3806969369     0.2980109453     0.4890451082
    8      H       1.1813263757    -1.9286811806    -0.4023654847
    9      H      -1.2725208068    -1.0532500791    -1.5639995273
   10      H      -2.0717622420     0.3983341303     0.9052110647
   11      H      -1.1593126947     1.8039930133    -1.1877513618
   12      C       0.1547658019    -0.3632152720     1.1183533534
   13      H       0.2457768280    -0.7045255112     2.1432952526
 ----------------------------------------------------------------
 Nuclear Repulsion Energy =   284.8495123074 hartrees
 There are       25 alpha and       24 beta electrons

                       Distance Matrix (Angstroms)
             C (  1)   C (  2)   C (  3)   C (  4)   C (  5)   N (  6)
   C (  2)  1.530447
   C (  3)  2.404933  1.536519
   C (  4)  2.445501  2.246788  1.559058
   C (  5)  2.198304  2.445731  1.636266  1.529843
   N (  6)  1.409379  2.455014  2.496008  2.455115  1.409877
   H (  7)  1.084732  2.273972  3.426834  3.477527  3.225337  2.148161
   H (  8)  2.317858  1.084330  2.363955  3.260157  3.480981  3.380286
   H (  9)  3.428817  2.351285  1.084058  2.407319  2.445401  3.434852
   H ( 10)  3.479765  3.260463  2.414141  1.084362  2.317758  3.379907
   H ( 11)  3.225044  3.478222  2.406651  2.272962  1.084640  2.148245
   C ( 12)  1.636494  1.558808  2.124140  1.536809  2.405158  2.496602
   H ( 13)  2.444063  2.410523  3.118261  2.350872  3.427187  3.432437
             H (  7)   H (  8)   H (  9)   H ( 10)   H ( 11)   C ( 12)
   H (  8)  2.681653
   H (  9)  4.403056  2.852567
   H ( 10)  4.472991  4.208009  2.973699
   H ( 11)  4.196582  4.475297  2.884132  2.681219
   C ( 12)  2.405830  2.411866  3.115816  2.362798  3.426618
   H ( 13)  2.880886  2.975601  4.021302  2.849586  4.400320  1.084104

 
 Applying Cartesian multipole field
    Component          Value
    ---------          -----
     (2,0,0)        1.00000E-11
     (0,2,0)        2.00000E-11
     (0,0,2)       -3.00000E-11
 Nucleus-field energy     =     0.0000000015 hartrees
 Requested basis set is 6-31G(d)
 There are 40 shells and 117 basis functions
 A cutoff of  1.0D-14 yielded    812 shell pairs
 There are      7084 function pairs
 Smallest overlap matrix eigenvalue = 1.20E-03
 Guess MOs from core Hamiltonian diagonalization
 Mixing HOMO and LUMO in initial guess
 Adding  50% of the LUMO to the HOMO
 An unrestricted hybrid HF-DFT SCF calculation will be
 performed using Pulay DIIS extrapolation
 Exchange:     0.2000 Hartree-Fock + 0.0800 Slater + 0.7200 B88
 Correlation:  0.1900 VWN1RPA + 0.8100 LYP
 Using SG-1 standard quadrature grid
 SCF converges when DIIS error is below 1.0E-08
 using 4 threads for integral computing
 -------------------------------------------------------
 OpenMP Integral computing Module                
 Release: version 1.0, May 2013, Q-Chem Inc. Pittsburgh 
 -------------------------------------------------------
 -------------------------------------------------------
 OpenMP BLAS3 based DFT computing Module                
 Release: version 1.0, May 2013, Q-Chem Inc. Pittsburgh 
 -------------------------------------------------------
 ---------------------------------------
  Cycle       Energy         DIIS Error
 ---------------------------------------
    1    -240.2480538511      1.30E-01
    2    -233.4387626863      1.01E-01
    3    -263.9245646793      9.71E-02
    4    -283.0202912858      4.60E-02
    5    -283.9360244490      3.92E-02
    6    -286.2739305671      1.56E-02
    7    -286.7848753619      2.78E-03
    8    -286.7935607548      3.11E-03
    9    -286.8118180170      4.18E-04
   10    -286.8129955716      3.30E-04
   11    -286.8134357197      1.68E-04
   12    -286.8136016378      5.03E-05
   13    -286.8136217225      2.45E-05
   14    -286.8136248665      3.00E-06
   15    -286.8136253559      1.11E-06
   16    -286.8136255273      7.74E-07
   17    -286.8136255766      2.36E-07
   18    -286.8136255917      5.06E-08
   19    -286.8136255924      2.30E-08
   20    -286.8136255924      1.47E-08
   21    -286.8136255924      4.19E-09 Convergence criterion met
 ---------------------------------------
 <S^2> = 0.7587
 SCF time:  CPU 50.32 s  wall 13.34 s
 SCF   energy in the final basis set = -286.81362559
 Total energy in the final basis set = -286.81362559
 
 --------------------------------------------------------------
 
                    Orbital Energies (a.u.)
 --------------------------------------------------------------
 
 Alpha MOs
 -- Occupied --
-14.334 -10.220 -10.220 -10.216 -10.216 -10.208 -10.207  -0.973
 -0.832  -0.773  -0.655  -0.588  -0.572  -0.539  -0.530  -0.448
 -0.426  -0.417  -0.396  -0.379  -0.345  -0.277  -0.268  -0.240
 -0.206
 -- Virtual --
  0.075   0.092   0.124   0.128   0.151   0.156   0.157   0.173
  0.178   0.188   0.201   0.248   0.254   0.295   0.356   0.380
  0.487   0.515   0.524   0.535   0.544   0.559   0.583   0.597
  0.599   0.630   0.669   0.720   0.734   0.736   0.739   0.796
  0.797   0.804   0.827   0.828   0.853   0.854   0.925   0.931
  0.972   1.003   1.121   1.164   1.177   1.220   1.420   1.446
  1.477   1.533   1.550   1.577   1.621   1.645   1.683   1.720
  1.736   1.817   1.864   1.909   1.916   1.955   1.959   2.008
  2.058   2.120   2.137   2.215   2.236   2.361   2.397   2.459
  2.477   2.496   2.545   2.561   2.577   2.597   2.656   2.706
  2.727   2.738   2.826   2.853   2.922   3.844   4.211   4.305
  4.347   4.445   4.597   4.646
 
 Beta MOs
 -- Occupied --
-14.319 -10.221 -10.221 -10.213 -10.213 -10.207 -10.206  -0.961
 -0.809  -0.769  -0.649  -0.585  -0.566  -0.535  -0.526  -0.446
 -0.421  -0.398  -0.388  -0.373  -0.331  -0.268  -0.254  -0.227
 -- Virtual --
 -0.082   0.083   0.093   0.129   0.132   0.151   0.158   0.167
  0.176   0.180   0.193   0.209   0.254   0.261   0.296   0.359
  0.385   0.488   0.517   0.525   0.538   0.551   0.561   0.586
  0.600   0.602   0.639   0.672   0.724   0.738   0.739   0.778
  0.799   0.804   0.804   0.829   0.834   0.854   0.855   0.926
  0.937   0.993   1.005   1.125   1.166   1.187   1.221   1.422
  1.465   1.491   1.539   1.554   1.581   1.626   1.666   1.688
  1.723   1.743   1.823   1.868   1.915   1.921   1.957   1.963
  2.013   2.070   2.123   2.156   2.220   2.246   2.361   2.413
  2.468   2.489   2.502   2.557   2.566   2.600   2.603   2.660
  2.707   2.730   2.741   2.829   2.859   2.927   3.867   4.218
  4.308   4.347   4.447   4.600   4.649
 --------------------------------------------------------------
 
          Ground-State Mulliken Net Atomic Charges

     Atom                 Charge (a.u.)    Spin (a.u.)
  --------------------------------------------------------
      1 C                    -0.038444      -0.092305
      2 C                    -0.128871       0.050399
      3 C                    -0.129000       0.165187
      4 C                    -0.128869       0.049828
      5 C                    -0.038464      -0.092118
      6 N                    -0.286865       0.766093
      7 H                     0.148349       0.001438
      8 H                     0.146404      -0.000221
      9 H                     0.145015      -0.007597
     10 H                     0.146316      -0.000255
     11 H                     0.148377       0.001442
     12 C                    -0.128805       0.165746
     13 H                     0.144858      -0.007638
  --------------------------------------------------------
  Sum of atomic charges =     0.000000
  Sum of spin   charges =     1.000000

 -----------------------------------------------------------------
                    Cartesian Multipole Moments
 -----------------------------------------------------------------
    Charge (ESU x 10^10)
                 0.0000
    Dipole Moment (Debye)
         X      -1.1495      Y      -1.9723      Z       0.6583
       Tot       2.3759
    Quadrupole Moments (Debye-Ang)
        XX     -37.8930     XY      -4.0546     YY     -43.2425
        XZ       1.8863     YZ       0.9857     ZZ     -39.6901
    Octopole Moments (Debye-Ang^2)
       XXX      -9.1740    XXY      -7.2021    XYY      -8.3034
       YYY     -25.7509    XXZ       4.0615    XYZ       1.8055
       YYZ       0.7921    XZZ      -6.5724    YZZ      -8.4351
       ZZZ       9.5147
    Hexadecapole Moments (Debye-Ang^3)
      XXXX    -231.2848   XXXY      -6.1075   XXYY     -82.2549
      XYYY     -18.1178   YYYY    -241.3472   XXXZ      -7.3031
      XXYZ       9.1573   XYYZ       2.7891   YYYZ      22.4451
      XXZZ     -68.4177   XYZZ      -2.2295   YYZZ     -65.5380
      XZZZ      -8.0338   YZZZ      15.9394   ZZZZ    -165.6049
 -----------------------------------------------------------------
 Calculating analytic gradient of the SCF energy
 Gradient of SCF Energy
            1           2           3           4           5           6
    1   0.0134105   0.0196847   0.0132327  -0.0157210  -0.0008141   0.0029063
    2   0.0060934  -0.0155735  -0.0338862   0.0230919   0.0158331   0.0048113
    3  -0.0058483  -0.0288052  -0.0054230   0.0257068  -0.0012097  -0.0016549
            7           8           9          10          11          12
    1   0.0012843   0.0014061   0.0013585  -0.0000405   0.0004937  -0.0325757
    2   0.0000655   0.0003392  -0.0040205   0.0019215   0.0030310  -0.0005791
    3  -0.0042148  -0.0012092   0.0023219   0.0008034   0.0033749   0.0164922
           13
    1  -0.0046255
    2  -0.0011274
    3  -0.0003342
 Max gradient component =       3.389E-02
 RMS gradient           =       1.263E-02
 Gradient time:  CPU 7.80 s  wall 1.98 s
 ----------------------------------------------------------------
             Standard Nuclear Orientation (Angstroms)
    I     Atom           X                Y                Z
 ----------------------------------------------------------------
    1      C       1.3255819913     0.2985282142     0.2018098352
    2      C       0.6401043547    -0.9865574853    -0.1912529442
    3      C      -0.6825013378    -0.5029548180    -0.8236877456
    4      C      -1.0838324818     0.2244461844     0.4368616331
    5      C      -0.5207679594     1.0859243347    -0.6659644692
    6      N       0.8318950084     1.4297049176    -0.4761791513
    7      H       2.3841368992     0.2992762755     0.4831487193
    8      H       1.1885511144    -1.9276802978    -0.4051665382
    9      H      -1.2703125287    -1.0659893677    -1.5590186476
   10      H      -2.0740872348     0.4058143971     0.9049369910
   11      H      -1.1585302347     1.8100611245    -1.1841973860
   12      C       0.1761439451    -0.3656586703     1.1040348085
   13      H       0.2331577685    -0.7099954170     2.1441748277
 ----------------------------------------------------------------
 Nuclear Repulsion Energy =   286.9237732452 hartrees
 There are       25 alpha and       24 beta electrons

                       Distance Matrix (Angstroms)
             C (  1)   C (  2)   C (  3)   C (  4)   C (  5)   N (  6)
   C (  2)  1.508583
   C (  3)  2.392994  1.543739
   C (  4)  2.421986  2.198412  1.509690
   C (  5)  2.186786  2.422428  1.604859  1.508447
   N (  6)  1.408175  2.440551  2.479785  2.440554  1.408510
   H (  7)  1.095304  2.269325  3.428654  3.469085  3.221451  2.146540
   H (  8)  2.311537  1.110074  2.388690  3.241047  3.474421  3.377023
   H (  9)  3.420686  2.350912  1.096924  2.384017  2.447467  3.438067
   H ( 10)  3.473276  3.241476  2.398023  1.110222  2.311511  3.376472
   H ( 11)  3.221267  3.470173  2.388852  2.268829  1.095299  2.146568
   C ( 12)  1.605105  1.509485  2.114766  1.543011  2.392839  2.480003
   H ( 13)  2.446077  2.386695  3.112797  2.350013  3.419154  3.435558
             H (  7)   H (  8)   H (  9)   H ( 10)   H ( 11)   C ( 12)
   H (  8)  2.679154
   H (  9)  4.403339  2.849543
   H ( 10)  4.479399  4.219760  2.980493
   H ( 11)  4.196785  4.481784  2.902525  2.678551
   C ( 12)  2.388068  2.396366  3.110394  2.387122  3.427990
   H ( 13)  2.899025  2.982394  4.012580  2.846774  4.400630  1.097137

 
 Applying Cartesian multipole field
    Component          Value
    ---------          -----
     (2,0,0)        1.00000E-11
     (0,2,0)        2.00000E-11
     (0,0,2)       -3.00000E-11
 Nucleus-field energy     =     0.0000000015 hartrees
 Requested basis set is 6-31G(d)
 There are 40 shells and 117 basis functions
 A cutoff of  1.0D-14 yielded    812 shell pairs
 There are      7084 function pairs
 Smallest overlap matrix eigenvalue = 1.07E-03
 Guess MOs from core Hamiltonian diagonalization
 Mixing HOMO and LUMO in initial guess
 Adding  50% of the LUMO to the HOMO
 An unrestricted hybrid HF-DFT SCF calculation will be
 performed using Pulay DIIS extrapolation
 Exchange:     0.2000 Hartree-Fock + 0.0800 Slater + 0.7200 B88
 Correlation:  0.1900 VWN1RPA + 0.8100 LYP
 Using SG-1 standard quadrature grid
 SCF converges when DIIS error is below 1.0E-08
 using 4 threads for integral computing
 -------------------------------------------------------
 OpenMP Integral computing Module                
 Release: version 1.0, May 2013, Q-Chem Inc. Pittsburgh 
 -------------------------------------------------------
 -------------------------------------------------------
 OpenMP BLAS3 based DFT computing Module                
 Release: version 1.0, May 2013, Q-Chem Inc. Pittsburgh 
 -------------------------------------------------------
 ---------------------------------------
  Cycle       Energy         DIIS Error
 ---------------------------------------
    1    -239.7015292656      1.31E-01
    2    -232.8084512707      1.02E-01
    3    -264.9199690009      9.54E-02
    4    -281.9507787347      5.29E-02
    5    -283.9169674448      3.96E-02
    6    -286.3077874203      1.49E-02
    7    -286.7846255589      3.11E-03
    8    -286.7931076274      3.59E-03
    9    -286.8158081938      4.11E-04
   10    -286.8169027743      2.78E-04
   11    -286.8172282558      1.70E-04
   12    -286.8173377727      4.12E-05
   13    -286.8173512263      1.70E-05
   14    -286.8173523070      3.28E-06
   15    -286.8173525987      6.43E-07
   16    -286.8173526860      4.01E-07
   17    -286.8173527013      2.53E-07
   18    -286.8173527065      3.86E-08
   19    -286.8173527068      2.21E-08
   20    -286.8173527068      1.06E-08
   21    -286.8173527068      3.53E-09 Convergence criterion met
 ---------------------------------------
 <S^2> = 0.7575
 SCF time:  CPU 50.84 s  wall 13.79 s
 SCF   energy in the final basis set = -286.81735271
 Total energy in the final basis set = -286.81735271
 
 --------------------------------------------------------------
 
                    Orbital Energies (a.u.)
 --------------------------------------------------------------
 
 Alpha MOs
 -- Occupied --
-14.333 -10.218 -10.218 -10.214 -10.214 -10.207 -10.207  -0.984
 -0.838  -0.786  -0.649  -0.588  -0.575  -0.539  -0.524  -0.451
 -0.427  -0.415  -0.393  -0.384  -0.336  -0.277  -0.271  -0.250
 -0.207
 -- Virtual --
  0.085   0.089   0.119   0.130   0.144   0.155   0.156   0.177
  0.178   0.199   0.213   0.250   0.260   0.298   0.361   0.382
  0.485   0.515   0.526   0.534   0.552   0.569   0.580   0.605
  0.616   0.632   0.674   0.725   0.730   0.741   0.742   0.778
  0.793   0.795   0.818   0.820   0.841   0.850   0.918   0.931
  0.975   0.997   1.127   1.168   1.194   1.228   1.419   1.446
  1.487   1.533   1.566   1.601   1.626   1.654   1.691   1.707
  1.751   1.820   1.856   1.916   1.954   1.960   1.972   1.993
  2.053   2.129   2.135   2.232   2.266   2.387   2.418   2.485
  2.493   2.518   2.549   2.554   2.579   2.617   2.680   2.720
  2.744   2.756   2.839   2.868   2.930   3.850   4.224   4.307
  4.357   4.450   4.624   4.657
 
 Beta MOs
 -- Occupied --
-14.318 -10.219 -10.219 -10.211 -10.211 -10.206 -10.206  -0.973
 -0.814  -0.783  -0.643  -0.585  -0.568  -0.535  -0.519  -0.449
 -0.422  -0.394  -0.386  -0.379  -0.323  -0.269  -0.257  -0.240
 -- Virtual --
 -0.080   0.086   0.097   0.123   0.134   0.145   0.157   0.165
  0.181   0.181   0.203   0.221   0.258   0.266   0.299   0.364
  0.387   0.486   0.516   0.527   0.536   0.559   0.571   0.584
  0.609   0.618   0.641   0.677   0.728   0.735   0.743   0.777
  0.786   0.795   0.800   0.820   0.826   0.842   0.852   0.919
  0.938   0.995   1.000   1.131   1.171   1.202   1.229   1.420
  1.466   1.502   1.537   1.571   1.607   1.630   1.674   1.697
  1.713   1.755   1.824   1.860   1.922   1.959   1.965   1.974
  1.997   2.067   2.138   2.149   2.238   2.276   2.391   2.432
  2.498   2.499   2.523   2.559   2.563   2.602   2.620   2.683
  2.723   2.748   2.759   2.841   2.874   2.935   3.875   4.231
  4.310   4.357   4.451   4.627   4.660
 --------------------------------------------------------------
 
          Ground-State Mulliken Net Atomic Charges

     Atom                 Charge (a.u.)    Spin (a.u.)
  --------------------------------------------------------
      1 C                    -0.040964      -0.086672
      2 C                    -0.129636       0.054881
      3 C                    -0.122365       0.147183
      4 C                    -0.129361       0.054582
      5 C                    -0.041113      -0.086566
      6 N                    -0.287920       0.779887
      7 H                     0.148122       0.001275
      8 H                     0.145053      -0.000391
      9 H                     0.143641      -0.006318
     10 H                     0.145004      -0.000442
     11 H                     0.148147       0.001279
     12 C                    -0.122108       0.147672
     13 H                     0.143498      -0.006369
  --------------------------------------------------------
  Sum of atomic charges =    -0.000000
  Sum of spin   charges =     1.000000

 -----------------------------------------------------------------
                    Cartesian Multipole Moments
 -----------------------------------------------------------------
    Charge (ESU x 10^10)
                -0.0000
    Dipole Moment (Debye)
         X      -1.1540      Y      -1.9801      Z       0.6602
       Tot       2.3850
    Quadrupole Moments (Debye-Ang)
        XX     -37.9770     XY      -3.9620     YY     -43.1907
        XZ       1.8202     YZ       0.9688     ZZ     -39.7443
    Octopole Moments (Debye-Ang^2)
       XXX      -9.0281    XXY      -7.2158    XYY      -8.4377
       YYY     -25.6008    XXZ       3.9500    XYZ       1.8001
       YYZ       0.9058    XZZ      -6.4898    YZZ      -8.4219
       ZZZ       9.4475
    Hexadecapole Moments (Debye-Ang^3)
      XXXX    -231.1378   XXXY      -5.9296   XXYY     -81.7339
      XYYY     -17.7870   YYYY    -239.1538   XXXZ      -8.3629
      XXYZ       9.4105   XYYZ       2.4207   YYYZ      22.9642
      XXZZ     -68.2071   XYZZ      -2.1574   YYZZ     -64.7171
      XZZZ      -9.2737   YZZZ      16.6070   ZZZZ    -163.5722
 -----------------------------------------------------------------
 Calculating analytic gradient of the SCF energy
 Gradient of SCF Energy
            1           2           3           4           5           6
    1  -0.0055945   0.0072047   0.0078692   0.0091360   0.0028896   0.0016723
    2  -0.0037468   0.0157173  -0.0102462   0.0122233  -0.0009786   0.0028189
    3  -0.0107744  -0.0013894   0.0138991  -0.0081565   0.0124377  -0.0009481
            7           8           9          10          11          12
    1   0.0080668   0.0097966  -0.0017367  -0.0140916  -0.0025547  -0.0162738
    2   0.0013204  -0.0126714  -0.0100294   0.0053156   0.0082780  -0.0044114
    3  -0.0026288  -0.0046765  -0.0028015   0.0074341  -0.0003801  -0.0097027
           13
    1  -0.0063839
    2  -0.0035898
    3   0.0076872
 Max gradient component =       1.627E-02
 RMS gradient           =       8.180E-03
 Gradient time:  CPU 7.88 s  wall 2.00 s
 FSM gradient convergence criteria satisfied
done with opt_step_by_gradient, Reactant, iter1
-Optimizing new product side node
 Using BFGS, step: 2 E_tol 0.0993968
 max_steps 6, node_spacing 0.2558016, sigma 0.7000000
 ----------------------------------------------------------------
             Standard Nuclear Orientation (Angstroms)
    I     Atom           X                Y                Z
 ----------------------------------------------------------------
    1      C       1.5434382130     0.3523838418    -0.5742568690
    2      C       1.1719630071    -0.9575522913    -0.3212583846
    3      C      -0.1130134841    -1.4541698657     0.0801887779
    4      C      -1.3074845862     0.7256539036     0.3986619809
    5      C      -0.3867315210     1.6373777750    -0.0867664144
    6      N       0.8940108161     1.5344269453    -0.5079820106
    7      H       2.5650465589     0.4764040099    -0.9410863598
    8      H       1.9269879215    -1.7106993859    -0.5375051098
    9      H      -0.1838852416    -2.5337930319     0.2056378603
   10      H      -2.2569760835     1.1448595486     0.7256933028
   11      H      -0.7311983491     2.6739576581    -0.1022236938
   12      C      -1.1325804437    -0.6814588055     0.6226810945
   13      H      -1.9944194851    -1.2056328839     1.0333616036
 ----------------------------------------------------------------
 Nuclear Repulsion Energy =   260.7008067934 hartrees
 There are       25 alpha and       24 beta electrons

                       Distance Matrix (Angstroms)
             C (  1)   C (  2)   C (  3)   C (  4)   C (  5)   N (  6)
   C (  2)  1.384895
   C (  3)  2.536881  1.434905
   C (  4)  3.035402  3.082066  2.505957
   C (  5)  2.369475  3.036145  3.108128  1.383715
   N (  6)  1.350324  2.514375  3.208076  2.514498  1.352155
   H (  7)  1.092533  2.093108  3.455738  4.105307  3.284923  2.024686
   H (  8)  2.098755  1.088143  2.146849  4.156205  4.094641  3.405695
   H (  9)  3.452810  2.144873  1.089195  3.453075  4.186324  4.268668
   H ( 10)  4.094025  4.156184  3.430482  1.088217  2.097732  3.406235
   H ( 11)  3.284279  4.105833  4.178141  2.092577  1.092426  2.025950
   C ( 12)  3.108467  2.505628  1.389567  1.435529  2.537047  3.208679
   H ( 13)  4.186680  3.452900  2.123675  2.145831  3.452833  4.269274
             H (  7)   H (  8)   H (  9)   H ( 10)   H ( 11)   C ( 12)
   H (  8)  2.313745
   H (  9)  4.234724  2.384435
   H ( 10)  5.145570  5.220674  4.254486
   H ( 11)  4.049465  5.145934  5.245474  2.313349
   C ( 12)  4.178332  3.430208  2.122520  2.147165  3.456214
   H ( 13)  5.245610  4.254427  2.393151  2.385039  4.235151  1.089121

 
 Applying Cartesian multipole field
    Component          Value
    ---------          -----
     (2,0,0)        1.00000E-11
     (0,2,0)        2.00000E-11
     (0,0,2)       -3.00000E-11
 Nucleus-field energy     =     0.0000000068 hartrees
 Requested basis set is 6-31G(d)
 There are 40 shells and 117 basis functions
 A cutoff of  1.0D-14 yielded    791 shell pairs
 There are      7063 function pairs
 Smallest overlap matrix eigenvalue = 1.94E-03
 Guess MOs from core Hamiltonian diagonalization
 Mixing HOMO and LUMO in initial guess
 Adding  50% of the LUMO to the HOMO
 An unrestricted hybrid HF-DFT SCF calculation will be
 performed using Pulay DIIS extrapolation
 Exchange:     0.2000 Hartree-Fock + 0.0800 Slater + 0.7200 B88
 Correlation:  0.1900 VWN1RPA + 0.8100 LYP
 Using SG-1 standard quadrature grid
 SCF converges when DIIS error is below 1.0E-08
 using 4 threads for integral computing
 -------------------------------------------------------
 OpenMP Integral computing Module                
 Release: version 1.0, May 2013, Q-Chem Inc. Pittsburgh 
 -------------------------------------------------------
 -------------------------------------------------------
 OpenMP BLAS3 based DFT computing Module                
 Release: version 1.0, May 2013, Q-Chem Inc. Pittsburgh 
 -------------------------------------------------------
 ---------------------------------------
  Cycle       Energy         DIIS Error
 ---------------------------------------
    1    -239.4384711366      1.26E-01
    2    -227.3546113640      1.03E-01
    3    -250.0874902283      1.04E-01
    4    -282.2479474863      4.73E-02
    5    -282.5279055726      4.68E-02
    6    -285.6399525731      2.22E-02
    7    -286.6487558272      1.17E-02
    8    -286.8670706929      4.47E-03
    9    -286.9153655681      8.95E-04
   10    -286.9171182243      6.70E-04
   11    -286.9180228376      1.76E-04
   12    -286.9182067835      9.20E-05
   13    -286.9182804409      5.15E-05
   14    -286.9183545214      1.15E-05
   15    -286.9183632456      4.90E-06
   16    -286.9183650608      2.90E-06
   17    -286.9183655953      6.67E-07
   18    -286.9183656313      4.21E-07
   19    -286.9183656363      2.67E-07
   20    -286.9183656388      1.90E-07
   21    -286.9183656408      1.05E-07
   22    -286.9183656417      2.40E-08
   23    -286.9183656417      4.42E-09 Convergence criterion met
 ---------------------------------------
 <S^2> = 0.7676
 SCF time:  CPU 53.45 s  wall 14.54 s
 SCF   energy in the final basis set = -286.91836564
 Total energy in the final basis set = -286.91836564
 
 --------------------------------------------------------------
 
                    Orbital Energies (a.u.)
 --------------------------------------------------------------
 
 Alpha MOs
 -- Occupied --
-14.321 -10.232 -10.232 -10.215 -10.214 -10.200 -10.200  -0.923
 -0.817  -0.784  -0.690  -0.669  -0.552  -0.535  -0.517  -0.448
 -0.439  -0.416  -0.394  -0.384  -0.350  -0.320  -0.298  -0.252
 -0.159
 -- Virtual --
 -0.076   0.076   0.089   0.096   0.117   0.143   0.179   0.185
  0.194   0.218   0.262   0.322   0.352   0.395   0.398   0.487
  0.497   0.514   0.546   0.575   0.576   0.584   0.591   0.608
  0.619   0.620   0.646   0.658   0.702   0.717   0.799   0.841
  0.844   0.847   0.867   0.871   0.886   0.923   0.941   0.993
  1.011   1.025   1.034   1.124   1.126   1.178   1.206   1.282
  1.344   1.364   1.434   1.472   1.475   1.551   1.568   1.580
  1.710   1.737   1.781   1.830   1.847   1.913   1.918   2.008
  2.040   2.070   2.126   2.143   2.145   2.199   2.247   2.368
  2.401   2.414   2.441   2.546   2.557   2.601   2.602   2.731
  2.755   2.786   3.034   3.193   3.250   4.024   4.046   4.105
  4.195   4.240   4.539   4.556
 
 Beta MOs
 -- Occupied --
-14.314 -10.234 -10.233 -10.213 -10.213 -10.196 -10.196  -0.913
 -0.808  -0.777  -0.678  -0.667  -0.547  -0.532  -0.514  -0.446
 -0.437  -0.412  -0.380  -0.373  -0.349  -0.293  -0.275  -0.243
 -- Virtual --
 -0.076  -0.073   0.077   0.112   0.118   0.123   0.143   0.181
  0.188   0.197   0.223   0.265   0.326   0.356   0.398   0.401
  0.490   0.505   0.518   0.551   0.581   0.586   0.589   0.596
  0.613   0.623   0.625   0.649   0.674   0.705   0.728   0.801
  0.844   0.844   0.867   0.868   0.878   0.888   0.925   0.945
  0.997   1.015   1.027   1.036   1.129   1.132   1.181   1.212
  1.292   1.352   1.374   1.436   1.478   1.488   1.564   1.574
  1.591   1.718   1.740   1.795   1.832   1.851   1.916   1.927
  2.014   2.052   2.079   2.132   2.149   2.151   2.210   2.259
  2.382   2.408   2.424   2.443   2.558   2.570   2.604   2.613
  2.740   2.761   2.789   3.036   3.197   3.253   4.036   4.053
  4.111   4.200   4.240   4.544   4.563
 --------------------------------------------------------------
 
          Ground-State Mulliken Net Atomic Charges

     Atom                 Charge (a.u.)    Spin (a.u.)
  --------------------------------------------------------
      1 C                     0.039270      -0.109673
      2 C                    -0.134183       0.341863
      3 C                    -0.113132       0.095990
      4 C                    -0.132946       0.333035
      5 C                     0.037878      -0.104310
      6 N                    -0.422380       0.376704
      7 H                     0.142454       0.003426
      8 H                     0.135206      -0.018184
      9 H                     0.141970      -0.005493
     10 H                     0.135299      -0.017767
     11 H                     0.142539       0.003152
     12 C                    -0.114010       0.107289
     13 H                     0.142033      -0.006031
  --------------------------------------------------------
  Sum of atomic charges =    -0.000000
  Sum of spin   charges =     1.000000

 -----------------------------------------------------------------
                    Cartesian Multipole Moments
 -----------------------------------------------------------------
    Charge (ESU x 10^10)
                 0.0000
    Dipole Moment (Debye)
         X      -1.0885      Y      -1.8673      Z       0.6171
       Tot       2.2478
    Quadrupole Moments (Debye-Ang)
        XX     -37.4258     XY      -3.5590     YY     -40.0099
        XZ      -1.9576     YZ       1.0350     ZZ     -42.7096
    Octopole Moments (Debye-Ang^2)
       XXX      -8.7749    XXY      -8.8357    XYY     -11.6269
       YYY     -26.5027    XXZ       2.7850    XYZ       2.7454
       YYZ       5.5516    XZZ      -3.8696    YZZ      -6.4905
       ZZZ       5.6857
    Hexadecapole Moments (Debye-Ang^3)
      XXXX    -338.4018   XXXY       0.1349   XXYY    -130.3407
      XYYY     -17.5175   YYYY    -396.2368   XXXZ      44.7867
      XXYZ       7.8608   XYYZ      21.2149   YYYZ      24.1055
      XXZZ     -74.4289   XYZZ       1.9503   YYZZ     -89.8899
      XZZZ      62.1429   YZZZ      19.4153   ZZZZ     -97.0084
 -----------------------------------------------------------------
 Calculating analytic gradient of the SCF energy
 Gradient of SCF Energy
            1           2           3           4           5           6
    1  -0.0027969   0.0005922   0.0077649  -0.0039962   0.0019209   0.0008038
    2   0.0020366  -0.0004312  -0.0107511  -0.0058939  -0.0028714   0.0010950
    3   0.0030527   0.0137172  -0.0328418  -0.0109848  -0.0034385  -0.0000513
            7           8           9          10          11          12
    1  -0.0009624  -0.0004375   0.0013728  -0.0002271   0.0017506  -0.0043601
    2   0.0006988  -0.0007986  -0.0005007  -0.0003558   0.0005644   0.0169075
    3  -0.0023227  -0.0006767   0.0014383   0.0010707   0.0019919   0.0300698
           13
    1  -0.0014250
    2   0.0003005
    3  -0.0010248
 Max gradient component =       3.284E-02
 RMS gradient           =       8.615E-03
 Gradient time:  CPU 7.41 s  wall 1.88 s
 ----------------------------------------------------------------
             Standard Nuclear Orientation (Angstroms)
    I     Atom           X                Y                Z
 ----------------------------------------------------------------
    1      C       1.5474303006     0.3505293846    -0.5730591109
    2      C       1.1718420755    -0.9566923520    -0.3309968082
    3      C      -0.1288593393    -1.4419654397     0.0996957312
    4      C      -1.3041751629     0.7303800484     0.4065820828
    5      C      -0.3901781050     1.6394682123    -0.0870055741
    6      N       0.8932063965     1.5334404704    -0.5079874814
    7      H       2.5671095149     0.4758956270    -0.9335753194
    8      H       1.9267676043    -1.7097649623    -0.5346435717
    9      H      -0.1905020778    -2.5329307840     0.1909454888
   10      H      -2.2569338863     1.1436672030     0.7226970848
   11      H      -0.7350389407     2.6719888924    -0.1094841496
   12      C      -1.1187106350    -0.6981083365     0.6063259971
   13      H      -1.9868006125    -1.2041514177     1.0456512822
 ----------------------------------------------------------------
 Nuclear Repulsion Energy =   260.9933011803 hartrees
 There are       25 alpha and       24 beta electrons

                       Distance Matrix (Angstroms)
             C (  1)   C (  2)   C (  3)   C (  4)   C (  5)   N (  6)
   C (  2)  1.381481
   C (  3)  2.544717  1.453551
   C (  4)  3.039019  3.085595  2.488902
   C (  5)  2.377380  3.039653  3.098125  1.380384
   N (  6)  1.353337  2.511917  3.204206  2.511937  1.354822
   H (  7)  1.088777  2.088583  3.466134  4.104586  3.288789  2.025211
   H (  8)  2.095277  1.085589  2.167880  4.156826  4.097070  3.404018
   H (  9)  3.452311  2.147774  1.096509  3.454847  4.186411  4.265947
   H ( 10)  4.096491  4.156716  3.406219  1.085580  2.094329  3.404393
   H ( 11)  3.288425  4.105191  4.163632  2.088082  1.088822  2.026396
   C ( 12)  3.098209  2.488387  1.337835  1.454261  2.544746  3.204577
   H ( 13)  4.186651  3.454478  2.098412  2.148674  3.452287  4.266456
             H (  7)   H (  8)   H (  9)   H ( 10)   H ( 11)   C ( 12)
   H (  8)  2.312206
   H (  9)  4.233439  2.384725
   H ( 10)  5.143982  5.217886  4.250914
   H ( 11)  4.050449  5.144487  5.241943  2.311808
   C ( 12)  4.163514  3.405906  2.097781  2.168232  3.466575
   H ( 13)  5.241946  4.250764  2.392251  2.385272  4.233876  1.096662

 
 Applying Cartesian multipole field
    Component          Value
    ---------          -----
     (2,0,0)        1.00000E-11
     (0,2,0)        2.00000E-11
     (0,0,2)       -3.00000E-11
 Nucleus-field energy     =     0.0000000067 hartrees
 Requested basis set is 6-31G(d)
 There are 40 shells and 117 basis functions
 A cutoff of  1.0D-14 yielded    791 shell pairs
 There are      7063 function pairs
 Smallest overlap matrix eigenvalue = 1.64E-03
 Guess MOs from core Hamiltonian diagonalization
 Mixing HOMO and LUMO in initial guess
 Adding  50% of the LUMO to the HOMO
 An unrestricted hybrid HF-DFT SCF calculation will be
 performed using Pulay DIIS extrapolation
 Exchange:     0.2000 Hartree-Fock + 0.0800 Slater + 0.7200 B88
 Correlation:  0.1900 VWN1RPA + 0.8100 LYP
 Using SG-1 standard quadrature grid
 SCF converges when DIIS error is below 1.0E-08
 using 4 threads for integral computing
 -------------------------------------------------------
 OpenMP Integral computing Module                
 Release: version 1.0, May 2013, Q-Chem Inc. Pittsburgh 
 -------------------------------------------------------
 -------------------------------------------------------
 OpenMP BLAS3 based DFT computing Module                
 Release: version 1.0, May 2013, Q-Chem Inc. Pittsburgh 
 -------------------------------------------------------
 ---------------------------------------
  Cycle       Energy         DIIS Error
 ---------------------------------------
    1    -239.9607848778      1.26E-01
    2    -229.2147480431      1.01E-01
    3    -249.4015999112      1.06E-01
    4    -283.6664754518      4.05E-02
    5    -283.4691804020      4.04E-02
    6    -286.2366014972      1.62E-02
    7    -286.7763186523      8.80E-03
    8    -286.9072028701      2.18E-03
    9    -286.9177357295      7.55E-04
   10    -286.9189980000      2.38E-04
   11    -286.9192424388      9.50E-05
   12    -286.9193356289      5.17E-05
   13    -286.9193749872      3.24E-05
   14    -286.9194072925      7.55E-06
   15    -286.9194096370      2.32E-06
   16    -286.9194103051      1.09E-06
   17    -286.9194103859      3.12E-07
   18    -286.9194103977      1.12E-07
   19    -286.9194103984      6.59E-08
   20    -286.9194103985      2.16E-08
   21    -286.9194103985      1.26E-08
   22    -286.9194103985      6.71E-09 Convergence criterion met
 ---------------------------------------
 <S^2> = 0.7703
 SCF time:  CPU 51.68 s  wall 14.35 s
 SCF   energy in the final basis set = -286.91941040
 Total energy in the final basis set = -286.91941040
 
 --------------------------------------------------------------
 
                    Orbital Energies (a.u.)
 --------------------------------------------------------------
 
 Alpha MOs
 -- Occupied --
-14.323 -10.230 -10.230 -10.211 -10.211 -10.202 -10.202  -0.922
 -0.821  -0.783  -0.695  -0.665  -0.550  -0.536  -0.519  -0.448
 -0.439  -0.413  -0.394  -0.391  -0.346  -0.322  -0.297  -0.252
 -0.164
 -- Virtual --
 -0.069   0.074   0.095   0.096   0.118   0.142   0.180   0.185
  0.194   0.211   0.271   0.319   0.355   0.391   0.410   0.483
  0.496   0.514   0.546   0.575   0.579   0.587   0.589   0.610
  0.618   0.634   0.648   0.658   0.706   0.716   0.814   0.836
  0.847   0.849   0.868   0.873   0.884   0.924   0.948   0.984
  1.014   1.028   1.044   1.126   1.165   1.180   1.231   1.284
  1.342   1.356   1.434   1.473   1.478   1.552   1.572   1.583
  1.701   1.733   1.777   1.827   1.852   1.915   1.923   2.027
  2.029   2.072   2.117   2.144   2.145   2.200   2.247   2.387
  2.404   2.412   2.455   2.558   2.562   2.602   2.604   2.730
  2.755   2.808   3.037   3.222   3.246   4.018   4.051   4.099
  4.206   4.235   4.536   4.566
 
 Beta MOs
 -- Occupied --
-14.315 -10.231 -10.231 -10.210 -10.209 -10.197 -10.197  -0.911
 -0.812  -0.776  -0.683  -0.663  -0.545  -0.533  -0.516  -0.446
 -0.437  -0.410  -0.388  -0.373  -0.344  -0.296  -0.274  -0.242
 -- Virtual --
 -0.080  -0.067   0.076   0.118   0.119   0.123   0.142   0.181
  0.189   0.197   0.217   0.273   0.324   0.359   0.393   0.413
  0.485   0.504   0.518   0.551   0.582   0.586   0.592   0.595
  0.614   0.621   0.638   0.651   0.675   0.708   0.727   0.816
  0.839   0.847   0.869   0.869   0.881   0.887   0.927   0.951
  0.987   1.018   1.029   1.046   1.132   1.169   1.184   1.237
  1.294   1.351   1.366   1.437   1.479   1.490   1.565   1.579
  1.594   1.708   1.738   1.789   1.830   1.855   1.917   1.932
  2.036   2.040   2.081   2.127   2.145   2.151   2.211   2.259
  2.397   2.414   2.422   2.458   2.571   2.572   2.607   2.612
  2.737   2.764   2.810   3.040   3.225   3.249   4.031   4.058
  4.106   4.210   4.235   4.541   4.572
 --------------------------------------------------------------
 
          Ground-State Mulliken Net Atomic Charges

     Atom                 Charge (a.u.)    Spin (a.u.)
  --------------------------------------------------------
      1 C                     0.035814      -0.122059
      2 C                    -0.134492       0.361289
      3 C                    -0.108942       0.084398
      4 C                    -0.133622       0.355175
      5 C                     0.034836      -0.118937
      6 N                    -0.420874       0.389942
      7 H                     0.141822       0.003982
      8 H                     0.136215      -0.018995
      9 H                     0.140339      -0.005336
     10 H                     0.136281      -0.018703
     11 H                     0.141892       0.003825
     12 C                    -0.109648       0.091071
     13 H                     0.140377      -0.005651
  --------------------------------------------------------
  Sum of atomic charges =    -0.000000
  Sum of spin   charges =     1.000000

 -----------------------------------------------------------------
                    Cartesian Multipole Moments
 -----------------------------------------------------------------
    Charge (ESU x 10^10)
                -0.0000
    Dipole Moment (Debye)
         X      -1.0948      Y      -1.8778      Z       0.6209
       Tot       2.2606
    Quadrupole Moments (Debye-Ang)
        XX     -37.3443     XY      -3.6489     YY     -40.0453
        XZ      -1.9144     YZ       1.0611     ZZ     -42.6739
    Octopole Moments (Debye-Ang^2)
       XXX      -8.8099    XXY      -8.7775    XYY     -11.4981
       YYY     -26.4545    XXZ       2.8001    XYZ       2.7035
       YYZ       5.3676    XZZ      -3.9570    YZZ      -6.5592
       ZZZ       5.7719
    Hexadecapole Moments (Debye-Ang^3)
      XXXX    -337.1557   XXXY      -0.8096   XXYY    -129.9669
      XYYY     -17.9922   YYYY    -396.5505   XXXZ      44.8608
      XXYZ       7.9920   XYYZ      21.2667   YYYZ      24.4705
      XXZZ     -74.2633   XYZZ       1.8655   YYZZ     -89.7973
      XZZZ      62.0763   YZZZ      19.4683   ZZZZ     -96.7107
 -----------------------------------------------------------------
 Calculating analytic gradient of the SCF energy
 Gradient of SCF Energy
            1           2           3           4           5           6
    1   0.0005757   0.0098246  -0.0347821  -0.0076664  -0.0019378   0.0015470
    2  -0.0003771  -0.0008487   0.0191445   0.0043890  -0.0012203   0.0021491
    3   0.0028916   0.0078115  -0.0071274  -0.0086293  -0.0025595  -0.0006235
            7           8           9          10          11          12
    1  -0.0031541  -0.0003378   0.0019014   0.0011394   0.0021124   0.0357237
    2   0.0001068   0.0010660  -0.0050365   0.0002193  -0.0018006  -0.0175687
    3  -0.0013710  -0.0002198  -0.0004881  -0.0002168   0.0019633   0.0061529
           13
    1  -0.0049461
    2  -0.0002227
    3   0.0024161
 Max gradient component =       3.572E-02
 RMS gradient           =       9.706E-03
 Gradient time:  CPU 7.43 s  wall 1.89 s
 FSM gradient convergence criteria satisfied
 After opt distance between the previous and current R_nodes (Angstroms): 0.2658
 After opt distance between the previous and current P_nodes (Angstroms): 0.2809
-Printing perpgrad.txt, Vfile.txt, and stringfile.txt

STARTING FREEZING STRING ITERATION # 2
 The distance between the innermost nodes (Angstroms): 4.938
-Adding two new nodes
 The distance between the previous and current R_nodes (Angstroms): 0.2604
 The distance between the previous and current P_nodes (Angstroms): 0.2355
-Optimizing new reactant side node
 Using BFGS, step: 3 E_tol 0.0994
 max_steps 6, node_spacing 0.2558, sigma 0.7000
 ----------------------------------------------------------------
             Standard Nuclear Orientation (Angstroms)
    I     Atom           X                Y                Z
 ----------------------------------------------------------------
    1      C       1.3466185031     0.3013863701     0.1656404111
    2      C       0.6825324727    -0.9869013463    -0.2190075223
    3      C      -0.6670814391    -0.5613582381    -0.8090273486
    4      C      -1.1010771176     0.2690439137     0.4440579702
    5      C      -0.5216831052     1.1196780623    -0.6465249936
    6      N       0.8365032031     1.4388568676    -0.4812616340
    7      H       2.4122144981     0.3096432170     0.4164244761
    8      H       1.2433363812    -1.9201262990    -0.4270186566
    9      H      -1.2445838606    -1.1764162946    -1.5095206335
   10      H      -2.0916671968     0.4625103225     0.9027021985
   11      H      -1.1493449998     1.8678847880    -1.1411093259
   12      C       0.1154083568    -0.3844852689     1.1086300825
   13      H       0.1188976107    -0.7505563704     2.1425643136
 ----------------------------------------------------------------
 Nuclear Repulsion Energy =   283.9882803779 hartrees
 There are       25 alpha and       24 beta electrons

                       Distance Matrix (Angstroms)
             C (  1)   C (  2)   C (  3)   C (  4)   C (  5)   N (  6)
   C (  2)  1.499550
   C (  3)  2.397768  1.533189
   C (  4)  2.463692  2.279982  1.564654
   C (  5)  2.195396  2.463855  1.695120  1.499549
   N (  6)  1.404471  2.444747  2.523699  2.445178  1.404940
   H (  7)  1.094740  2.253131  3.426724  3.513635  3.223938  2.136312
   H (  8)  2.301528  1.108458  2.375264  3.323780  3.521915  3.383966
   H (  9)  3.421169  2.327040  1.096584  2.434424  2.557224  3.496841
   H ( 10)  3.520089  3.324938  2.451075  1.108626  2.301483  3.382719
   H ( 11)  3.223561  3.515089  2.498815  2.251972  1.094708  2.136131
   C ( 12)  1.695738  1.564339  2.078698  1.532512  2.397699  2.524343
   H ( 13)  2.553842  2.439378  3.060303  2.326553  3.418646  3.491841
             H (  7)   H (  8)   H (  9)   H ( 10)   H ( 11)   C ( 12)
   H (  8)  2.655098
   H (  9)  4.392017  2.813301
   H ( 10)  4.532636  4.308986  3.036849
   H ( 11)  4.187927  4.536946  3.067991  2.653340
   C ( 12)  2.497255  2.447168  3.054742  2.372971  3.425507
   H ( 13)  3.059883  3.038916  3.921500  2.809873  4.387161  1.096832

 
 Applying Cartesian multipole field
    Component          Value
    ---------          -----
     (2,0,0)        1.00000E-11
     (0,2,0)        2.00000E-11
     (0,0,2)       -3.00000E-11
 Nucleus-field energy     =     0.0000000017 hartrees
 Requested basis set is 6-31G(d)
 There are 40 shells and 117 basis functions
 A cutoff of  1.0D-14 yielded    812 shell pairs
 There are      7084 function pairs
 Smallest overlap matrix eigenvalue = 1.33E-03
 Guess MOs from core Hamiltonian diagonalization
 Mixing HOMO and LUMO in initial guess
 Adding  50% of the LUMO to the HOMO
 An unrestricted hybrid HF-DFT SCF calculation will be
 performed using Pulay DIIS extrapolation
 Exchange:     0.2000 Hartree-Fock + 0.0800 Slater + 0.7200 B88
 Correlation:  0.1900 VWN1RPA + 0.8100 LYP
 Using SG-1 standard quadrature grid
 SCF converges when DIIS error is below 1.0E-08
 using 4 threads for integral computing
 -------------------------------------------------------
 OpenMP Integral computing Module                
 Release: version 1.0, May 2013, Q-Chem Inc. Pittsburgh 
 -------------------------------------------------------
 -------------------------------------------------------
 OpenMP BLAS3 based DFT computing Module                
 Release: version 1.0, May 2013, Q-Chem Inc. Pittsburgh 
 -------------------------------------------------------
 ---------------------------------------
  Cycle       Energy         DIIS Error
 ---------------------------------------
    1    -240.0179333738      1.30E-01
    2    -233.0767119779      1.01E-01
    3    -262.4705577447      1.00E-01
    4    -283.5537295362      4.17E-02
    5    -283.8211171540      3.95E-02
    6    -286.3150227376      1.50E-02
    7    -286.7696168642      3.13E-03
    8    -286.7800971378      3.03E-03
    9    -286.7962420631      4.46E-04
   10    -286.7968949492      3.57E-04
   11    -286.7972875469      1.64E-04
   12    -286.7974584495      4.90E-05
   13    -286.7974768911      2.69E-05
   14    -286.7974808533      3.23E-06
   15    -286.7974811592      1.48E-06
   16    -286.7974812337      7.44E-07
   17    -286.7974812506      2.61E-07
   18    -286.7974812581      5.07E-08
   19    -286.7974812592      3.74E-08
   20    -286.7974812593      1.92E-08
   21    -286.7974812593      2.35E-09 Convergence criterion met
 ---------------------------------------
 <S^2> = 0.7648
 SCF time:  CPU 51.76 s  wall 14.54 s
 SCF   energy in the final basis set = -286.79748126
 Total energy in the final basis set = -286.79748126
 
 --------------------------------------------------------------
 
                    Orbital Energies (a.u.)
 --------------------------------------------------------------
 
 Alpha MOs
 -- Occupied --
-14.326 -10.224 -10.224 -10.221 -10.221 -10.210 -10.209  -0.970
 -0.832  -0.771  -0.655  -0.587  -0.579  -0.538  -0.520  -0.447
 -0.427  -0.415  -0.394  -0.379  -0.345  -0.275  -0.266  -0.246
 -0.193
 -- Virtual --
  0.070   0.083   0.098   0.117   0.145   0.148   0.156   0.168
  0.178   0.187   0.198   0.251   0.262   0.295   0.351   0.386
  0.494   0.509   0.510   0.528   0.538   0.566   0.585   0.596
  0.606   0.635   0.668   0.715   0.732   0.739   0.743   0.789
  0.801   0.803   0.817   0.820   0.842   0.860   0.919   0.927
  0.973   1.000   1.111   1.147   1.185   1.218   1.433   1.441
  1.479   1.488   1.514   1.538   1.612   1.638   1.709   1.723
  1.747   1.787   1.865   1.890   1.910   1.937   1.967   2.032
  2.071   2.130   2.140   2.217   2.247   2.352   2.399   2.435
  2.462   2.496   2.551   2.558   2.576   2.591   2.646   2.708
  2.711   2.714   2.818   2.859   2.927   3.855   4.205   4.287
  4.341   4.438   4.579   4.615
 
 Beta MOs
 -- Occupied --
-14.313 -10.223 -10.223 -10.220 -10.220 -10.209 -10.209  -0.960
 -0.811  -0.768  -0.647  -0.584  -0.572  -0.534  -0.515  -0.445
 -0.421  -0.400  -0.386  -0.374  -0.335  -0.268  -0.249  -0.223
 -- Virtual --
 -0.081   0.080   0.084   0.105   0.126   0.145   0.157   0.158
[...]
  --------------------------------------------------------
      1 C                     0.061993      -0.130352
      2 C                    -0.212086      -0.013674
      3 C                    -0.134038       0.648535
      4 C                    -0.217289      -0.011440
      5 C                     0.069726      -0.137198
      6 N                    -0.333466       0.090169
      7 H                     0.153939       0.006761
      8 H                     0.151294       0.000063
      9 H                     0.144314      -0.028796
     10 H                     0.151150       0.000128
     11 H                     0.153618       0.006966
     12 C                    -0.134465       0.594874
     13 H                     0.145310      -0.026036
  --------------------------------------------------------
  Sum of atomic charges =     0.000000
  Sum of spin   charges =     1.000000

 -----------------------------------------------------------------
                    Cartesian Multipole Moments
 -----------------------------------------------------------------
    Charge (ESU x 10^10)
                -0.0000
    Dipole Moment (Debye)
         X      -0.9521      Y      -1.6348      Z       0.5995
       Tot       1.9846
    Quadrupole Moments (Debye-Ang)
        XX     -36.8577     XY      -4.3824     YY     -41.3981
        XZ      -0.3527     YZ       0.6636     ZZ     -42.7726
    Octopole Moments (Debye-Ang^2)
       XXX      -5.0531    XXY      -6.7236    XYY     -11.0170
       YYY     -24.6413    XXZ       3.8281    XYZ       2.4357
       YYZ       0.7743    XZZ      -6.8773    YZZ      -8.9717
       ZZZ      11.2386
    Hexadecapole Moments (Debye-Ang^3)
      XXXX    -236.6004   XXXY     -12.9531   XXYY     -87.9714
      XYYY     -24.0721   YYYY    -277.0336   XXXZ       4.5524
      XXYZ      10.2432   XYYZ       7.9526   YYYZ      23.6133
      XXZZ     -70.6176   XYZZ      -3.4574   YYZZ     -68.9202
      XZZZ       1.2216   YZZZ      15.3668   ZZZZ    -160.6083
 -----------------------------------------------------------------
 Calculating analytic gradient of the SCF energy
 Gradient of SCF Energy
            1           2           3           4           5           6
    1   0.0027165   0.0197401   0.0128731  -0.0127722  -0.0112222   0.0036470
    2  -0.0073448  -0.0083571  -0.0102131   0.0187983  -0.0080772   0.0043928
    3   0.0114341  -0.0205719   0.0179408   0.0172346  -0.0109070  -0.0006907
            7           8           9          10          11          12
    1  -0.0025504   0.0115155   0.0099631   0.0001446   0.0044102  -0.0221498
    2  -0.0010431   0.0038089  -0.0131760   0.0163121   0.0021572  -0.0005795
    3  -0.0125154  -0.0114326  -0.0033689   0.0055119   0.0125945  -0.0119835
           13
    1  -0.0163155
    2   0.0033213
    3   0.0067542
 Max gradient component =       2.215E-02
 RMS gradient           =       1.131E-02
 Gradient time:  CPU 7.57 s  wall 2.06 s
 ----------------------------------------------------------------
             Standard Nuclear Orientation (Angstroms)
    I     Atom           X                Y                Z
 ----------------------------------------------------------------
    1      C       1.4425198044     0.3632635733    -0.0435439304
    2      C       0.7170425168    -0.9283116089    -0.1860778336
    3      C      -0.6392922840    -0.7690348492    -0.7678256771
    4      C      -1.0853221879     0.3024609116     0.3673130167
    5      C      -0.4695464942     1.3234486585    -0.5263533161
    6      N       0.8482471758     1.4647501593    -0.4951617754
    7      H       2.5082278143     0.3659268421     0.1305383652
    8      H       1.3791731617    -1.7708549839    -0.4239691723
    9      H      -1.1319546451    -1.6595453761    -1.1760739119
   10      H      -2.0471893609     0.6260126573     0.7868901326
   11      H      -1.0819190627     2.1021274098    -0.9519537689
   12      C      -0.0769985302    -0.4573364504     1.1454618947
   13      H      -0.4113029617    -0.9931371323     2.0444458898
 ----------------------------------------------------------------
 Nuclear Repulsion Energy =   279.6715805060 hartrees
 There are       25 alpha and       24 beta electrons

                       Distance Matrix (Angstroms)
             C (  1)   C (  2)   C (  3)   C (  4)   C (  5)   N (  6)
   C (  2)  1.488220
   C (  3)  2.478029  1.484400
   C (  4)  2.561735  2.251569  1.623449
   C (  5)  2.193412  2.567918  2.113199  1.490045
   N (  6)  1.330561  2.416504  2.697576  2.415258  1.325715
   H (  7)  1.079836  2.232408  3.464402  3.601901  3.196169  2.086732
   H (  8)  2.168686  1.097674  2.279492  3.316399  3.605962  3.279648
   H (  9)  3.464433  2.221168  1.096536  2.496735  3.123968  3.761125
   H ( 10)  3.596766  3.317163  2.519022  1.098144  2.167944  3.275773
   H ( 11)  3.197131  3.606437  2.910910  2.231429  1.078182  2.083375
   C ( 12)  2.096677  1.620283  2.018415  1.483079  2.473915  2.691123
   H ( 13)  3.104220  2.500520  2.830384  2.223882  3.461065  3.751971
             H (  7)   H (  8)   H (  9)   H ( 10)   H ( 11)   C ( 12)
   H (  8)  2.479532
   H (  9)  4.365856  2.623702
   H ( 10)  4.609801  4.353288  3.148755
   H ( 11)  4.132231  4.619062  3.768676  2.476740
   C ( 12)  2.896762  2.511749  2.819178  2.276812  3.458305
   H ( 13)  3.746166  3.147018  3.366777  2.622826  4.359908  1.098642

 
 Applying Cartesian multipole field
    Component          Value
    ---------          -----
     (2,0,0)        1.00000E-11
     (0,2,0)        2.00000E-11
     (0,0,2)       -3.00000E-11
 Nucleus-field energy     =     0.0000000027 hartrees
 Requested basis set is 6-31G(d)
 There are 40 shells and 117 basis functions
 A cutoff of  1.0D-14 yielded    812 shell pairs
 There are      7084 function pairs
 Smallest overlap matrix eigenvalue = 2.22E-03
 Guess MOs from core Hamiltonian diagonalization
 Mixing HOMO and LUMO in initial guess
 Adding  50% of the LUMO to the HOMO
 An unrestricted hybrid HF-DFT SCF calculation will be
 performed using Pulay DIIS extrapolation
 Exchange:     0.2000 Hartree-Fock + 0.0800 Slater + 0.7200 B88
 Correlation:  0.1900 VWN1RPA + 0.8100 LYP
 Using SG-1 standard quadrature grid
 SCF converges when DIIS error is below 1.0E-08
 using 4 threads for integral computing
 -------------------------------------------------------
 OpenMP Integral computing Module                
 Release: version 1.0, May 2013, Q-Chem Inc. Pittsburgh 
 -------------------------------------------------------
 -------------------------------------------------------
 OpenMP BLAS3 based DFT computing Module                
 Release: version 1.0, May 2013, Q-Chem Inc. Pittsburgh 
 -------------------------------------------------------
 ---------------------------------------
  Cycle       Energy         DIIS Error
 ---------------------------------------
    1    -236.5410058041      1.35E-01
    2    -230.0007345329      1.01E-01
    3    -248.4854450169      1.25E-01
    4    -282.2169595030      4.06E-02
    5    -285.2315909318      2.78E-02
    6    -286.0546984404      1.79E-02
    7    -286.2228308103      1.53E-02
    8    -286.7090400052      4.89E-03
    9    -286.7478228203      1.48E-03
   10    -286.7527180012      6.49E-04
   11    -286.7539259064      1.85E-04
   12    -286.7545013035      5.04E-05
   13    -286.7547521340      3.85E-05
   14    -286.7549415770      2.17E-05
   15    -286.7550560050      1.44E-05
   16    -286.7551021708      9.11E-06
   17    -286.7551133644      4.36E-06
   18    -286.7551148905      2.26E-06
   19    -286.7551150709      1.54E-06
   20    -286.7551151863      6.19E-07
   21    -286.7551151962      1.39E-07
   22    -286.7551151970      4.70E-08
   23    -286.7551151971      7.99E-09 Convergence criterion met
 ---------------------------------------
 <S^2> = 0.8142
 SCF time:  CPU 57.74 s  wall 17.65 s
 SCF   energy in the final basis set = -286.75511520
 Total energy in the final basis set = -286.75511520
 
 --------------------------------------------------------------
 
                    Orbital Energies (a.u.)
 --------------------------------------------------------------
 
 Alpha MOs
 -- Occupied --
-14.324 -10.234 -10.233 -10.214 -10.214 -10.213 -10.212  -0.962
 -0.846  -0.753  -0.651  -0.609  -0.605  -0.536  -0.497  -0.438
 -0.436  -0.420  -0.414  -0.368  -0.358  -0.278  -0.274  -0.240
 -0.136
 -- Virtual --
 -0.043   0.049   0.085   0.086   0.146   0.152   0.156   0.173
  0.181   0.185   0.195   0.272   0.278   0.284   0.355   0.416
  0.489   0.513   0.527   0.530   0.548   0.575   0.586   0.595
  0.626   0.654   0.659   0.685   0.720   0.750   0.768   0.794
  0.807   0.813   0.850   0.860   0.861   0.871   0.931   0.947
  0.951   0.988   1.046   1.106   1.201   1.220   1.276   1.280
  1.395   1.476   1.480   1.532   1.579   1.625   1.629   1.647
  1.756   1.776   1.839   1.861   1.906   2.050   2.059   2.090
  2.120   2.137   2.175   2.255   2.273   2.279   2.349   2.358
  2.388   2.404   2.469   2.536   2.539   2.590   2.638   2.663
  2.681   2.704   2.785   2.956   3.075   3.985   4.207   4.231
  4.313   4.469   4.487   4.533
 
 Beta MOs
 -- Occupied --
-14.322 -10.236 -10.235 -10.213 -10.213 -10.204 -10.202  -0.960
 -0.835  -0.754  -0.640  -0.604  -0.593  -0.532  -0.495  -0.437
 -0.424  -0.419  -0.411  -0.359  -0.354  -0.270  -0.268  -0.212
 -- Virtual --
 -0.032  -0.024   0.057   0.088   0.096   0.147   0.155   0.162
  0.176   0.185   0.191   0.199   0.273   0.278   0.289   0.366
  0.417   0.504   0.517   0.530   0.541   0.551   0.581   0.597
  0.601   0.626   0.653   0.671   0.695   0.725   0.757   0.773
  0.795   0.809   0.819   0.852   0.863   0.867   0.872   0.935
  0.952   0.953   0.993   1.059   1.115   1.204   1.230   1.281
  1.287   1.398   1.477   1.480   1.540   1.588   1.630   1.644
  1.662   1.764   1.783   1.854   1.864   1.910   2.053   2.067
  2.098   2.130   2.145   2.183   2.259   2.289   2.291   2.357
  2.374   2.403   2.407   2.479   2.538   2.548   2.595   2.643
  2.669   2.684   2.708   2.793   2.956   3.077   3.986   4.205
  4.247   4.332   4.466   4.489   4.540
 --------------------------------------------------------------
 
          Ground-State Mulliken Net Atomic Charges

     Atom                 Charge (a.u.)    Spin (a.u.)
  --------------------------------------------------------
      1 C                     0.061891      -0.129265
      2 C                    -0.211728      -0.013594
      3 C                    -0.133790       0.644123
      4 C                    -0.216548      -0.011619
      5 C                     0.068905      -0.135273
      6 N                    -0.333769       0.091608
      7 H                     0.153784       0.006662
      8 H                     0.151331       0.000039
      9 H                     0.144375      -0.028702
     10 H                     0.151178       0.000112
     11 H                     0.153472       0.006852
     12 C                    -0.134431       0.595215
     13 H                     0.145329      -0.026160
  --------------------------------------------------------
  Sum of atomic charges =    -0.000000
  Sum of spin   charges =     1.000000

 -----------------------------------------------------------------
                    Cartesian Multipole Moments
 -----------------------------------------------------------------
    Charge (ESU x 10^10)
                -0.0000
    Dipole Moment (Debye)
         X      -0.9602      Y      -1.6501      Z       0.6009
       Tot       2.0015
    Quadrupole Moments (Debye-Ang)
        XX     -36.8646     XY      -4.3857     YY     -41.4192
        XZ      -0.3292     YZ       0.6729     ZZ     -42.7397
    Octopole Moments (Debye-Ang^2)
       XXX      -5.1066    XXY      -6.7437    XYY     -11.0065
       YYY     -24.6935    XXZ       3.8265    XYZ       2.4219
       YYZ       0.7720    XZZ      -6.8903    YZZ      -8.9980
       ZZZ      11.2433
    Hexadecapole Moments (Debye-Ang^3)
      XXXX    -236.4819   XXXY     -12.9259   XXYY     -87.8954
      XYYY     -24.0602   YYYY    -276.7200   XXXZ       4.4907
      XXYZ      10.2600   XYYZ       7.9314   YYYZ      23.6118
      XXZZ     -70.5957   XYZZ      -3.4506   YYZZ     -68.8398
      XZZZ       1.1494   YZZZ      15.3966   ZZZZ    -160.5150
 -----------------------------------------------------------------
 Calculating analytic gradient of the SCF energy
 Gradient of SCF Energy
            1           2           3           4           5           6
    1   0.0025185   0.0197123   0.0130137  -0.0124973  -0.0111981   0.0036733
    2  -0.0072909  -0.0081324  -0.0102999   0.0189920  -0.0081085   0.0042997
    3   0.0116172  -0.0207881   0.0180325   0.0172532  -0.0108498  -0.0007103
            7           8           9          10          11          12
    1  -0.0025684   0.0113968   0.0098550   0.0001460   0.0043839  -0.0223089
    2  -0.0010537   0.0037425  -0.0131256   0.0161400   0.0021570  -0.0006561
    3  -0.0125201  -0.0112689  -0.0033039   0.0054532   0.0126047  -0.0122186
           13
    1  -0.0161268
    2   0.0033359
    3   0.0066990
 Max gradient component =       2.231E-02
 RMS gradient           =       1.131E-02
 Gradient time:  CPU 7.43 s  wall 2.08 s
 E1 = -286.7546414, E2 = -286.7551152, Emax = -286.7548788
 Iteration 5, Curvature = 0.0333146
 Curvature, final (in Hartree/Bohr^2) = 0.0093290
 ----------------------------------------------------------------
             Standard Nuclear Orientation (Angstroms)
    I     Atom           X                Y                Z
 ----------------------------------------------------------------
    1      C       1.4429803799     0.3633441330    -0.0444450996
    2      C       0.7172040666    -0.9283903411    -0.1855203737
    3      C      -0.6389469920    -0.7700284005    -0.7681981108
    4      C      -1.0855744703     0.3025358917     0.3668878482
    5      C      -0.4694819666     1.3243790727    -0.5256024056
    6      N       0.8482415965     1.4649057694    -0.4952747491
    7      H       2.5088385847     0.3663480092     0.1288807917
    8      H       1.3800133697    -1.7703453729    -0.4240107019
    9      H      -1.1309407109    -1.6619593063    -1.1742565187
   10      H      -2.0472492405     0.6269529970     0.7864963357
   11      H      -1.0814746229     2.1035463579    -0.9508826140
   12      C      -0.0778429156    -0.4575788098     1.1457233819
   13      H      -0.4141931561    -0.9939749921     2.0437524685
 ----------------------------------------------------------------
 Nuclear Repulsion Energy =   279.6234105654 hartrees
 There are       25 alpha and       24 beta electrons
 Requested basis set is 6-31G(d)
 There are 40 shells and 117 basis functions
 Geometry Optimization Parameters
   NAtoms,    NIC,     NZ,  NCons,   NDum,   NFix, NCnnct, MaxDiis
       13     105       0       0       0       0       0       0


** GEOMETRY OPTIMIZATION IN DELOCALIZED INTERNAL COORDINATES **
   Searching for a Minimum

   Optimization Cycle:   1

                       Coordinates (Angstroms)
     ATOM                X               Y               Z
      1  C         1.4429803799    0.3633441330   -0.0444450996
      2  C         0.7172040666   -0.9283903411   -0.1855203737
      3  C        -0.6389469920   -0.7700284005   -0.7681981108
      4  C        -1.0855744703    0.3025358917    0.3668878482
      5  C        -0.4694819666    1.3243790727   -0.5256024056
      6  N         0.8482415965    1.4649057694   -0.4952747491
      7  H         2.5088385847    0.3663480092    0.1288807917
      8  H         1.3800133697   -1.7703453729   -0.4240107019
      9  H        -1.1309407109   -1.6619593063   -1.1742565187
     10  H        -2.0472492405    0.6269529970    0.7864963357
     11  H        -1.0814746229    2.1035463579   -0.9508826140
     12  C        -0.0778429156   -0.4575788098    1.1457233819
     13  H        -0.4141931561   -0.9939749921    2.0437524685
   Point Group: c1    Number of degrees of freedom:    33


   Energy is   -286.755115197


 Attempting to Generate Delocalized Internal Coordinates

 33 Hessian modes will be used to form the next step
  Hessian Eigenvalues:
     0.011426    0.013405    0.015085    0.015192    0.020992    0.023298
     0.037502    0.044432    0.046503    0.050666    0.065482    0.071490
     0.080611    0.085084    0.151460    0.152888    0.156793    0.158645
     0.203249    0.207053    0.212821    0.267316    0.305984    0.321575
     0.328571    0.338178    0.338772    0.339308    0.340635    0.360109
     0.362136    0.538556    0.574277

 Minimum Search - Taking Simple RFO Step
 Searching for Lamda that Minimizes Along All modes
 Value Taken    Lamda =  -0.03719614
 Calculated Step too Large.  Step scaled by  0.518775
 Step Taken.  Stepsize is  0.300000

                             Maximum     Tolerance    Cnvgd?
         Gradient           0.049000      0.000300      NO
         Displacement       0.186639      0.001200      NO
         Energy change     *********      0.000001      NO


 New Cartesian Coordinates Obtained by Inverse Iteration

 Displacement from previous Coordinates is:  0.404110
 ----------------------------------------------------------------
             Standard Nuclear Orientation (Angstroms)
    I     Atom           X                Y                Z
 ----------------------------------------------------------------
    1      C       1.4341324215     0.3666919357    -0.0324287985
    2      C       0.6929018324    -0.9209519475    -0.1798333392
    3      C      -0.6534666138    -0.7332082286    -0.7945973504
    4      C      -1.0671410255     0.2842143713     0.3618375996
    5      C      -0.4659660264     1.3184150133    -0.5331968688
    6      N       0.8488615327     1.4677461397    -0.4942864520
    7      H       2.4920377616     0.3695384636     0.1993523407
    8      H       1.3292338418    -1.7853267767    -0.3864786346
    9      H      -1.1914090100    -1.5899601504    -1.2034914773
   10      H      -2.0411975183     0.5635887281     0.7723751237
   11      H      -1.0887303428     2.0669522732    -1.0055608218
   12      C      -0.0298811269    -0.4414399998     1.1505214702
   13      H      -0.3078018038    -0.9965248137     2.0493374606
 ----------------------------------------------------------------
 Nuclear Repulsion Energy =   280.8264271845 hartrees
 There are       25 alpha and       24 beta electrons

































 Eigenvalues after right structure
 -0.0000000 -0.0000000 0.0000000 0.0000000 0.0000000 0.0000228 0.0051857 0.0137814 0.0177450 0.0322221 0.0491075 0.0551061 0.0574132 0.0615427 0.0636948 0.0676049 0.1062483 0.1069108 0.1158110 0.1251087 0.1450969 0.1495298 0.2025787 0.2528257 0.2736556 0.2899124 0.3920114 0.4499284 0.4578292 0.5944570 0.6785148 0.9195939 0.9362532 1.0298005 1.1327818 1.1583490 1.1804432 1.3765319 1.6621554
Archival summary:
1\1\c8-66\JobtypUnspecified\ProcedureUnspecified\6-31G*\166(2)\hpark21\ThuMar314:46:222022ThuMar314:46:222022\0\\#,JobtypUnspecified,ProcedureUnspecified,6-31G*,\\0,2\N\C,1,1.32385\H,2,1.08225,1,120.419\C,1,1.32973,2,110.729,3,-171.844,0\H,4,1.083,1,120.139,2,-171.077,0\C,4,1.49304,1,117.472,2,24.2573,0\H,6,1.09305,4,114.308,1,144.159,0\C,6,1.49194,4,112.344,1,-2.41115,0\H,8,1.09115,6,120.034,4,163.725,0\C,2,1.49401,1,117.395,3,-165.628,0\H,10,1.09333,2,113.989,1,144.2,0\C,10,1.49148,2,111.946,1,-1.17151,0\H,12,1.09235,10,120.358,2,161.32,0\\\@

 Total job time:  1083.11s(wall), 3884.50s(cpu) 
 Thu Mar  3 14:46:22 2022

        *************************************************************
        *                                                           *
        *  Thank you very much for using Q-Chem.  Have a nice day.  *
        *                                                           *
        *************************************************************


