
Running Job 1 of 1 qcts1.in
qchem qcts1.in_9986.0 ./qcts1.d/ 1
/home/leeping/opt/qchem/5.0.2-openmp/exe/qcprog.exe_s qcts1.in_9986.0 ./qcts1.d/
Check license passed

                  Welcome to Q-Chem
     A Quantum Leap Into The Future Of Chemistry


 Q-Chem 5.0, Q-Chem, Inc., Pleasanton, CA (2017)

 Yihan Shao,  Zhengting Gan,  E. Epifanovsky,  A. T. B. Gilbert,  M. Wormit,  
 J. Kussmann,  A. W. Lange,  A. Behn,  Jia Deng,  Xintian Feng,  D. Ghosh,  
 M. Goldey,  P. R. Horn,  L. D. Jacobson,  I. Kaliman,  T. Kus,  A. Landau,  
 Jie Liu,  E. I. Proynov,  R. M. Richard,  R. P. Steele,  E. J. Sundstrom,  
 H. L. Woodcock III,  P. M. Zimmerman,  D. Zuev,  B. Albrecht,  E. Alguire,  
 S. A. Baeppler,  D. Barton,  Z. Benda,  Y. A. Bernard,  E. J. Berquist,  
 K. B. Bravaya,  H. Burton,  D. Casanova,  Chun-Min Chang,  Yunqing Chen,  
 A. Chien,  K. D. Closser,  M. P. Coons,  S. Dasgupta,  A. L. Dempwolff,  
 M. Diedenhofen,  Hainam Do,  R. G. Edgar,  Po-Tung Fang,  S. Fatehi,  
 Qingguo Feng,  J. Fosso-Tande,  Qinghui Ge,  A. Ghysels,  G. Gidofalvi,  
 J. Gomes,  J. Gonthier,  A. Gunina,  M. W. D. Hanson-Heine,  
 P. H. P. Harbach,  A. W. Hauser,  J. E. Herr,  E. G. Hohenstein,  
 Z. C. Holden,  Kerwin Hui,  T.-C. Jagau,  Hyunjun Ji,  B. Kaduk,  
 K. Khistyaev,  Jaehoon Kim,  P. Klunzinger,  K. Koh,  D. Kosenkov,  
 L. Koulias,  T. Kowalczyk,  C. M. Krauter,  A. Kunitsa,  Ka Un Lao,  
 A. Laurent,  K. V. Lawler,  Joonho Lee,  D. Lefrancois,  S. Lehtola,  
 D. S. Levine,  Yi-Pei Li,  You-Sheng Lin,  Fenglai Liu,  E. Livshits,  
 A. Luenser,  P. Manohar,  E. Mansoor,  S. F. Manzer,  Shan-Ping Mao,  
 Yuezhi Mao,  N. Mardirossian,  A. V. Marenich,  T. Markovich,  
 L. A. Martinez-Martinez,  S. A. Maurer,  N. J. Mayhall,  S. C. McKenzie,  
 J.-M. Mewes,  A. F. Morrison,  J. W. Mullinax,  K. Nanda,  
 T. S. Nguyen-Beck,  R. Olivares-Amaya,  J. A. Parkhill,  T. M. Perrine,  
 F. Plasser,  S. Prager,  A. Prociuk,  E. Ramos,  D. R. Rehn,  F. Rob,  
 M. Schneider,  N. Sergueev,  S. M. Sharada,  S. Sharma,  D. W. Small,  
 T. Stauch,  T. Stein,  Yu-Chuan Su,  A. J. W. Thom,  A. Tkatchenko,  
 T. Tsuchimochi,  L. Vogt,  O. Vydrov,  M. A. Watson,  J. Wenzel,  
 M. de Wergifosse,  T. A. Wesolowski,  A. White,  J. Witte,  A. Yamada,  
 Jun Yang,  K. Yao,  S. Yeganeh,  S. R. Yost,  Zhi-Qiang You,  A. Zech,  
 Igor Ying Zhang,  Xing Zhang,  Yan Zhao,  Ying Zhu,  B. R. Brooks,  
 G. K. L. Chan,  C. J. Cramer,  M. S. Gordon,  W. J. Hehre,  A. Klamt,  
 M. W. Schmidt,  C. D. Sherrill,  D. G. Truhlar,  A. Aspuru-Guzik,  R. Baer,  
 A. T. Bell,  N. A. Besley,  Jeng-Da Chai,  R. A. DiStasio Jr.,  A. Dreuw,  
 B. D. Dunietz,  T. R. Furlani,  Chao-Ping Hsu,  Yousung Jung,  Jing Kong,  
 D. S. Lambrecht,  WanZhen Liang,  C. Ochsenfeld,  V. A. Rassolov,  
 L. V. Slipchenko,  J. E. Subotnik,  T. Van Voorhis,  J. M. Herbert,  
 A. I. Krylov,  P. M. W. Gill,  M. Head-Gordon

 Contributors to earlier versions of Q-Chem not listed above: 
 R. D. Adamson,  B. Austin,  J. Baker,  G. J. O. Beran,  K. Brandhorst,  
 S. T. Brown,  E. F. C. Byrd,  A. K. Chakraborty,  C.-L. Cheng,  
 Siu Hung Chien,  D. M. Chipman,  D. L. Crittenden,  H. Dachsel,  
 R. J. Doerksen,  A. D. Dutoi,  L. Fusti-Molnar,  W. A. Goddard III,  
 A. Golubeva-Zadorozhnaya,  S. R. Gwaltney,  G. Hawkins,  A. Heyden,  
 S. Hirata,  G. Kedziora,  F. J. Keil,  C. Kelley,  Jihan Kim,  R. A. King,  
 R. Z. Khaliullin,  P. P. Korambath,  W. Kurlancheek,  A. M. Lee,  M. S. Lee,  
 S. V. Levchenko,  Ching Yeh Lin,  D. Liotard,  R. C. Lochan,  I. Lotan,  
 P. E. Maslen,  N. Nair,  D. P. O'Neill,  D. Neuhauser,  E. Neuscamman,  
 C. M. Oana,  R. Olson,  B. Peters,  R. Peverati,  P. A. Pieniazek,  
 Y. M. Rhee,  J. Ritchie,  M. A. Rohrdanz,  E. Rosta,  N. J. Russ,  
 H. F. Schaefer III,  N. E. Schultz,  N. Shenvi,  A. C. Simmonett,  A. Sodt,  
 D. Stuck,  K. S. Thanthiriwatte,  V. Vanovschi,  Tao Wang,  A. Warshel,  
 C. F. Williams,  Q. Wu,  X. Xu,  W. Zhang

 Please cite Q-Chem as follows:
 Y. Shao et al., Mol. Phys. 113, 184-215 (2015)
 DOI: 10.1080/00268976.2014.952696

 Q-Chem 5.0.2 for Intel X86 EM64T Linux

 Parts of Q-Chem use Armadillo 5.200.1 (Boston Tea Smuggler).
 http://arma.sourceforge.net/

 Q-Chem begins on Thu Mar  3 14:46:48 2022  

Host: 
0

     Scratch files written to ./qcts1.d//
 Dec517 15110_ 26548  26544 5633   
Processing $rem in /home/leeping/opt/qchem/5.0.2-openmp/config/preferences.
 MEM_STATIC 2000
 MEM_TOTAL  8000
 SYMMETRY   OFF
 SYM_IGNORE TRUE 

Checking the input file for inconsistencies... 	...done.

--------------------------------------------------------------
User input:
--------------------------------------------------------------
$molecule
0 2
C        1.4341324215    0.3666919357   -0.0324287985
C        0.6929018324   -0.9209519475   -0.1798333392
C       -0.6534666138   -0.7332082286   -0.7945973504
C       -1.0671410255    0.2842143713    0.3618375996
C       -0.4659660264    1.3184150133   -0.5331968688
N        0.8488615327    1.4677461397   -0.4942864520
H        2.4920377616    0.3695384636    0.1993523407
H        1.3292338418   -1.7853267767   -0.3864786346
H       -1.1914090100   -1.5899601504   -1.2034914773
H       -2.0411975183    0.5635887281    0.7723751237
H       -1.0887303428    2.0669522732   -1.0055608218
C       -0.0298811269   -0.4414399998    1.1505214702
H       -0.3078018038   -0.9965248137    2.0493374606
$end

$rem
method                b3lyp
basis                 6-31g(d)
unrestricted          true
symmetry              off
sym_ignore            true
incdft                false
incfock               0
scf_convergence       6
thresh                14
jobtype               sp
scf_guess             read
scf_algorithm         diis
max_scf_cycles        100
stability_analysis    true
max_cis_cycles        100
cis_n_roots           4
$end

--------------------------------------------------------------
 ----------------------------------------------------------------
             Standard Nuclear Orientation (Angstroms)
    I     Atom           X                Y                Z
 ----------------------------------------------------------------
    1      C       1.4341324215     0.3666919357    -0.0324287985
    2      C       0.6929018324    -0.9209519475    -0.1798333392
    3      C      -0.6534666138    -0.7332082286    -0.7945973504
    4      C      -1.0671410255     0.2842143713     0.3618375996
    5      C      -0.4659660264     1.3184150133    -0.5331968688
    6      N       0.8488615327     1.4677461397    -0.4942864520
    7      H       2.4920377616     0.3695384636     0.1993523407
    8      H       1.3292338418    -1.7853267767    -0.3864786346
    9      H      -1.1914090100    -1.5899601504    -1.2034914773
   10      H      -2.0411975183     0.5635887281     0.7723751237
   11      H      -1.0887303428     2.0669522732    -1.0055608218
   12      C      -0.0298811269    -0.4414399998     1.1505214702
   13      H      -0.3078018038    -0.9965248137     2.0493374606
 ----------------------------------------------------------------
 Nuclear Repulsion Energy =   280.8264271890 hartrees
 There are       25 alpha and       24 beta electrons
 Requested basis set is 6-31G(d)
 There are 40 shells and 117 basis functions

 Total QAlloc Memory Limit   8000 MB
 Mega-Array Size      1956 MB
 MEM_STATIC part      2000 MB

                       Distance Matrix (Angstroms)
             C (  1)   C (  2)   C (  3)   C (  4)   C (  5)   N (  6)
   C (  2)  1.493043
   C (  3)  2.479668  1.491942
   C (  4)  2.533499  2.200814  1.594872
   C (  5)  2.183328  2.546096  2.076691  1.494011
   N (  6)  1.329727  2.414349  2.681674  2.409307  1.323852
   H (  7)  1.083002  2.246339  3.478244  3.563907  3.191674  2.094570
   H (  8)  2.183470  1.093053  2.281363  3.253550  3.588521  3.290116
   H (  9)  3.477548  2.246347  1.091146  2.445041  3.071516  3.743694
   H ( 10)  3.572729  3.253592  2.462292  1.093333  2.180742  3.282434
   H ( 11)  3.194168  3.575418  2.841630  2.246864  1.082253  2.091581
   C ( 12)  2.048361  1.588141  2.063365  1.491477  2.474301  2.668815
   H ( 13)  3.037506  2.444652  2.876940  2.250454  3.471807  3.725658
             H (  7)   H (  8)   H (  9)   H ( 10)   H ( 11)   C ( 12)
   H (  8)  2.517688
   H (  9)  4.401748  2.656938
   H ( 10)  4.573427  4.268507  3.043676
   H ( 11)  4.141851  4.590193  3.663704  2.515622
   C ( 12)  2.814691  2.452671  2.865244  2.280016  3.473022
   H ( 13)  3.623213  3.038963  3.422546  2.658806  4.396265  1.092350

 
 A cutoff of  1.0D-14 yielded    812 shell pairs
 There are      7084 function pairs
 Smallest overlap matrix eigenvalue = 2.14E-03

 Scale SEOQF with 1.000000e-01/1.000000e-01/1.000000e-01

 Standard Electronic Orientation quadrupole field applied
 Nucleus-field energy     =     0.0000000025 hartrees
 Guess MOs from SCF MO coefficient file
 Reading MOs from coefficient file
 Reading MOs from coefficient file
 An unrestricted hybrid HF-DFT SCF calculation will be
 performed using Pulay DIIS extrapolation
 Exchange:     0.2000 Hartree-Fock + 0.0800 Slater + 0.7200 B88
 Correlation:  0.1900 VWN1RPA + 0.8100 LYP
 Using SG-1 standard quadrature grid
 SCF converges when DIIS error is below 1.0E-06
Using Q-Chem read-in guess as SCF_GUESS READ specified.

 -------------------------------------------------------
 OpenMP BLAS3 based DFT computing Module                
 -------------------------------------------------------
 ---------------------------------------
  Cycle       Energy         DIIS Error
 ---------------------------------------
    1    -286.7712868817      2.55E-09
    2    -286.7712868817      4.48E-09 Convergence criterion met
 ---------------------------------------
 <S^2> = 0.8048
 SCF time:  CPU 3.18 s  wall 4.21 s
 SCF   energy in the final basis set = -286.77128688
 Total energy in the final basis set = -286.77128688
 
 Direct TDDFT/TDA calculation will be performed
 Exchange:     0.2000 Hartree-Fock + 0.0800 Slater + 0.7200 B88
 Correlation:  0.1900 VWN1RPA + 0.8100 LYP
 Using SG-1 standard quadrature grid
 CIS energy converged when residual is below 10e- 6
 ---------------------------------------------------
 Iter    Rts Conv    Rts Left    Ttl Dev     Max Dev
 ---------------------------------------------------
   1         0           4      0.006911    0.002603
   2         0           4      0.001767    0.000621
   3         0           4      0.000719    0.000301
   4         0           4      0.000303    0.000181
   5         0           4      0.000157    0.000110
   6         1           3      0.000052    0.000038
   7         1           3      0.000021    0.000017
   8         3           1      0.000007    0.000005
   9         3           1      0.000005    0.000004
  10         3           1      0.000003    0.000001
  11         4           0      0.000002    0.000001    Roots Converged
 ---------------------------------------------------
 
 ---------------------------------------------------
         TDDFT/TDA Excitation Energies              
 ---------------------------------------------------

 Excited state   1: excitation energy (eV) =    1.7676
 Total energy for state  1:                  -286.70632891 au
    <S**2>     :  0.7685
    Trans. Mom.:  0.0311 X  -0.0642 Y  -0.1844 Z
    Strength   :     0.0016921123
    S(  1) --> V(  1) amplitude =  0.9648 alpha
    D( 24) --> S(  1) amplitude =  0.2345 beta

 Excited state   2: excitation energy (eV) =    3.3358
 Total energy for state  2:                  -286.64869741 au
    <S**2>     :  2.4291
    Trans. Mom.:  0.0362 X   0.0887 Y  -0.0539 Z
    Strength   :     0.0009872845
    D( 24) --> V(  1) amplitude =  0.5456 alpha
    S(  1) --> V(  2) amplitude =  0.2727 alpha
    D( 24) --> V(  1) amplitude =  0.7747 beta

 Excited state   3: excitation energy (eV) =    3.7414
 Total energy for state  3:                  -286.63379427 au
    <S**2>     :  0.8129
    Trans. Mom.:  0.3258 X   0.0268 Y   0.6071 Z
    Strength   :     0.0435797914
    D( 22) --> V(  1) amplitude = -0.1897 alpha
    S(  1) --> V(  1) amplitude = -0.2085 alpha
    D( 24) --> S(  1) amplitude =  0.9226 beta

 Excited state   4: excitation energy (eV) =    4.3083
 Total energy for state  4:                  -286.61295833 au
    <S**2>     :  1.1231
    Trans. Mom.: -0.0243 X   0.0114 Y  -0.0328 Z
    Strength   :     0.0001896924
    D( 24) --> V(  1) amplitude = -0.4024 alpha
    S(  1) --> V(  2) amplitude =  0.8317 alpha
    D( 22) --> V(  1) amplitude =  0.1567 beta
    D( 23) --> S(  1) amplitude = -0.2749 beta
 
 ---------------------------------------------------

 Stability analysis will be performed
 ---------------------------------------------------
 Iter    Rts Conv    Rts Left    Ttl Dev     Max Dev
 ---------------------------------------------------
   1         0           8      0.006036    0.001067
   2         0           8      0.003004    0.000804
   3         0           8      0.001231    0.000412
   4         1           7      0.000466    0.000184
   5         1           7      0.000218    0.000127
   6         3           5      0.000104    0.000071
   7         4           4      0.000080    0.000064
   8         6           2      0.000032    0.000026
   9         6           2      0.000013    0.000010
  10         7           1      0.000006    0.000003
  11         8           0      0.000003    0.000001    Roots Converged
 UKS-> UKS   stable,    smallest eigenvalue:      0.0520261
 UKS->CUKS   stable,    smallest eigenvalue:      0.0667079
 ---------------------------------------------------
  SETman timing summary (seconds)
  CPU time                84.22s
  System time              0.00s
  Wall time               85.02s
 
 --------------------------------------------------------------
 
                    Orbital Energies (a.u.)
 --------------------------------------------------------------
 
 Alpha MOs
 -- Occupied --
-14.322 -10.234 -10.233 -10.212 -10.211 -10.211 -10.211  -0.965
 -0.847  -0.752  -0.652  -0.609  -0.604  -0.537  -0.498  -0.439
 -0.439  -0.420  -0.413  -0.372  -0.353  -0.275  -0.274  -0.242
 -0.150
 -- Virtual --
 -0.033   0.056   0.089   0.095   0.150   0.155   0.165   0.167
  0.180   0.190   0.191   0.272   0.280   0.284   0.355   0.417
  0.489   0.516   0.524   0.531   0.539   0.573   0.583   0.600
  0.629   0.658   0.659   0.691   0.724   0.757   0.763   0.801
  0.803   0.813   0.853   0.862   0.864   0.870   0.937   0.937
  0.943   0.996   1.047   1.111   1.189   1.233   1.290   1.309
  1.405   1.464   1.472   1.524   1.579   1.625   1.659   1.694
  1.749   1.788   1.830   1.852   1.909   2.058   2.066   2.107
  2.120   2.137   2.165   2.250   2.266   2.290   2.352   2.354
  2.411   2.423   2.478   2.544   2.548   2.593   2.652   2.659
  2.683   2.699   2.799   2.959   3.065   3.989   4.217   4.236
  4.309   4.466   4.509   4.563
 
 Beta MOs
 -- Occupied --
-14.319 -10.236 -10.235 -10.211 -10.211 -10.203 -10.201  -0.962
 -0.837  -0.753  -0.638  -0.600  -0.599  -0.533  -0.495  -0.438
 -0.427  -0.419  -0.409  -0.364  -0.349  -0.269  -0.267  -0.214
 -- Virtual --
 -0.038  -0.021   0.065   0.091   0.105   0.150   0.155   0.171
  0.172   0.184   0.192   0.198   0.273   0.281   0.288   0.365
  0.418   0.503   0.520   0.532   0.538   0.541   0.582   0.591
  0.607   0.630   0.658   0.669   0.700   0.729   0.763   0.768
  0.802   0.805   0.818   0.856   0.865   0.869   0.872   0.937
  0.942   0.948   1.001   1.060   1.118   1.192   1.243   1.298
  1.313   1.408   1.463   1.474   1.531   1.587   1.632   1.669
  1.709   1.760   1.795   1.845   1.856   1.913   2.061   2.074
  2.115   2.129   2.146   2.175   2.264   2.270   2.306   2.359
  2.361   2.414   2.440   2.486   2.549   2.558   2.599   2.658
  2.664   2.686   2.703   2.807   2.959   3.068   3.991   4.214
  4.252   4.328   4.464   4.512   4.569
 --------------------------------------------------------------
 
          Ground-State Mulliken Net Atomic Charges

     Atom                 Charge (a.u.)    Spin (a.u.)
  --------------------------------------------------------
      1 C                     0.055407      -0.123234
      2 C                    -0.208750      -0.019999
      3 C                    -0.127943       0.641239
      4 C                    -0.214982      -0.017813
      5 C                     0.064001      -0.130354
      6 N                    -0.333470       0.115143
      7 H                     0.154161       0.006158
      8 H                     0.148291       0.000083
      9 H                     0.144871      -0.028025
     10 H                     0.147941       0.000191
     11 H                     0.153693       0.006369
     12 C                    -0.129058       0.575210
     13 H                     0.145838      -0.024968
  --------------------------------------------------------
  Sum of atomic charges =    -0.000000
  Sum of spin   charges =     1.000000

 -----------------------------------------------------------------
                    Cartesian Multipole Moments
 -----------------------------------------------------------------
    Charge (ESU x 10^10)
                -0.0000
    Dipole Moment (Debye)
         X      -1.0295      Y      -1.7634      Z       0.6426
       Tot       2.1406
    Quadrupole Moments (Debye-Ang)
        XX     -37.0217     XY      -4.1344     YY     -41.6141
        XZ       0.1973     YZ       0.4683     ZZ     -42.4432
    Octopole Moments (Debye-Ang^2)
       XXX      -6.0894    XXY      -7.1772    XYY     -11.0007
       YYY     -25.7773    XXZ       3.9260    XYZ       2.3269
       YYZ       1.0402    XZZ      -6.9751    YZZ      -9.3142
       ZZZ      11.5603
    Hexadecapole Moments (Debye-Ang^3)
      XXXX    -233.9709   XXXY     -12.2635   XXYY     -87.0994
      XYYY     -24.2836   YYYY    -273.4371   XXXZ       3.0350
      XXYZ      10.2909   XYYZ       7.4891   YYYZ      23.2748
      XXZZ     -70.4384   XYZZ      -3.8301   YYZZ     -68.1023
      XZZZ      -1.0861   YZZZ      15.6706   ZZZZ    -161.5623
 -----------------------------------------------------------------
Archival summary:
1\1\c8-66\SP\ProcedureUnspecified\6-31G*\166(2)\hpark21\ThuMar314:48:182022ThuMar314:48:182022\0\\#,ProcedureUnspecified,6-31G*,\\0,2\N\C,1,1.32385\H,2,1.08225,1,120.419\C,1,1.32973,2,110.729,3,-171.844,0\H,4,1.083,1,120.139,2,-171.077,0\C,4,1.49304,1,117.472,2,24.2573,0\H,6,1.09305,4,114.308,1,144.159,0\C,6,1.49194,4,112.344,1,-2.41115,0\H,8,1.09115,6,120.034,4,163.725,0\C,2,1.49401,1,117.395,3,-165.628,0\H,10,1.09333,2,113.989,1,144.2,0\C,10,1.49148,2,111.946,1,-1.17151,0\H,12,1.09235,10,120.358,2,161.32,0\\\@

 Total job time:  89.95s(wall), 87.57s(cpu) 
 Thu Mar  3 14:48:18 2022

        *************************************************************
        *                                                           *
        *  Thank you very much for using Q-Chem.  Have a nice day.  *
        *                                                           *
        *************************************************************


