
Running Job 1 of 1 qcts2.in
qchem qcts2.in_11034.0 ./qcts2.d/ 1
/home/leeping/opt/qchem/5.0.2-openmp/exe/qcprog.exe_s qcts2.in_11034.0 ./qcts2.d/
Check license passed

                  Welcome to Q-Chem
     A Quantum Leap Into The Future Of Chemistry


 Q-Chem 5.0, Q-Chem, Inc., Pleasanton, CA (2017)

 Yihan Shao,  Zhengting Gan,  E. Epifanovsky,  A. T. B. Gilbert,  M. Wormit,  
 J. Kussmann,  A. W. Lange,  A. Behn,  Jia Deng,  Xintian Feng,  D. Ghosh,  
 M. Goldey,  P. R. Horn,  L. D. Jacobson,  I. Kaliman,  T. Kus,  A. Landau,  
 Jie Liu,  E. I. Proynov,  R. M. Richard,  R. P. Steele,  E. J. Sundstrom,  
 H. L. Woodcock III,  P. M. Zimmerman,  D. Zuev,  B. Albrecht,  E. Alguire,  
 S. A. Baeppler,  D. Barton,  Z. Benda,  Y. A. Bernard,  E. J. Berquist,  
 K. B. Bravaya,  H. Burton,  D. Casanova,  Chun-Min Chang,  Yunqing Chen,  
 A. Chien,  K. D. Closser,  M. P. Coons,  S. Dasgupta,  A. L. Dempwolff,  
 M. Diedenhofen,  Hainam Do,  R. G. Edgar,  Po-Tung Fang,  S. Fatehi,  
 Qingguo Feng,  J. Fosso-Tande,  Qinghui Ge,  A. Ghysels,  G. Gidofalvi,  
 J. Gomes,  J. Gonthier,  A. Gunina,  M. W. D. Hanson-Heine,  
 P. H. P. Harbach,  A. W. Hauser,  J. E. Herr,  E. G. Hohenstein,  
 Z. C. Holden,  Kerwin Hui,  T.-C. Jagau,  Hyunjun Ji,  B. Kaduk,  
 K. Khistyaev,  Jaehoon Kim,  P. Klunzinger,  K. Koh,  D. Kosenkov,  
 L. Koulias,  T. Kowalczyk,  C. M. Krauter,  A. Kunitsa,  Ka Un Lao,  
 A. Laurent,  K. V. Lawler,  Joonho Lee,  D. Lefrancois,  S. Lehtola,  
 D. S. Levine,  Yi-Pei Li,  You-Sheng Lin,  Fenglai Liu,  E. Livshits,  
 A. Luenser,  P. Manohar,  E. Mansoor,  S. F. Manzer,  Shan-Ping Mao,  
 Yuezhi Mao,  N. Mardirossian,  A. V. Marenich,  T. Markovich,  
 L. A. Martinez-Martinez,  S. A. Maurer,  N. J. Mayhall,  S. C. McKenzie,  
 J.-M. Mewes,  A. F. Morrison,  J. W. Mullinax,  K. Nanda,  
 T. S. Nguyen-Beck,  R. Olivares-Amaya,  J. A. Parkhill,  T. M. Perrine,  
 F. Plasser,  S. Prager,  A. Prociuk,  E. Ramos,  D. R. Rehn,  F. Rob,  
 M. Schneider,  N. Sergueev,  S. M. Sharada,  S. Sharma,  D. W. Small,  
 T. Stauch,  T. Stein,  Yu-Chuan Su,  A. J. W. Thom,  A. Tkatchenko,  
 T. Tsuchimochi,  L. Vogt,  O. Vydrov,  M. A. Watson,  J. Wenzel,  
 M. de Wergifosse,  T. A. Wesolowski,  A. White,  J. Witte,  A. Yamada,  
 Jun Yang,  K. Yao,  S. Yeganeh,  S. R. Yost,  Zhi-Qiang You,  A. Zech,  
 Igor Ying Zhang,  Xing Zhang,  Yan Zhao,  Ying Zhu,  B. R. Brooks,  
 G. K. L. Chan,  C. J. Cramer,  M. S. Gordon,  W. J. Hehre,  A. Klamt,  
 M. W. Schmidt,  C. D. Sherrill,  D. G. Truhlar,  A. Aspuru-Guzik,  R. Baer,  
 A. T. Bell,  N. A. Besley,  Jeng-Da Chai,  R. A. DiStasio Jr.,  A. Dreuw,  
 B. D. Dunietz,  T. R. Furlani,  Chao-Ping Hsu,  Yousung Jung,  Jing Kong,  
 D. S. Lambrecht,  WanZhen Liang,  C. Ochsenfeld,  V. A. Rassolov,  
 L. V. Slipchenko,  J. E. Subotnik,  T. Van Voorhis,  J. M. Herbert,  
 A. I. Krylov,  P. M. W. Gill,  M. Head-Gordon

 Contributors to earlier versions of Q-Chem not listed above: 
 R. D. Adamson,  B. Austin,  J. Baker,  G. J. O. Beran,  K. Brandhorst,  
 S. T. Brown,  E. F. C. Byrd,  A. K. Chakraborty,  C.-L. Cheng,  
 Siu Hung Chien,  D. M. Chipman,  D. L. Crittenden,  H. Dachsel,  
 R. J. Doerksen,  A. D. Dutoi,  L. Fusti-Molnar,  W. A. Goddard III,  
 A. Golubeva-Zadorozhnaya,  S. R. Gwaltney,  G. Hawkins,  A. Heyden,  
 S. Hirata,  G. Kedziora,  F. J. Keil,  C. Kelley,  Jihan Kim,  R. A. King,  
 R. Z. Khaliullin,  P. P. Korambath,  W. Kurlancheek,  A. M. Lee,  M. S. Lee,  
 S. V. Levchenko,  Ching Yeh Lin,  D. Liotard,  R. C. Lochan,  I. Lotan,  
 P. E. Maslen,  N. Nair,  D. P. O'Neill,  D. Neuhauser,  E. Neuscamman,  
 C. M. Oana,  R. Olson,  B. Peters,  R. Peverati,  P. A. Pieniazek,  
 Y. M. Rhee,  J. Ritchie,  M. A. Rohrdanz,  E. Rosta,  N. J. Russ,  
 H. F. Schaefer III,  N. E. Schultz,  N. Shenvi,  A. C. Simmonett,  A. Sodt,  
 D. Stuck,  K. S. Thanthiriwatte,  V. Vanovschi,  Tao Wang,  A. Warshel,  
 C. F. Williams,  Q. Wu,  X. Xu,  W. Zhang

 Please cite Q-Chem as follows:
 Y. Shao et al., Mol. Phys. 113, 184-215 (2015)
 DOI: 10.1080/00268976.2014.952696

 Q-Chem 5.0.2 for Intel X86 EM64T Linux

 Parts of Q-Chem use Armadillo 5.200.1 (Boston Tea Smuggler).
 http://arma.sourceforge.net/

 Q-Chem begins on Thu Mar  3 15:06:06 2022  

Host: 
0

     Scratch files written to ./qcts2.d//
 Dec517 15110_ 26548  26544 5633   
Processing $rem in /home/leeping/opt/qchem/5.0.2-openmp/config/preferences.
 MEM_STATIC 2000
 MEM_TOTAL  8000
 SYMMETRY   OFF
 SYM_IGNORE TRUE 

Checking the input file for inconsistencies... 	...done.

--------------------------------------------------------------
User input:
--------------------------------------------------------------
$molecule
0 2
C        1.2891059348    0.2902233781    0.2171687822
C        0.6169520258   -1.0283042309   -0.1872368568
C       -0.7078849638   -0.6204267597   -0.8018026740
C       -1.0706866190    0.1885777320    0.3862680841
C       -0.5129302034    1.2071141481   -0.5977994516
N        0.8045370071    1.4181007001   -0.5208384370
H        2.3292790409    0.2823668913    0.5252812428
H        1.1654483794   -1.9498376501   -0.3466047151
H       -1.2781424256   -1.0010675403   -1.6392846551
H       -2.0536990017    0.3106886832    0.8357846833
H       -1.1578611197    1.8268520106   -1.2119270956
C        0.2102159086   -0.3253840127    1.1043579618
H        0.3172399590   -0.6291683415    2.1401833832
$end

$rem
method                b3lyp
basis                 6-31+g(d,p)
unrestricted          true
symmetry              off
sym_ignore            true
incdft                false
incfock               0
scf_convergence       8
thresh                14
jobtype               freq
scf_guess             read
scf_algorithm         diis
max_scf_cycles        100
$end

--------------------------------------------------------------
 ----------------------------------------------------------------
             Standard Nuclear Orientation (Angstroms)
    I     Atom           X                Y                Z
 ----------------------------------------------------------------
    1      C       1.2891059348     0.2902233781     0.2171687822
    2      C       0.6169520258    -1.0283042309    -0.1872368568
    3      C      -0.7078849638    -0.6204267597    -0.8018026740
    4      C      -1.0706866190     0.1885777320     0.3862680841
    5      C      -0.5129302034     1.2071141481    -0.5977994516
    6      N       0.8045370071     1.4181007001    -0.5208384370
    7      H       2.3292790409     0.2823668913     0.5252812428
    8      H       1.1654483794    -1.9498376501    -0.3466047151
    9      H      -1.2781424256    -1.0010675403    -1.6392846551
   10      H      -2.0536990017     0.3106886832     0.8357846833
   11      H      -1.1578611197     1.8268520106    -1.2119270956
   12      C       0.2102159086    -0.3253840127     1.1043579618
   13      H       0.3172399590    -0.6291683415     2.1401833832
 ----------------------------------------------------------------
 Nuclear Repulsion Energy =   286.4216838507 hartrees
 There are       25 alpha and       24 beta electrons
 Requested basis set is 6-31+G(d,p)
 There are 53 shells and 163 basis functions

 Total QAlloc Memory Limit   8000 MB
 Mega-Array Size      1956 MB
 MEM_STATIC part      2000 MB

                       Distance Matrix (Angstroms)
             C (  1)   C (  2)   C (  3)   C (  4)   C (  5)   N (  6)
   C (  2)  1.534226
   C (  3)  2.419826  1.516327
   C (  4)  2.368026  2.158202  1.482439
   C (  5)  2.179953  2.538167  1.849197  1.522136
   N (  6)  1.432330  2.476161  2.553812  2.418891  1.336472
   H (  7)  1.084876  2.271036  3.435193  3.404099  3.192902  2.170045
   H (  8)  2.313224  1.084191  2.341776  3.179658  3.584187  3.391699
   H (  9)  3.421201  2.387586  1.082339  2.358211  2.558575  3.382433
   H ( 10)  3.399625  3.157824  2.315142  1.087791  2.287512  3.352059
   H ( 11)  3.223537  3.514523  2.521875  2.290365  1.084972  2.120304
   C ( 12)  1.526460  1.525696  2.136213  1.555802  2.401839  2.456465
   H ( 13)  2.342603  2.380341  3.115484  2.381442  3.399657  3.392611
             H (  7)   H (  8)   H (  9)   H ( 10)   H ( 11)   C ( 12)
   H (  8)  2.664099
   H (  9)  4.398413  2.922725
   H ( 10)  4.394054  4.107424  2.906572
   H ( 11)  4.190880  4.517736  2.862557  2.700815
   C ( 12)  2.279280  2.378363  3.193640  2.366861  3.445132
   H ( 13)  2.736258  2.940704  4.119215  2.864636  4.409604  1.084746

 
 A cutoff of  1.0D-14 yielded   1405 shell pairs
 There are     13517 function pairs
 Smallest overlap matrix eigenvalue = 1.83E-05
 Guess MOs from SCF MO coefficient file
 Reading MOs from coefficient file
 Reading MOs from coefficient file
 An unrestricted hybrid HF-DFT SCF calculation will be
 performed using Pulay DIIS extrapolation
 Exchange:     0.2000 Hartree-Fock + 0.0800 Slater + 0.7200 B88
 Correlation:  0.1900 VWN1RPA + 0.8100 LYP
 Using SG-1 standard quadrature grid
 SCF converges when DIIS error is below 1.0E-08
Using Q-Chem read-in guess as SCF_GUESS READ specified.

 -------------------------------------------------------
 OpenMP BLAS3 based DFT computing Module                
 -------------------------------------------------------
 ---------------------------------------
  Cycle       Energy         DIIS Error
 ---------------------------------------
    1    -286.8367193832      1.29E-09
    2    -286.8367193832      2.35E-09 Convergence criterion met
 ---------------------------------------
 <S^2> = 0.7707
 SCF time:  CPU 6.50 s  wall 6.87 s
 SCF   energy in the final basis set = -286.83671938
 Total energy in the final basis set = -286.83671938
 
 --------------------------------------------------------------
 
                    Orbital Energies (a.u.)
 --------------------------------------------------------------
 
 Alpha MOs
 -- Occupied --
-14.336 -10.230 -10.230 -10.225 -10.221 -10.216 -10.214  -0.990
 -0.854  -0.786  -0.664  -0.603  -0.582  -0.550  -0.537  -0.456
 -0.451  -0.418  -0.414  -0.387  -0.350  -0.293  -0.279  -0.256
 -0.202
 -- Virtual --
  0.001   0.015   0.016   0.020   0.037   0.043   0.058   0.060
  0.071   0.077   0.084   0.092   0.109   0.112   0.117   0.118
  0.125   0.138   0.148   0.160   0.162   0.174   0.180   0.187
  0.192   0.197   0.208   0.216   0.223   0.245   0.251   0.253
  0.263   0.270   0.285   0.295   0.304   0.320   0.338   0.344
  0.361   0.374   0.417   0.455   0.606   0.653   0.678   0.691
  0.710   0.730   0.741   0.747   0.760   0.775   0.785   0.789
  0.801   0.830   0.857   0.892   0.903   0.923   0.945   0.961
  0.979   1.017   1.039   1.052   1.085   1.101   1.137   1.199
  1.239   1.259   1.361   1.416   1.418   1.489   1.537   1.541
  1.580   1.611   1.632   1.674   1.697   1.779   1.814   1.881
  1.911   1.939   1.967   2.001   2.016   2.114   2.145   2.158
  2.186   2.248   2.292   2.332   2.353   2.360   2.375   2.395
  2.416   2.449   2.459   2.477   2.503   2.517   2.552   2.570
  2.599   2.625   2.634   2.673   2.696   2.723   2.764   2.790
  2.869   2.936   2.973   3.067   3.090   3.239   3.280   3.376
  3.480   3.561   3.781   4.166   4.456   4.510   4.540   4.608
  4.802   4.929
 
 Beta MOs
 -- Occupied --
-14.325 -10.232 -10.226 -10.222 -10.220 -10.214 -10.214  -0.981
 -0.838  -0.781  -0.654  -0.601  -0.576  -0.544  -0.531  -0.453
 -0.446  -0.410  -0.403  -0.378  -0.338  -0.287  -0.266  -0.241
 -- Virtual --
 -0.093   0.001   0.016   0.016   0.023   0.038   0.043   0.059
  0.068   0.072   0.082   0.086   0.095   0.111   0.114   0.118
  0.122   0.128   0.139   0.149   0.162   0.163   0.176   0.181
  0.189   0.193   0.198   0.209   0.219   0.226   0.246   0.255
  0.261   0.265   0.272   0.290   0.296   0.306   0.323   0.340
  0.345   0.363   0.380   0.422   0.460   0.608   0.657   0.687
  0.698   0.716   0.734   0.742   0.751   0.762   0.781   0.787
  0.791   0.803   0.836   0.861   0.893   0.906   0.924   0.946
  0.972   0.981   1.023   1.043   1.056   1.104   1.107   1.146
  1.202   1.244   1.262   1.362   1.422   1.428   1.506   1.541
  1.552   1.588   1.616   1.643   1.676   1.703   1.785   1.819
  1.885   1.916   1.943   1.974   2.008   2.022   2.118   2.154
  2.166   2.195   2.252   2.301   2.338   2.356   2.364   2.379
  2.397   2.421   2.454   2.462   2.482   2.505   2.519   2.558
  2.573   2.605   2.632   2.644   2.681   2.703   2.727   2.769
  2.799   2.871   2.939   2.976   3.069   3.093   3.240   3.280
  3.378   3.481   3.561   3.785   4.185   4.465   4.513   4.538
  4.609   4.808   4.933
 --------------------------------------------------------------
 
          Ground-State Mulliken Net Atomic Charges

     Atom                 Charge (a.u.)    Spin (a.u.)
  --------------------------------------------------------
      1 C                    -0.276206      -0.017445
      2 C                    -0.022260      -0.034407
      3 C                    -0.141128       0.573472
      4 C                     0.042732      -0.028006
      5 C                    -0.236006      -0.146898
      6 N                    -0.112866       0.567031
      7 H                     0.140484       0.000711
      8 H                     0.134667      -0.000627
      9 H                     0.140903      -0.023697
     10 H                     0.130911       0.012379
     11 H                     0.140626       0.003632
     12 C                    -0.072481       0.098290
     13 H                     0.130625      -0.004436
  --------------------------------------------------------
  Sum of atomic charges =     0.000000
  Sum of spin   charges =     1.000000

 -----------------------------------------------------------------
                    Cartesian Multipole Moments
 -----------------------------------------------------------------
    Charge (ESU x 10^10)
                 0.0000
    Dipole Moment (Debye)
         X      -1.5732      Y      -2.1541      Z       0.8903
       Tot       2.8121
    Quadrupole Moments (Debye-Ang)
        XX     -38.7804     XY      -4.4831     YY     -45.0137
        XZ       2.9626     YZ       1.3820     ZZ     -40.5592
    Octopole Moments (Debye-Ang^2)
       XXX      -9.6680    XXY      -7.7799    XYY      -8.7591
       YYY     -26.7214    XXZ       4.7505    XYZ       2.5716
       YYZ       1.6495    XZZ      -7.3432    YZZ      -9.0168
       ZZZ      10.3577
    Hexadecapole Moments (Debye-Ang^3)
      XXXX    -235.3588   XXXY      -7.9927   XXYY     -88.1548
      XYYY     -22.1984   YYYY    -270.5993   XXXZ      -7.9486
      XXYZ       9.6007   XYYZ       3.3060   YYYZ      23.8867
      XXZZ     -69.4271   XYZZ      -3.7659   YYZZ     -71.2972
      XZZZ      -7.3501   YZZZ      19.2346   ZZZZ    -169.9569
 -----------------------------------------------------------------
 Calculating MO derivatives via CPSCF
   1         3          39      0.271360    0.051602
   2         3          39      0.035577    0.006490
   3         3          39      0.004848    0.000979
   4         3          39      0.000535    0.000115
   5        28          14      0.000045    0.000011
   6        40           2      0.000002    0.000001
   7        42           0      0.000000    0.000000    Roots Converged
 Time for AOints: 19.4 s (CPU) 19.7 s (wall)
 ------------------------------------------------------------------------------
                     AOints        : Timing summary (seconds)
 ------------------------------------------------------------------------------
     job step          cpu (% of tot)      sys (% of tot)     wall (% of tot)
 ------------------------------------------------------------------------------
  cpscf_lag         0.1179E+03 (28.2)   0.3600E-04 (35.3)   0.1184E+03 (28.2)
  iterzp            0.2805E+03 (67.1)   0.6400E-04 (62.7)   0.2812E+03 (67.0)
  make_fx           0.0000E+00 ( 0.0)   0.0000E+00 ( 0.0)   0.0000E+00 ( 0.0)
  AOints            0.1941E+02 ( 4.6)   0.1000E-05 ( 1.0)   0.1973E+02 ( 4.7)
 ------------------------------------------------------------------------------
   Grand Totals     0.4182E+03          0.1020E-03          0.4198E+03
 ------------------------------------------------------------------------------
 Calculating analytic Hessian of the SCF energy
 Polarizability Matrix (a.u.)
            1           2           3
    1 -69.2836128  -2.6923370  -3.0499918
    2  -2.6923370 -69.7522617   2.1683520
    3  -3.0499918   2.1683520 -60.4672692
 
 Direct stationary perturbation theory relativistic correction:
 
 rels  =       0.069328083264
 relv  =      -0.343039647679
 rel2e =       0.160786346622
 E_rel =      -0.112925217793
 
 Hessian of the SCF Energy
            1           2           3           4           5           6
    1   0.7140351  -0.0000208   0.1440976  -0.0706848  -0.0462250  -0.0487618
    2  -0.0000208   0.3742712  -0.0825738  -0.0239971  -0.1347757  -0.0559341
    3   0.1440976  -0.0825738   0.2716617  -0.0171406   0.0011229  -0.0290493
    4  -0.0706848  -0.0239971  -0.0171406   0.4390835  -0.2094375   0.0408447
    5  -0.0462250  -0.1347757   0.0011229  -0.2094375   0.5929543   0.1152839
    6  -0.0487618  -0.0559341  -0.0290493   0.0408447   0.1152839   0.3107406
    7  -0.0242264  -0.0071855  -0.0195814  -0.1653717   0.0384297  -0.0682887
    8  -0.0202545   0.0024048  -0.0001228   0.0325699  -0.0795091  -0.0035725
    9  -0.0010911  -0.0085847  -0.0059922  -0.0418937   0.0118655  -0.0505554
   10  -0.0369448   0.0060153   0.0027544  -0.0418720   0.0286234   0.0161701
   11  -0.0087255   0.0044127   0.0009011   0.0433638  -0.0240113  -0.0144346
   12  -0.0053491  -0.0040784   0.0079842  -0.0016816  -0.0171347  -0.0247606
   13  -0.0412734   0.0216164  -0.0343204  -0.0013446   0.0137995   0.0082940
   14   0.0463670  -0.0175964  -0.0054468   0.0271097  -0.0088021   0.0296538
   15  -0.0244854   0.0205689  -0.0154123  -0.0075605  -0.0015383   0.0083857
   16  -0.1095431   0.0575814  -0.0268546  -0.0109671   0.0027388  -0.0140559
   17   0.0259407  -0.1313702   0.0526919  -0.0075420  -0.0387159   0.0177227
   18  -0.0308771   0.0523087  -0.0788199   0.0109998  -0.0022757   0.0035079
   19  -0.3203322  -0.0008975  -0.0822332  -0.0015450   0.0005759   0.0016653
   20  -0.0060633  -0.0469057   0.0054152  -0.0213310   0.0018454  -0.0055290
   21  -0.0805362   0.0075443  -0.0612313  -0.0141484   0.0013584  -0.0051049
   22   0.0105403  -0.0138086  -0.0005804  -0.1185981   0.1367088   0.0135896
   23   0.0119536  -0.0126424  -0.0026666   0.1374548  -0.2582382  -0.0397588
   24  -0.0031308  -0.0007109  -0.0038380   0.0115565  -0.0399862  -0.0515098
   25  -0.0027093   0.0013683  -0.0025083   0.0006377  -0.0134066  -0.0069724
   26   0.0001460  -0.0016571  -0.0022136   0.0041702   0.0074168   0.0050129
   27   0.0015198   0.0002656   0.0016250   0.0023732   0.0001699  -0.0010097
   28  -0.0022520   0.0012297  -0.0000471  -0.0008450   0.0007336   0.0006789
   29  -0.0011167  -0.0025902   0.0015190   0.0041667  -0.0024293  -0.0031781
   30  -0.0039404   0.0013781  -0.0014776   0.0001586  -0.0001685  -0.0029965
   31  -0.0060684  -0.0019269  -0.0015931   0.0003205  -0.0005426   0.0007887
   32  -0.0011637   0.0018252   0.0024195   0.0012784   0.0006344   0.0017113
   33   0.0000174   0.0006090   0.0027223   0.0012604  -0.0002131   0.0003740
   34  -0.1149648  -0.0375525   0.0209253  -0.0254459   0.0517414   0.0532258
   35  -0.0093137  -0.0325124   0.0190989   0.0181111  -0.0674853  -0.0317650
   36   0.0524875   0.0722721  -0.0842303   0.0156531  -0.0766010  -0.1500104
   37   0.0044238  -0.0024221   0.0170817  -0.0033674  -0.0037393   0.0028216
   38   0.0084759  -0.0028638   0.0098551  -0.0059170   0.0111160  -0.0152124
   39   0.0000496  -0.0030649  -0.0039424  -0.0004214   0.0081170  -0.0080118
            7           8           9          10          11          12
    1  -0.0242264  -0.0202545  -0.0010911  -0.0369448  -0.0087255  -0.0053491
    2  -0.0071855   0.0024048  -0.0085847   0.0060153   0.0044127  -0.0040784
    3  -0.0195814  -0.0001228  -0.0059922   0.0027544   0.0009011   0.0079842
    4  -0.1653717   0.0325699  -0.0418937  -0.0418720   0.0433638  -0.0016816
    5   0.0384297  -0.0795091   0.0118655   0.0286234  -0.0240113  -0.0171347
    6  -0.0682887  -0.0035725  -0.0505554   0.0161701  -0.0144346  -0.0247606
    7   0.4413947  -0.0120570   0.1848553  -0.0650600   0.0171069   0.0538128
    8  -0.0120570   0.1493711   0.2276134   0.0538414  -0.0644616  -0.1582692
    9   0.1848553   0.2276134   0.5261091   0.0359316  -0.0768151  -0.1695983
   10  -0.0650600   0.0538414   0.0359316   0.6523433  -0.0780901  -0.1474868
   11   0.0171069  -0.0644616  -0.0768151  -0.0780901   0.2875204   0.0268015
   12   0.0538128  -0.1582692  -0.1695983  -0.1474868   0.0268015   0.4619993
   13  -0.0170447   0.0714911  -0.0261692  -0.0970156  -0.0086759   0.0443298
   14   0.0111381   0.0857888  -0.0378171  -0.0463094  -0.0906031   0.1116277
   15  -0.0082238   0.0755181  -0.0136231   0.0065483   0.0309725  -0.0818075
   16  -0.0115592  -0.1000083   0.0123491  -0.0168125  -0.0291754  -0.0036191
   17  -0.0141505  -0.0251028   0.0040331  -0.0138606  -0.0038961   0.0051685
   18  -0.0050769  -0.0334497  -0.0004295   0.0224006   0.0177100   0.0006683
   19   0.0001448   0.0007581   0.0007471  -0.0007999  -0.0011307  -0.0003131
   20  -0.0018456  -0.0041791   0.0015054   0.0003993  -0.0009705  -0.0007647
   21  -0.0010864  -0.0019730  -0.0011500   0.0038763   0.0024170  -0.0008627
   22  -0.0049154   0.0147617   0.0078530  -0.0050225   0.0022752   0.0016144
   23  -0.0041255   0.0015762   0.0006031  -0.0017665  -0.0007140  -0.0002169
   24   0.0020727   0.0103864   0.0042341   0.0002714  -0.0029248  -0.0017544
   25  -0.1365961  -0.0424074  -0.1343418   0.0095446   0.0042452   0.0066419
   26  -0.0455298  -0.0691762  -0.0976277  -0.0056928  -0.0026813  -0.0010304
   27  -0.1326568  -0.1022802  -0.2227509  -0.0119696  -0.0007839  -0.0050062
   28   0.0025493  -0.0007987   0.0004677  -0.2854255   0.0322098   0.1027506
   29   0.0199942  -0.0009152  -0.0018664   0.0324508  -0.0390406  -0.0136931
   30   0.0162903  -0.0032444  -0.0034893   0.1040518  -0.0112472  -0.0981781
   31  -0.0007373   0.0006804   0.0015639   0.0085168  -0.0081067   0.0071650
   32   0.0026554  -0.0016888   0.0081339   0.0057350  -0.0080999   0.0035432
   33   0.0043936  -0.0063830   0.0037210  -0.0116854   0.0069085  -0.0082847
   34  -0.0167675   0.0044355  -0.0383884  -0.1287602   0.0303226  -0.0410845
   35  -0.0055010   0.0092932  -0.0295022   0.0239720  -0.0550079   0.0446017
   36  -0.0255935  -0.0033912  -0.0641053  -0.0222828   0.0228374  -0.0803623
   37  -0.0018105  -0.0030123  -0.0018836   0.0073083   0.0043808  -0.0167801
   38   0.0010706  -0.0034014  -0.0015413  -0.0053179  -0.0024469   0.0034448
   39  -0.0009172  -0.0008319  -0.0023704   0.0014201  -0.0023425  -0.0000369
           13          14          15          16          17          18
    1  -0.0412734   0.0463670  -0.0244854  -0.1095431   0.0259407  -0.0308771
    2   0.0216164  -0.0175964   0.0205689   0.0575814  -0.1313702   0.0523087
    3  -0.0343204  -0.0054468  -0.0154123  -0.0268546   0.0526919  -0.0788199
    4  -0.0013446   0.0271097  -0.0075605  -0.0109671  -0.0075420   0.0109998
    5   0.0137995  -0.0088021  -0.0015383   0.0027388  -0.0387159  -0.0022757
    6   0.0082940   0.0296538   0.0083857  -0.0140559   0.0177227   0.0035079
    7  -0.0170447   0.0111381  -0.0082238  -0.0115592  -0.0141505  -0.0050769
    8   0.0714911   0.0857888   0.0755181  -0.1000083  -0.0251028  -0.0334497
    9  -0.0261692  -0.0378171  -0.0136231   0.0123491   0.0040331  -0.0004295
   10  -0.0970156  -0.0463094   0.0065483  -0.0168125  -0.0138606   0.0224006
   11  -0.0086759  -0.0906031   0.0309725  -0.0291754  -0.0038961   0.0177100
   12   0.0443298   0.1116277  -0.0818075  -0.0036191   0.0051685   0.0006683
   13   0.6282425  -0.1683740   0.1102592  -0.3187124  -0.0173569  -0.0154068
   14  -0.1683740   0.2569621  -0.2846886   0.0212959  -0.0629915   0.0483339
   15   0.1102592  -0.2846886   0.2933408   0.0268561   0.0265455  -0.0388458
   16  -0.3187124   0.0212959   0.0268561   0.4897099   0.0268299   0.0268541
   17  -0.0173569  -0.0629915   0.0265455   0.0268299   0.2862677  -0.1162324
   18  -0.0154068   0.0483339  -0.0388458   0.0268541  -0.1162324   0.1468387
   19  -0.0004098   0.0009451  -0.0010265  -0.0035599   0.0004873  -0.0003191
   20   0.0042039  -0.0020409   0.0039314   0.0250869   0.0005210   0.0052649
   21  -0.0012879   0.0029417  -0.0023612  -0.0143143  -0.0024978  -0.0054335
   22  -0.0002926  -0.0020823   0.0006857   0.0001472  -0.0013219  -0.0026038
   23   0.0004658  -0.0016816  -0.0000802   0.0007538  -0.0005696  -0.0015129
   24   0.0004983   0.0040416   0.0004492  -0.0017765   0.0019912  -0.0011244
   25  -0.0027269  -0.0009612  -0.0013770   0.0005440   0.0000242   0.0006661
   26  -0.0033287  -0.0011781  -0.0094649   0.0000386  -0.0008062   0.0009938
   27   0.0052695   0.0029267   0.0035543  -0.0017568   0.0008355  -0.0008389
   28  -0.0024301   0.0030621   0.0013838  -0.0018704  -0.0003686  -0.0007146
   29  -0.0248761   0.0062453   0.0056702  -0.0015140  -0.0024611   0.0015279
   30   0.0144369   0.0027888  -0.0018917  -0.0040977   0.0000134  -0.0029073
   31  -0.1471743   0.0931610  -0.0988923  -0.0195194   0.0202519  -0.0161943
   32   0.0991505  -0.1436110   0.1069380  -0.0036995   0.0068903  -0.0092529
   33  -0.1000536   0.1130426  -0.1329189  -0.0001831  -0.0036917  -0.0037536
   34   0.0000235   0.0132826  -0.0048028   0.0050444  -0.0197845   0.0091125
   35   0.0089312  -0.0210682   0.0218433   0.0021223  -0.0261309   0.0340283
   36  -0.0073641   0.0118344  -0.0191230   0.0019019   0.0133656  -0.0189487
   37   0.0001582   0.0013653   0.0006354  -0.0029015   0.0008511   0.0011593
   38   0.0029532   0.0005769   0.0037841  -0.0020504  -0.0016347   0.0025563
   39   0.0015143   0.0007614   0.0002535  -0.0013033   0.0000546   0.0000868
           19          20          21          22          23          24
    1  -0.3203322  -0.0060633  -0.0805362   0.0105403   0.0119536  -0.0031308
    2  -0.0008975  -0.0469057   0.0075443  -0.0138086  -0.0126424  -0.0007109
    3  -0.0822332   0.0054152  -0.0612313  -0.0005804  -0.0026666  -0.0038380
    4  -0.0015450  -0.0213310  -0.0141484  -0.1185981   0.1374548   0.0115565
    5   0.0005759   0.0018454   0.0013584   0.1367088  -0.2582382  -0.0399862
    6   0.0016653  -0.0055290  -0.0051049   0.0135896  -0.0397588  -0.0515098
    7   0.0001448  -0.0018456  -0.0010864  -0.0049154  -0.0041255   0.0020727
    8   0.0007581  -0.0041791  -0.0019730   0.0147617   0.0015762   0.0103864
    9   0.0007471   0.0015054  -0.0011500   0.0078530   0.0006031   0.0042341
   10  -0.0007999   0.0003993   0.0038763  -0.0050225  -0.0017665   0.0002714
   11  -0.0011307  -0.0009705   0.0024170   0.0022752  -0.0007140  -0.0029248
   12  -0.0003131  -0.0007647  -0.0008627   0.0016144  -0.0002169  -0.0017544
   13  -0.0004098   0.0042039  -0.0012879  -0.0002926   0.0004658   0.0004983
   14   0.0009451  -0.0020409   0.0029417  -0.0020823  -0.0016816   0.0040416
   15  -0.0010265   0.0039314  -0.0023612   0.0006857  -0.0000802   0.0004492
   16  -0.0035599   0.0250869  -0.0143143   0.0001472   0.0007538  -0.0017765
   17   0.0004873   0.0005210  -0.0024978  -0.0013219  -0.0005696   0.0019912
   18  -0.0003191   0.0052649  -0.0054335  -0.0026038  -0.0015129  -0.0011244
   19   0.3360515  -0.0003950   0.0876193   0.0002638  -0.0003369  -0.0001640
   20  -0.0003950   0.0503263  -0.0080876   0.0012697   0.0014069  -0.0008138
   21   0.0876193  -0.0080876   0.0643535   0.0012123   0.0008622   0.0005486
   22   0.0002638   0.0012697   0.0012123   0.1221240  -0.1411855  -0.0176432
   23  -0.0003369   0.0014069   0.0008622  -0.1411855   0.2702609   0.0437758
   24  -0.0001640  -0.0008138   0.0005486  -0.0176432   0.0437758   0.0430143
   25   0.0002613  -0.0008009  -0.0008775   0.0004312   0.0004321  -0.0000615
   26  -0.0001460   0.0001947   0.0003513  -0.0003679   0.0000040  -0.0000037
   27   0.0001133   0.0003594   0.0002454  -0.0004330  -0.0001302   0.0003128
   28  -0.0001349   0.0002922   0.0007986  -0.0002739  -0.0003847   0.0003845
   29  -0.0002248  -0.0000787   0.0000099   0.0014481   0.0002928  -0.0002489
   30  -0.0004488  -0.0000222   0.0012732   0.0000066   0.0001869   0.0005839
   31  -0.0002792   0.0014904  -0.0009907  -0.0000035   0.0000490  -0.0001018
   32   0.0000304   0.0005383   0.0002303   0.0001600   0.0001973   0.0004850
   33  -0.0000357   0.0002115   0.0007925   0.0002505   0.0000840   0.0008902
   34  -0.0105923  -0.0018780   0.0212597  -0.0054078  -0.0035674   0.0081388
   35  -0.0001501  -0.0012648  -0.0018093   0.0026562  -0.0005278  -0.0179999
   36  -0.0058610  -0.0018557   0.0085418  -0.0034274  -0.0006998   0.0064340
   37   0.0009319  -0.0004284  -0.0015248   0.0010073   0.0002573  -0.0000444
   38   0.0004841   0.0006070  -0.0013474  -0.0005136   0.0006354   0.0020082
   39   0.0002564   0.0003854   0.0003886  -0.0005244  -0.0004467   0.0017594
           25          26          27          28          29          30
    1  -0.0027093   0.0001460   0.0015198  -0.0022520  -0.0011167  -0.0039404
    2   0.0013683  -0.0016571   0.0002656   0.0012297  -0.0025902   0.0013781
    3  -0.0025083  -0.0022136   0.0016250  -0.0000471   0.0015190  -0.0014776
    4   0.0006377   0.0041702   0.0023732  -0.0008450   0.0041667   0.0001586
    5  -0.0134066   0.0074168   0.0001699   0.0007336  -0.0024293  -0.0001685
    6  -0.0069724   0.0050129  -0.0010097   0.0006789  -0.0031781  -0.0029965
    7  -0.1365961  -0.0455298  -0.1326568   0.0025493   0.0199942   0.0162903
    8  -0.0424074  -0.0691762  -0.1022802  -0.0007987  -0.0009152  -0.0032444
    9  -0.1343418  -0.0976277  -0.2227509   0.0004677  -0.0018664  -0.0034893
   10   0.0095446  -0.0056928  -0.0119696  -0.2854255   0.0324508   0.1040518
   11   0.0042452  -0.0026813  -0.0007839   0.0322098  -0.0390406  -0.0112472
   12   0.0066419  -0.0010304  -0.0050062   0.1027506  -0.0136931  -0.0981781
   13  -0.0027269  -0.0033287   0.0052695  -0.0024301  -0.0248761   0.0144369
   14  -0.0009612  -0.0011781   0.0029267   0.0030621   0.0062453   0.0027888
   15  -0.0013770  -0.0094649   0.0035543   0.0013838   0.0056702  -0.0018917
   16   0.0005440   0.0000386  -0.0017568  -0.0018704  -0.0015140  -0.0040977
   17   0.0000242  -0.0008062   0.0008355  -0.0003686  -0.0024611   0.0000134
   18   0.0006661   0.0009938  -0.0008389  -0.0007146   0.0015279  -0.0029073
   19   0.0002613  -0.0001460   0.0001133  -0.0001349  -0.0002248  -0.0004488
   20  -0.0008009   0.0001947   0.0003594   0.0002922  -0.0000787  -0.0000222
   21  -0.0008775   0.0003513   0.0002454   0.0007986   0.0000099   0.0012732
   22   0.0004312  -0.0003679  -0.0004330  -0.0002739   0.0014481   0.0000066
   23   0.0004321   0.0000040  -0.0001302  -0.0003847   0.0002928   0.0001869
   24  -0.0000615  -0.0000037   0.0003128   0.0003845  -0.0002489   0.0005839
   25   0.1296048   0.0520781   0.1396281   0.0005419  -0.0011601  -0.0003499
   26   0.0520781   0.0666970   0.1005008   0.0003494   0.0004007  -0.0001527
   27   0.1396281   0.1005008   0.2287543   0.0000665   0.0009687   0.0010144
   28   0.0005419   0.0003494   0.0000665   0.2952396  -0.0331585  -0.1151978
   29  -0.0011601   0.0004007   0.0009687  -0.0331585   0.0413390   0.0132127
   30  -0.0003499  -0.0001527   0.0010144  -0.1151978   0.0132127   0.0945159
   31   0.0005736  -0.0000199  -0.0001595   0.0004280   0.0011845  -0.0002778
   32   0.0003734   0.0005784  -0.0008621  -0.0000240   0.0008465   0.0002846
   33   0.0001870   0.0009123  -0.0002838   0.0001651  -0.0006736   0.0005267
   34  -0.0003356  -0.0014977  -0.0009330  -0.0059739   0.0031866  -0.0113926
   35   0.0011957   0.0001279  -0.0015232  -0.0030044  -0.0023450  -0.0027868
   36  -0.0006538   0.0021138  -0.0051671   0.0095619  -0.0036142   0.0126928
   37   0.0002288  -0.0001997  -0.0010618   0.0004469  -0.0003807   0.0007608
   38  -0.0009807   0.0000794  -0.0004471  -0.0001379   0.0007359  -0.0002428
   39   0.0000192   0.0006081  -0.0004495  -0.0002980   0.0003659   0.0003336
           31          32          33          34          35          36
    1  -0.0060684  -0.0011637   0.0000174  -0.1149648  -0.0093137   0.0524875
    2  -0.0019269   0.0018252   0.0006090  -0.0375525  -0.0325124   0.0722721
    3  -0.0015931   0.0024195   0.0027223   0.0209253   0.0190989  -0.0842303
    4   0.0003205   0.0012784   0.0012604  -0.0254459   0.0181111   0.0156531
    5  -0.0005426   0.0006344  -0.0002131   0.0517414  -0.0674853  -0.0766010
    6   0.0007887   0.0017113   0.0003740   0.0532258  -0.0317650  -0.1500104
    7  -0.0007373   0.0026554   0.0043936  -0.0167675  -0.0055010  -0.0255935
    8   0.0006804  -0.0016888  -0.0063830   0.0044355   0.0092932  -0.0033912
    9   0.0015639   0.0081339   0.0037210  -0.0383884  -0.0295022  -0.0641053
   10   0.0085168   0.0057350  -0.0116854  -0.1287602   0.0239720  -0.0222828
   11  -0.0081067  -0.0080999   0.0069085   0.0303226  -0.0550079   0.0228374
   12   0.0071650   0.0035432  -0.0082847  -0.0410845   0.0446017  -0.0803623
   13  -0.1471743   0.0991505  -0.1000536   0.0000235   0.0089312  -0.0073641
   14   0.0931610  -0.1436110   0.1130426   0.0132826  -0.0210682   0.0118344
   15  -0.0988923   0.1069380  -0.1329189  -0.0048028   0.0218433  -0.0191230
   16  -0.0195194  -0.0036995  -0.0001831   0.0050444   0.0021223   0.0019019
   17   0.0202519   0.0068903  -0.0036917  -0.0197845  -0.0261309   0.0133656
   18  -0.0161943  -0.0092529  -0.0037536   0.0091125   0.0340283  -0.0189487
   19  -0.0002792   0.0000304  -0.0000357  -0.0105923  -0.0001501  -0.0058610
   20   0.0014904   0.0005383   0.0002115  -0.0018780  -0.0012648  -0.0018557
   21  -0.0009907   0.0002303   0.0007925   0.0212597  -0.0018093   0.0085418
   22  -0.0000035   0.0001600   0.0002505  -0.0054078   0.0026562  -0.0034274
   23   0.0000490   0.0001973   0.0000840  -0.0035674  -0.0005278  -0.0006998
   24  -0.0001018   0.0004850   0.0008902   0.0081388  -0.0179999   0.0064340
   25   0.0005736   0.0003734   0.0001870  -0.0003356   0.0011957  -0.0006538
   26  -0.0000199   0.0005784   0.0009123  -0.0014977   0.0001279   0.0021138
   27  -0.0001595  -0.0008621  -0.0002838  -0.0009330  -0.0015232  -0.0051671
   28   0.0004280  -0.0000240   0.0001651  -0.0059739  -0.0030044   0.0095619
   29   0.0011845   0.0008465  -0.0006736   0.0031866  -0.0023450  -0.0036142
   30  -0.0002778   0.0002846   0.0005267  -0.0113926  -0.0027868   0.0126928
   31   0.1641002  -0.1029566   0.1072706  -0.0007808  -0.0028644   0.0015045
   32  -0.1029566   0.1438517  -0.1129790  -0.0014376  -0.0020117  -0.0002616
   33   0.1072706  -0.1129790   0.1371060  -0.0004947   0.0014643  -0.0008800
   34  -0.0007808  -0.0014376  -0.0004947   0.3549515  -0.0533285   0.0140350
   35  -0.0028644  -0.0020117   0.0014643  -0.0533285   0.2580936  -0.1209988
   36   0.0015045  -0.0002616  -0.0008800   0.0140350  -0.1209988   0.7136239
   37   0.0006238  -0.0001017  -0.0010922  -0.0509905   0.0171735  -0.0299612
   38  -0.0004001   0.0000492   0.0007082   0.0160776  -0.0591607   0.0849992
   39  -0.0000832  -0.0003901  -0.0000117  -0.0296011   0.0853486  -0.3184654
           37          38          39
    1   0.0044238   0.0084759   0.0000496
    2  -0.0024221  -0.0028638  -0.0030649
    3   0.0170817   0.0098551  -0.0039424
    4  -0.0033674  -0.0059170  -0.0004214
    5  -0.0037393   0.0111160   0.0081170
    6   0.0028216  -0.0152124  -0.0080118
    7  -0.0018105   0.0010706  -0.0009172
    8  -0.0030123  -0.0034014  -0.0008319
    9  -0.0018836  -0.0015413  -0.0023704
   10   0.0073083  -0.0053179   0.0014201
   11   0.0043808  -0.0024469  -0.0023425
   12  -0.0167801   0.0034448  -0.0000369
   13   0.0001582   0.0029532   0.0015143
   14   0.0013653   0.0005769   0.0007614
   15   0.0006354   0.0037841   0.0002535
   16  -0.0029015  -0.0020504  -0.0013033
   17   0.0008511  -0.0016347   0.0000546
   18   0.0011593   0.0025563   0.0000868
   19   0.0009319   0.0004841   0.0002564
   20  -0.0004284   0.0006070   0.0003854
   21  -0.0015248  -0.0013474   0.0003886
   22   0.0010073  -0.0005136  -0.0005244
   23   0.0002573   0.0006354  -0.0004467
   24  -0.0000444   0.0020082   0.0017594
   25   0.0002288  -0.0009807   0.0000192
   26  -0.0001997   0.0000794   0.0006081
   27  -0.0010618  -0.0004471  -0.0004495
   28   0.0004469  -0.0001379  -0.0002980
   29  -0.0003807   0.0007359   0.0003659
   30   0.0007608  -0.0002428   0.0003336
   31   0.0006238  -0.0004001  -0.0000832
   32  -0.0001017   0.0000492  -0.0003901
   33  -0.0010922   0.0007082  -0.0000117
   34  -0.0509905   0.0160776  -0.0296011
   35   0.0171735  -0.0591607   0.0853486
   36  -0.0299612   0.0849992  -0.3184654
   37   0.0439408  -0.0137439   0.0298892
   38  -0.0137439   0.0557076  -0.0885648
   39   0.0298892  -0.0885648   0.3304661
 Gradient time:  CPU 552.45 s  wall 554.76 s
 **********************************************************************
 **                                                                  **
 **                       VIBRATIONAL ANALYSIS                       **
 **                       --------------------                       **
 **                                                                  **
 **        VIBRATIONAL FREQUENCIES (CM**-1) AND NORMAL MODES         **
 **     FORCE CONSTANTS (mDYN/ANGSTROM) AND REDUCED MASSES (AMU)     **
 **                  INFRARED INTENSITIES (KM/MOL)                   **
 **                                                                  **
 **********************************************************************
 

 Mode:                 1                      2                      3
 Frequency:      -623.18                 469.95                 562.58
 Force Cnst:      2.0442                 0.4867                 0.5627
 Red. Mass:       8.9343                 3.7400                 3.0173
 IR Active:          YES                    YES                    YES
 IR Intens:        5.557                  3.835                  3.732
 Raman Active:       YES                    YES                    YES
               X      Y      Z        X      Y      Z        X      Y      Z
 C          0.063 -0.003 -0.010    0.017  0.003 -0.037   -0.054  0.102  0.198
 C         -0.003  0.069  0.046   -0.047 -0.012 -0.079    0.084  0.135 -0.139
 C          0.040  0.533 -0.111   -0.133 -0.155  0.078   -0.081 -0.010  0.086
 C         -0.064 -0.044  0.208    0.034  0.042 -0.051    0.015  0.046  0.064
 C         -0.103 -0.504 -0.289    0.071 -0.077 -0.195    0.050 -0.000 -0.055
 N          0.061 -0.006  0.079    0.012  0.181  0.278    0.048 -0.079 -0.139
 H          0.044  0.037  0.048    0.034 -0.113 -0.094   -0.075  0.118  0.268
 H         -0.151 -0.011 -0.007   -0.000  0.014 -0.067    0.187  0.232 -0.321
 H         -0.119  0.170  0.155   -0.374 -0.564  0.423   -0.260 -0.277  0.326
 H         -0.023  0.026  0.246    0.090  0.230  0.019    0.026  0.146  0.060
 H         -0.114 -0.294 -0.049    0.100 -0.036 -0.179    0.054 -0.095 -0.153
 C          0.014 -0.039  0.029    0.055  0.027 -0.045   -0.053 -0.154 -0.001
 H          0.143  0.015  0.030    0.024 -0.012 -0.052   -0.129 -0.453 -0.079
 TransDip   0.072  0.008 -0.023    0.006 -0.061 -0.015   -0.032 -0.013  0.052

 Mode:                 4                      5                      6
 Frequency:       606.84                 707.97                 732.74
 Force Cnst:      0.2900                 2.2128                 0.6250
 Red. Mass:       1.3367                 7.4933                 1.9759
 IR Active:          YES                    YES                    YES
 IR Intens:       15.359                  0.980                 11.279
 Raman Active:       YES                    YES                    YES
               X      Y      Z        X      Y      Z        X      Y      Z
 C          0.022  0.048  0.033    0.211 -0.062 -0.094   -0.128 -0.085  0.087
 C         -0.016  0.007 -0.022    0.115  0.353 -0.168    0.007 -0.018 -0.133
 C         -0.078 -0.076  0.064   -0.131 -0.084  0.005    0.008  0.015  0.023
 C         -0.016  0.013  0.022   -0.261 -0.128 -0.023    0.027 -0.034 -0.006
 C          0.030 -0.060 -0.029    0.038 -0.142  0.204   -0.004  0.009 -0.046
 N         -0.000  0.024  0.013    0.114 -0.206  0.080   -0.007 -0.057  0.028
 H          0.026  0.048  0.022    0.173 -0.149  0.054   -0.127 -0.195  0.080
 H         -0.033 -0.013  0.041   -0.159  0.126  0.215    0.208  0.173 -0.545
 H          0.286  0.678 -0.525    0.041 -0.289 -0.026    0.014  0.220 -0.068
 H          0.044  0.178  0.116   -0.256 -0.039 -0.027    0.011 -0.179 -0.006
 H          0.027 -0.216 -0.184    0.227  0.029  0.194    0.047 -0.001 -0.109
 C          0.029 -0.007 -0.035   -0.098  0.331 -0.041    0.070  0.132  0.081
 H         -0.001 -0.116 -0.065   -0.108 -0.011 -0.151    0.184  0.557  0.195
 TransDip   0.054  0.075 -0.085    0.029 -0.014  0.000    0.040  0.089 -0.045

 Mode:                 7                      8                      9
 Frequency:       761.08                 788.79                 803.46
 Force Cnst:      1.6271                 1.1950                 0.9884
 Red. Mass:       4.7677                 3.2600                 2.5988
 IR Active:          YES                    YES                    YES
 IR Intens:       11.419                 17.186                  6.860
 Raman Active:       YES                    YES                    YES
               X      Y      Z        X      Y      Z        X      Y      Z
 C         -0.023 -0.174 -0.241   -0.052  0.016 -0.113   -0.046  0.022 -0.051
 C          0.189  0.042 -0.050   -0.121  0.133  0.084    0.069 -0.102 -0.016
 C          0.191  0.017  0.242   -0.022 -0.031 -0.006   -0.035  0.024  0.080
 C         -0.111  0.219  0.043   -0.054 -0.174  0.007   -0.080 -0.129  0.072
 C         -0.050  0.028 -0.032    0.121 -0.003 -0.020    0.081  0.012  0.054
 N         -0.055  0.001  0.070    0.112  0.139 -0.079    0.125  0.151 -0.065
 H         -0.061 -0.106 -0.117    0.050 -0.334 -0.467   -0.219  0.118  0.541
 H          0.185  0.075 -0.269    0.190  0.392 -0.325   -0.097 -0.219  0.055
 H          0.445  0.073  0.051    0.149 -0.010 -0.128   -0.136  0.040  0.140
 H         -0.235  0.104 -0.195   -0.143 -0.045 -0.218   -0.077 -0.192  0.098
 H          0.051 -0.213 -0.389    0.017 -0.035  0.056    0.040 -0.161 -0.076
 C         -0.158 -0.125  0.030   -0.028 -0.090  0.215   -0.108 -0.014 -0.126
 H         -0.074 -0.033  0.048    0.051 -0.139  0.200    0.169  0.542  0.003
 TransDip   0.043 -0.044 -0.089    0.004 -0.069 -0.114   -0.048 -0.028  0.063

 Mode:                10                     11                     12
 Frequency:       845.55                 881.85                 905.68
 Force Cnst:      0.8168                 0.6665                 0.7716
 Red. Mass:       1.9391                 1.4546                 1.5965
 IR Active:          YES                    YES                    YES
 IR Intens:        5.901                 27.009                 18.160
 Raman Active:       YES                    YES                    YES
               X      Y      Z        X      Y      Z        X      Y      Z
 C         -0.060 -0.036 -0.037    0.011  0.074 -0.025    0.039  0.066 -0.059
 C          0.058  0.013 -0.007    0.025 -0.014  0.047    0.019  0.004  0.091
 C         -0.019 -0.058 -0.070   -0.042 -0.020  0.016   -0.075  0.015 -0.066
 C          0.144  0.063  0.029   -0.089  0.035 -0.027    0.027 -0.005  0.001
 C          0.018 -0.127  0.059    0.013 -0.015 -0.050   -0.006  0.045  0.033
 N          0.001  0.048 -0.021    0.008 -0.072  0.031    0.002 -0.090  0.062
 H         -0.086 -0.082  0.043   -0.027  0.203  0.108    0.076  0.042 -0.185
 H          0.258  0.136 -0.042    0.150  0.089 -0.132    0.474  0.297 -0.045
 H          0.008  0.015 -0.126    0.062  0.032 -0.079   -0.272  0.106  0.021
 H          0.254  0.411  0.159   -0.144  0.210 -0.185    0.110 -0.118  0.215
 H         -0.232  0.081  0.538    0.026  0.510  0.466    0.194 -0.225 -0.445
 C         -0.131  0.021 -0.003    0.031 -0.087 -0.018   -0.044 -0.058 -0.044
 H         -0.356  0.234  0.080    0.434  0.284  0.053   -0.119  0.356  0.085
 TransDip   0.000  0.064  0.044    0.056  0.154  0.029    0.077  0.077 -0.083

 Mode:                13                     14                     15
 Frequency:       923.00                 968.80                 974.73
 Force Cnst:      0.8192                 0.9644                 0.8446
 Red. Mass:       1.6322                 1.7440                 1.5088
 IR Active:          YES                    YES                    YES
 IR Intens:        0.336                  2.551                  2.922
 Raman Active:       YES                    YES                    YES
               X      Y      Z        X      Y      Z        X      Y      Z
 C          0.003  0.034  0.021   -0.100 -0.071 -0.039    0.013  0.049  0.014
 C         -0.078 -0.002 -0.013    0.040  0.125 -0.004   -0.116  0.007  0.016
 C          0.038 -0.009 -0.073   -0.029 -0.020 -0.089    0.085 -0.027  0.019
 C         -0.033  0.080 -0.033    0.053 -0.034  0.063   -0.025 -0.005  0.075
 C          0.011 -0.074  0.154    0.006  0.080 -0.058   -0.005  0.019 -0.036
 N         -0.009  0.013 -0.013   -0.014 -0.029  0.027    0.024 -0.028  0.011
 H         -0.018  0.044  0.096   -0.177  0.010  0.202    0.024 -0.072 -0.029
 H         -0.144 -0.001 -0.235   -0.173 -0.086  0.508   -0.088  0.090 -0.336
 H          0.125 -0.316  0.005    0.192 -0.183 -0.172    0.521 -0.381 -0.115
 H         -0.060  0.459 -0.195    0.184  0.196  0.287    0.169 -0.115  0.535
 H         -0.015 -0.511 -0.250    0.063  0.009 -0.198    0.063  0.157  0.032
 C          0.051 -0.035  0.003   -0.003 -0.047  0.042   -0.028  0.009 -0.101
 H          0.329  0.230  0.055    0.514  0.056  0.014   -0.135  0.097 -0.068
 TransDip   0.006  0.017  0.004    0.036  0.036 -0.000    0.053  0.013  0.002

 Mode:                16                     17                     18
 Frequency:      1001.27                1046.43                1048.95
 Force Cnst:      0.9964                 0.8804                 2.0210
 Red. Mass:       1.6869                 1.3646                 3.1175
 IR Active:          YES                    YES                    YES
 IR Intens:        1.916                  2.166                  2.367
 Raman Active:       YES                    YES                    YES
               X      Y      Z        X      Y      Z        X      Y      Z
 C         -0.142 -0.010  0.011    0.045 -0.054 -0.080   -0.158  0.135 -0.148
 C          0.008 -0.064  0.036   -0.007 -0.049  0.053   -0.144  0.062 -0.007
 C          0.037  0.010 -0.018   -0.023  0.012 -0.032    0.092  0.001  0.082
 C         -0.091  0.038  0.025   -0.013 -0.051  0.004    0.186 -0.010 -0.002
 C          0.017 -0.028  0.040   -0.003  0.040 -0.016    0.106 -0.078  0.042
 N          0.047  0.010 -0.003   -0.019  0.000  0.005    0.002 -0.126  0.080
 H         -0.113 -0.294 -0.124   -0.139  0.387  0.568   -0.272  0.379  0.191
 H          0.581  0.244  0.266    0.164  0.125 -0.397   -0.205  0.039  0.017
 H         -0.029 -0.025  0.040   -0.007 -0.026 -0.031   -0.087  0.209  0.131
 H         -0.056  0.079  0.100    0.071  0.280  0.100   -0.034 -0.379 -0.423
 H          0.045 -0.018  0.024    0.023  0.002 -0.087    0.116 -0.078  0.057
 C          0.060  0.079 -0.093    0.022  0.071  0.057   -0.053  0.044 -0.046
 H          0.254 -0.439 -0.273   -0.099 -0.398 -0.066    0.117 -0.244 -0.160
 TransDip   0.008 -0.035  0.025    0.016  0.043 -0.011   -0.043 -0.011 -0.021

 Mode:                19                     20                     21
 Frequency:      1065.45                1138.89                1206.97
 Force Cnst:      1.1417                 1.7402                 1.1516
 Red. Mass:       1.7070                 2.2772                 1.3417
 IR Active:          YES                    YES                    YES
 IR Intens:        6.168                  0.333                  0.319
 Raman Active:       YES                    YES                    YES
               X      Y      Z        X      Y      Z        X      Y      Z
 C         -0.075  0.082 -0.010   -0.055  0.057 -0.042    0.008  0.016  0.016
 C          0.058 -0.080 -0.057    0.045 -0.096 -0.092    0.040  0.008  0.046
 C          0.045  0.055  0.023   -0.039 -0.060 -0.130    0.071 -0.063 -0.036
 C         -0.040 -0.127  0.021   -0.072  0.145  0.093   -0.024  0.025 -0.046
 C          0.072  0.039 -0.001    0.040 -0.055  0.025   -0.005 -0.022  0.004
 N         -0.031 -0.054  0.027    0.051  0.022  0.001    0.002  0.011 -0.003
 H          0.068  0.186 -0.508   -0.014  0.519 -0.171    0.059 -0.067 -0.154
 H         -0.139 -0.218  0.023   -0.029 -0.183  0.058   -0.283 -0.118 -0.361
 H          0.006 -0.008  0.081    0.061 -0.165 -0.176   -0.396  0.287  0.121
 H          0.078  0.692  0.055   -0.132 -0.514  0.178    0.168 -0.031  0.393
 H          0.136  0.048 -0.058    0.305  0.127 -0.067    0.057  0.041  0.003
 C         -0.017  0.035  0.023    0.019  0.010  0.147   -0.101  0.028  0.028
 H         -0.228  0.013  0.041   -0.167 -0.091  0.154    0.481 -0.176 -0.093
 TransDip  -0.008  0.067 -0.043   -0.017 -0.005  0.004    0.010 -0.015  0.002

 Mode:                22                     23                     24
 Frequency:      1234.97                1246.78                1287.57
 Force Cnst:      2.6787                 1.2446                 1.9928
 Red. Mass:       2.9810                 1.3589                 2.0402
 IR Active:          YES                    YES                    YES
 IR Intens:        7.671                  1.795                 13.839
 Raman Active:       YES                    YES                    YES
               X      Y      Z        X      Y      Z        X      Y      Z
 C          0.153  0.002  0.058    0.005  0.007 -0.017   -0.070 -0.000  0.012
 C         -0.064 -0.078 -0.075   -0.018  0.036  0.008    0.158  0.001  0.152
 C          0.036 -0.052 -0.083    0.057 -0.027 -0.023   -0.144  0.034 -0.035
 C          0.062 -0.021  0.258   -0.016 -0.002  0.042    0.062  0.009  0.054
 C          0.035  0.051 -0.064    0.025 -0.058  0.028    0.035 -0.003  0.010
 N         -0.083  0.011 -0.006   -0.098  0.034 -0.039   -0.036 -0.001  0.008
 H          0.213 -0.056 -0.093   -0.082 -0.354  0.267   -0.027 -0.269 -0.168
 H          0.288  0.108  0.037   -0.067  0.006  0.046   -0.347 -0.198 -0.517
 H         -0.027 -0.009 -0.069   -0.189  0.137  0.072    0.238 -0.234 -0.194
 H         -0.301  0.086 -0.568   -0.034  0.106 -0.024   -0.138 -0.144 -0.351
 H          0.027  0.031 -0.085    0.659  0.400 -0.172    0.133  0.008 -0.075
 C         -0.183  0.075 -0.012    0.056 -0.028 -0.012    0.014  0.042 -0.080
 H          0.466 -0.040 -0.122   -0.232  0.086  0.054   -0.006 -0.143 -0.146
 TransDip   0.055  0.030 -0.063    0.010  0.006  0.041   -0.018 -0.061 -0.101

 Mode:                25                     26                     27
 Frequency:      1298.55                1338.98                1389.02
 Force Cnst:      2.3701                 2.4811                 2.7208
 Red. Mass:       2.3856                 2.3488                 2.3935
 IR Active:          YES                    YES                    YES
 IR Intens:        2.900                  6.139                  0.559
 Raman Active:       YES                    YES                    YES
               X      Y      Z        X      Y      Z        X      Y      Z
 C          0.010 -0.170  0.079   -0.055 -0.108  0.025    0.042  0.083 -0.047
 C         -0.030  0.039  0.026   -0.010  0.111  0.074    0.024 -0.034 -0.020
 C         -0.038  0.072  0.059    0.094 -0.101 -0.088   -0.008  0.043 -0.026
 C          0.003 -0.007 -0.078   -0.090  0.018  0.139   -0.077  0.039 -0.014
 C          0.170 -0.059  0.037    0.069  0.052 -0.055    0.245  0.034 -0.038
 N         -0.147  0.059 -0.049    0.012 -0.010  0.017   -0.170 -0.050  0.009
 H          0.134  0.670 -0.319   -0.014  0.374 -0.123   -0.059 -0.507  0.285
 H          0.172  0.166  0.048   -0.204  0.048 -0.132    0.014 -0.064  0.059
 H          0.137 -0.098  0.028   -0.411  0.241  0.088   -0.010 -0.045  0.007
 H          0.098 -0.185  0.164   -0.216  0.049 -0.103    0.009 -0.234  0.273
 H          0.300  0.063  0.045   -0.373 -0.203  0.141   -0.422 -0.370  0.278
 C         -0.032 -0.002 -0.056    0.110 -0.018 -0.103    0.014 -0.004  0.053
 H          0.214  0.069 -0.074   -0.363  0.186 -0.006   -0.040 -0.015  0.067
 TransDip   0.054  0.002  0.009   -0.071  0.032  0.016   -0.000  0.022  0.009

 Mode:                28                     29                     30
 Frequency:      3161.33                3199.05                3204.02
 Force Cnst:      6.4323                 6.5841                 6.5976
 Red. Mass:       1.0924                 1.0919                 1.0908
 IR Active:          YES                    YES                    YES
 IR Intens:       14.135                 11.676                  7.764
 Raman Active:       YES                    YES                    YES
               X      Y      Z        X      Y      Z        X      Y      Z
 C          0.000 -0.000  0.000    0.030 -0.002  0.009   -0.065  0.001 -0.019
 C          0.001 -0.002 -0.000    0.011 -0.017 -0.002    0.027 -0.043 -0.006
 C          0.003  0.000  0.003    0.001  0.001  0.002    0.003  0.003  0.006
 C         -0.079  0.010  0.036    0.010 -0.002 -0.003    0.003 -0.000 -0.001
 C          0.004 -0.002  0.003   -0.001  0.001 -0.001   -0.004  0.004 -0.004
 N          0.000  0.000 -0.000   -0.000  0.000  0.000    0.000 -0.000  0.000
 H          0.000  0.001 -0.000   -0.344  0.003 -0.103    0.745 -0.006  0.218
 H         -0.012  0.019  0.003   -0.122  0.205  0.034   -0.304  0.504  0.087
 H         -0.037 -0.022 -0.054   -0.013 -0.009 -0.021   -0.044 -0.031 -0.068
 H          0.891 -0.113 -0.404   -0.098  0.013  0.041   -0.027  0.003  0.013
 H         -0.040  0.036 -0.035    0.009 -0.009  0.008    0.050 -0.048  0.048
 C          0.001  0.002 -0.009   -0.009  0.023 -0.075   -0.001  0.004 -0.012
 H          0.009 -0.031  0.108    0.093 -0.251  0.849    0.014 -0.042  0.138
 TransDip  -0.105  0.019  0.056    0.062 -0.003 -0.090   -0.056 -0.039 -0.057

 Mode:                31                     32                     33
 Frequency:      3214.39                3216.56                3244.38
 Force Cnst:      6.6570                 6.6811                 6.8023
 Red. Mass:       1.0935                 1.0960                 1.0968
 IR Active:          YES                    YES                    YES
 IR Intens:       23.512                  0.857                  3.914
 Raman Active:       YES                    YES                    YES
               X      Y      Z        X      Y      Z        X      Y      Z
 C          0.030  0.002  0.008    0.033  0.000  0.009    0.003  0.000  0.001
 C          0.027 -0.046 -0.009    0.019 -0.033 -0.007    0.011 -0.014 -0.001
 C          0.001  0.003  0.004    0.007  0.004  0.011   -0.046 -0.030 -0.068
 C          0.001  0.000 -0.002   -0.006  0.000  0.002   -0.007  0.002  0.005
 C          0.034 -0.032  0.031   -0.040  0.038 -0.037   -0.004  0.005 -0.005
 N         -0.001  0.000 -0.000    0.001  0.001 -0.001    0.000  0.000  0.000
 H         -0.332  0.000 -0.098   -0.359  0.002 -0.105   -0.027 -0.000 -0.008
 H         -0.306  0.513  0.086   -0.218  0.365  0.062   -0.091  0.147  0.023
 H         -0.034 -0.026 -0.052   -0.089 -0.059 -0.133    0.514  0.339  0.754
 H         -0.024  0.000  0.012    0.052 -0.004 -0.024    0.061 -0.009 -0.027
 H         -0.383  0.369 -0.365    0.445 -0.426  0.424    0.052 -0.053  0.050
 C          0.001 -0.007  0.027    0.002 -0.007  0.025    0.001 -0.000  0.003
 H         -0.030  0.084 -0.281   -0.028  0.079 -0.262   -0.004  0.005 -0.021
 TransDip   0.104 -0.099  0.058    0.026  0.000  0.014   -0.030 -0.008 -0.055

 STANDARD THERMODYNAMIC QUANTITIES AT   298.15 K  AND     1.00 ATM

   This Molecule has  1 Imaginary Frequencies
   Zero point vibrational energy:       63.582 kcal/mol

   Atom    1 Element C  Has Mass   12.00000
   Atom    2 Element C  Has Mass   12.00000
   Atom    3 Element C  Has Mass   12.00000
   Atom    4 Element C  Has Mass   12.00000
   Atom    5 Element C  Has Mass   12.00000
   Atom    6 Element N  Has Mass   14.00307
   Atom    7 Element H  Has Mass    1.00783
   Atom    8 Element H  Has Mass    1.00783
   Atom    9 Element H  Has Mass    1.00783
   Atom   10 Element H  Has Mass    1.00783
   Atom   11 Element H  Has Mass    1.00783
   Atom   12 Element C  Has Mass   12.00000
   Atom   13 Element H  Has Mass    1.00783
   Molecular Mass:    92.050050 amu
   Principal axes and moments of inertia in amu*Bohr^2:
                             1           2           3
    Eigenvalues --      385.69893   402.11804   534.53576
          X              -0.09013     0.96644    -0.24055
          Y               0.92100     0.17279     0.34914
          Z              -0.37899     0.19007     0.90567
   Rotational Symmetry Number is   1
   The Molecule is an Asymmetric Top
   Translational Enthalpy:        0.889 kcal/mol
   Rotational Enthalpy:           0.889 kcal/mol
   Vibrational Enthalpy:         64.578 kcal/mol
   gas constant (RT):             0.592 kcal/mol
   Translational Entropy:        39.471  cal/mol.K
   Rotational Entropy:           25.919  cal/mol.K
   Vibrational Entropy:           4.301  cal/mol.K

   Total Enthalpy:               66.948 kcal/mol
   Total Entropy:                69.691  cal/mol.K
Archival summary:
1\1\c8-66\FREQ\ProcedureUnspecified\6-31+G**\166(2)\hpark21\ThuMar315:15:302022ThuMar315:15:302022\0\\#,FREQ,ProcedureUnspecified,6-31+G**,\\0,2\N\C,1,1.33647\H,2,1.08497,1,121.897\C,1,1.43233,2,103.819,3,-171.96,0\H,4,1.08488,1,118.451,2,-172.555,0\C,2,1.52214,1,115.444,3,-171.068,0\H,6,1.08779,2,121.546,1,144.247,0\C,6,1.48244,2,75.958,1,-89.6921,0\H,8,1.08234,6,133.087,2,-97.6151,0\C,8,1.51633,6,92.0518,2,97.7391,0\H,10,1.08419,8,127.667,6,149.784,0\C,10,1.5257,8,89.2125,6,5.5157,0\H,12,1.08475,10,130.772,8,137.414,0\\\@

 Total job time:  563.81s(wall), 559.17s(cpu) 
 Thu Mar  3 15:15:30 2022

        *************************************************************
        *                                                           *
        *  Thank you very much for using Q-Chem.  Have a nice day.  *
        *                                                           *
        *************************************************************


