
Running Job 1 of 1 qcts1.in
qchem qcts1.in_10827.0 ./qcts1.d/ 1
/home/leeping/opt/qchem/5.0.2-openmp/exe/qcprog.exe_s qcts1.in_10827.0 ./qcts1.d/
Check license passed

                  Welcome to Q-Chem
     A Quantum Leap Into The Future Of Chemistry


 Q-Chem 5.0, Q-Chem, Inc., Pleasanton, CA (2017)

 Yihan Shao,  Zhengting Gan,  E. Epifanovsky,  A. T. B. Gilbert,  M. Wormit,  
 J. Kussmann,  A. W. Lange,  A. Behn,  Jia Deng,  Xintian Feng,  D. Ghosh,  
 M. Goldey,  P. R. Horn,  L. D. Jacobson,  I. Kaliman,  T. Kus,  A. Landau,  
 Jie Liu,  E. I. Proynov,  R. M. Richard,  R. P. Steele,  E. J. Sundstrom,  
 H. L. Woodcock III,  P. M. Zimmerman,  D. Zuev,  B. Albrecht,  E. Alguire,  
 S. A. Baeppler,  D. Barton,  Z. Benda,  Y. A. Bernard,  E. J. Berquist,  
 K. B. Bravaya,  H. Burton,  D. Casanova,  Chun-Min Chang,  Yunqing Chen,  
 A. Chien,  K. D. Closser,  M. P. Coons,  S. Dasgupta,  A. L. Dempwolff,  
 M. Diedenhofen,  Hainam Do,  R. G. Edgar,  Po-Tung Fang,  S. Fatehi,  
 Qingguo Feng,  J. Fosso-Tande,  Qinghui Ge,  A. Ghysels,  G. Gidofalvi,  
 J. Gomes,  J. Gonthier,  A. Gunina,  M. W. D. Hanson-Heine,  
 P. H. P. Harbach,  A. W. Hauser,  J. E. Herr,  E. G. Hohenstein,  
 Z. C. Holden,  Kerwin Hui,  T.-C. Jagau,  Hyunjun Ji,  B. Kaduk,  
 K. Khistyaev,  Jaehoon Kim,  P. Klunzinger,  K. Koh,  D. Kosenkov,  
 L. Koulias,  T. Kowalczyk,  C. M. Krauter,  A. Kunitsa,  Ka Un Lao,  
 A. Laurent,  K. V. Lawler,  Joonho Lee,  D. Lefrancois,  S. Lehtola,  
 D. S. Levine,  Yi-Pei Li,  You-Sheng Lin,  Fenglai Liu,  E. Livshits,  
 A. Luenser,  P. Manohar,  E. Mansoor,  S. F. Manzer,  Shan-Ping Mao,  
 Yuezhi Mao,  N. Mardirossian,  A. V. Marenich,  T. Markovich,  
 L. A. Martinez-Martinez,  S. A. Maurer,  N. J. Mayhall,  S. C. McKenzie,  
 J.-M. Mewes,  A. F. Morrison,  J. W. Mullinax,  K. Nanda,  
 T. S. Nguyen-Beck,  R. Olivares-Amaya,  J. A. Parkhill,  T. M. Perrine,  
 F. Plasser,  S. Prager,  A. Prociuk,  E. Ramos,  D. R. Rehn,  F. Rob,  
 M. Schneider,  N. Sergueev,  S. M. Sharada,  S. Sharma,  D. W. Small,  
 T. Stauch,  T. Stein,  Yu-Chuan Su,  A. J. W. Thom,  A. Tkatchenko,  
 T. Tsuchimochi,  L. Vogt,  O. Vydrov,  M. A. Watson,  J. Wenzel,  
 M. de Wergifosse,  T. A. Wesolowski,  A. White,  J. Witte,  A. Yamada,  
 Jun Yang,  K. Yao,  S. Yeganeh,  S. R. Yost,  Zhi-Qiang You,  A. Zech,  
 Igor Ying Zhang,  Xing Zhang,  Yan Zhao,  Ying Zhu,  B. R. Brooks,  
 G. K. L. Chan,  C. J. Cramer,  M. S. Gordon,  W. J. Hehre,  A. Klamt,  
 M. W. Schmidt,  C. D. Sherrill,  D. G. Truhlar,  A. Aspuru-Guzik,  R. Baer,  
 A. T. Bell,  N. A. Besley,  Jeng-Da Chai,  R. A. DiStasio Jr.,  A. Dreuw,  
 B. D. Dunietz,  T. R. Furlani,  Chao-Ping Hsu,  Yousung Jung,  Jing Kong,  
 D. S. Lambrecht,  WanZhen Liang,  C. Ochsenfeld,  V. A. Rassolov,  
 L. V. Slipchenko,  J. E. Subotnik,  T. Van Voorhis,  J. M. Herbert,  
 A. I. Krylov,  P. M. W. Gill,  M. Head-Gordon

 Contributors to earlier versions of Q-Chem not listed above: 
 R. D. Adamson,  B. Austin,  J. Baker,  G. J. O. Beran,  K. Brandhorst,  
 S. T. Brown,  E. F. C. Byrd,  A. K. Chakraborty,  C.-L. Cheng,  
 Siu Hung Chien,  D. M. Chipman,  D. L. Crittenden,  H. Dachsel,  
 R. J. Doerksen,  A. D. Dutoi,  L. Fusti-Molnar,  W. A. Goddard III,  
 A. Golubeva-Zadorozhnaya,  S. R. Gwaltney,  G. Hawkins,  A. Heyden,  
 S. Hirata,  G. Kedziora,  F. J. Keil,  C. Kelley,  Jihan Kim,  R. A. King,  
 R. Z. Khaliullin,  P. P. Korambath,  W. Kurlancheek,  A. M. Lee,  M. S. Lee,  
 S. V. Levchenko,  Ching Yeh Lin,  D. Liotard,  R. C. Lochan,  I. Lotan,  
 P. E. Maslen,  N. Nair,  D. P. O'Neill,  D. Neuhauser,  E. Neuscamman,  
 C. M. Oana,  R. Olson,  B. Peters,  R. Peverati,  P. A. Pieniazek,  
 Y. M. Rhee,  J. Ritchie,  M. A. Rohrdanz,  E. Rosta,  N. J. Russ,  
 H. F. Schaefer III,  N. E. Schultz,  N. Shenvi,  A. C. Simmonett,  A. Sodt,  
 D. Stuck,  K. S. Thanthiriwatte,  V. Vanovschi,  Tao Wang,  A. Warshel,  
 C. F. Williams,  Q. Wu,  X. Xu,  W. Zhang

 Please cite Q-Chem as follows:
 Y. Shao et al., Mol. Phys. 113, 184-215 (2015)
 DOI: 10.1080/00268976.2014.952696

 Q-Chem 5.0.2 for Intel X86 EM64T Linux

 Parts of Q-Chem use Armadillo 5.200.1 (Boston Tea Smuggler).
 http://arma.sourceforge.net/

 Q-Chem begins on Thu Mar  3 15:00:57 2022  

Host: 
0

     Scratch files written to ./qcts1.d//
 Dec517 15110_ 26548  26544 5633   
Processing $rem in /home/leeping/opt/qchem/5.0.2-openmp/config/preferences.
 MEM_STATIC 2000
 MEM_TOTAL  8000
 SYMMETRY   OFF
 SYM_IGNORE TRUE 

Checking the input file for inconsistencies... 	...done.

--------------------------------------------------------------
User input:
--------------------------------------------------------------
$molecule
0 2
C        1.2891059348    0.2902233781    0.2171687822
C        0.6169520258   -1.0283042309   -0.1872368568
C       -0.7078849638   -0.6204267597   -0.8018026740
C       -1.0706866190    0.1885777320    0.3862680841
C       -0.5129302034    1.2071141481   -0.5977994516
N        0.8045370071    1.4181007001   -0.5208384370
H        2.3292790409    0.2823668913    0.5252812428
H        1.1654483794   -1.9498376501   -0.3466047151
H       -1.2781424256   -1.0010675403   -1.6392846551
H       -2.0536990017    0.3106886832    0.8357846833
H       -1.1578611197    1.8268520106   -1.2119270956
C        0.2102159086   -0.3253840127    1.1043579618
H        0.3172399590   -0.6291683415    2.1401833832
$end

$rem
method                b3lyp
basis                 6-31g(d)
unrestricted          true
symmetry              off
sym_ignore            true
incdft                false
incfock               0
scf_convergence       6
thresh                14
jobtype               sp
scf_guess             read
scf_algorithm         diis
max_scf_cycles        100
stability_analysis    true
max_cis_cycles        100
cis_n_roots           4
$end

--------------------------------------------------------------
 ----------------------------------------------------------------
             Standard Nuclear Orientation (Angstroms)
    I     Atom           X                Y                Z
 ----------------------------------------------------------------
    1      C       1.2891059348     0.2902233781     0.2171687822
    2      C       0.6169520258    -1.0283042309    -0.1872368568
    3      C      -0.7078849638    -0.6204267597    -0.8018026740
    4      C      -1.0706866190     0.1885777320     0.3862680841
    5      C      -0.5129302034     1.2071141481    -0.5977994516
    6      N       0.8045370071     1.4181007001    -0.5208384370
    7      H       2.3292790409     0.2823668913     0.5252812428
    8      H       1.1654483794    -1.9498376501    -0.3466047151
    9      H      -1.2781424256    -1.0010675403    -1.6392846551
   10      H      -2.0536990017     0.3106886832     0.8357846833
   11      H      -1.1578611197     1.8268520106    -1.2119270956
   12      C       0.2102159086    -0.3253840127     1.1043579618
   13      H       0.3172399590    -0.6291683415     2.1401833832
 ----------------------------------------------------------------
 Nuclear Repulsion Energy =   286.4216838507 hartrees
 There are       25 alpha and       24 beta electrons
 Requested basis set is 6-31G(d)
 There are 40 shells and 117 basis functions

 Total QAlloc Memory Limit   8000 MB
 Mega-Array Size      1956 MB
 MEM_STATIC part      2000 MB

                       Distance Matrix (Angstroms)
             C (  1)   C (  2)   C (  3)   C (  4)   C (  5)   N (  6)
   C (  2)  1.534226
   C (  3)  2.419826  1.516327
   C (  4)  2.368026  2.158202  1.482439
   C (  5)  2.179953  2.538167  1.849197  1.522136
   N (  6)  1.432330  2.476161  2.553812  2.418891  1.336472
   H (  7)  1.084876  2.271036  3.435193  3.404099  3.192902  2.170045
   H (  8)  2.313224  1.084191  2.341776  3.179658  3.584187  3.391699
   H (  9)  3.421201  2.387586  1.082339  2.358211  2.558575  3.382433
   H ( 10)  3.399625  3.157824  2.315142  1.087791  2.287512  3.352059
   H ( 11)  3.223537  3.514523  2.521875  2.290365  1.084972  2.120304
   C ( 12)  1.526460  1.525696  2.136213  1.555802  2.401839  2.456465
   H ( 13)  2.342603  2.380341  3.115484  2.381442  3.399657  3.392611
             H (  7)   H (  8)   H (  9)   H ( 10)   H ( 11)   C ( 12)
   H (  8)  2.664099
   H (  9)  4.398413  2.922725
   H ( 10)  4.394054  4.107424  2.906572
   H ( 11)  4.190880  4.517736  2.862557  2.700815
   C ( 12)  2.279280  2.378363  3.193640  2.366861  3.445132
   H ( 13)  2.736258  2.940704  4.119215  2.864636  4.409604  1.084746

 
 A cutoff of  1.0D-14 yielded    812 shell pairs
 There are      7084 function pairs
 Smallest overlap matrix eigenvalue = 1.02E-03

 Scale SEOQF with 1.000000e-01/1.000000e-01/1.000000e-01

 Standard Electronic Orientation quadrupole field applied
 Nucleus-field energy     =     0.0000000017 hartrees
 Guess MOs from SCF MO coefficient file
 Reading MOs from coefficient file
 Reading MOs from coefficient file
 An unrestricted hybrid HF-DFT SCF calculation will be
 performed using Pulay DIIS extrapolation
 Exchange:     0.2000 Hartree-Fock + 0.0800 Slater + 0.7200 B88
 Correlation:  0.1900 VWN1RPA + 0.8100 LYP
 Using SG-1 standard quadrature grid
 SCF converges when DIIS error is below 1.0E-06
Using Q-Chem read-in guess as SCF_GUESS READ specified.

 -------------------------------------------------------
 OpenMP BLAS3 based DFT computing Module                
 -------------------------------------------------------
 ---------------------------------------
  Cycle       Energy         DIIS Error
 ---------------------------------------
    1    -286.8156744869      2.87E-10
    2    -286.8156744869      3.35E-10 Convergence criterion met
 ---------------------------------------
 <S^2> = 0.7713
 SCF time:  CPU 3.20 s  wall 3.52 s
 SCF   energy in the final basis set = -286.81567449
 Total energy in the final basis set = -286.81567449
 
 Direct TDDFT/TDA calculation will be performed
 Exchange:     0.2000 Hartree-Fock + 0.0800 Slater + 0.7200 B88
 Correlation:  0.1900 VWN1RPA + 0.8100 LYP
 Using SG-1 standard quadrature grid
 CIS energy converged when residual is below 10e- 6
 ---------------------------------------------------
 Iter    Rts Conv    Rts Left    Ttl Dev     Max Dev
 ---------------------------------------------------
   1         0           4      0.006183    0.002057
   2         0           4      0.001623    0.000534
   3         0           4      0.000661    0.000330
   4         0           4      0.000272    0.000188
   5         0           4      0.000119    0.000096
   6         0           4      0.000046    0.000042
   7         3           1      0.000013    0.000012
   8         3           1      0.000004    0.000003
   9         4           0      0.000002    0.000001    Roots Converged
 ---------------------------------------------------
 
 ---------------------------------------------------
         TDDFT/TDA Excitation Energies              
 ---------------------------------------------------

 Excited state   1: excitation energy (eV) =    2.6649
 Total energy for state  1:                  -286.71773959 au
    <S**2>     :  0.7683
    Trans. Mom.:  0.3060 X   0.1900 Y   0.0313 Z
    Strength   :     0.0085369258
    S(  1) --> V(  1) amplitude =  0.1703 alpha
    D( 23) --> S(  1) amplitude = -0.2312 beta
    D( 24) --> S(  1) amplitude =  0.9452 beta

 Excited state   2: excitation energy (eV) =    2.9909
 Total energy for state  2:                  -286.70576074 au
    <S**2>     :  0.7911
    Trans. Mom.:  0.0647 X   0.0716 Y  -0.0328 Z
    Strength   :     0.0007606479
    D( 22) --> S(  1) amplitude = -0.1766 beta
    D( 23) --> S(  1) amplitude =  0.9440 beta
    D( 24) --> S(  1) amplitude =  0.2429 beta

 Excited state   3: excitation energy (eV) =    3.9907
 Total energy for state  3:                  -286.66901850 au
    <S**2>     :  0.7888
    Trans. Mom.: -0.1449 X   0.0925 Y  -0.1699 Z
    Strength   :     0.0057097060
    D( 22) --> S(  1) amplitude =  0.9736 beta
    D( 23) --> S(  1) amplitude =  0.1921 beta

 Excited state   4: excitation energy (eV) =    5.1719
 Total energy for state  4:                  -286.62561039 au
    <S**2>     :  0.7917
    Trans. Mom.:  0.0104 X  -0.0245 Y  -0.0598 Z
    Strength   :     0.0005432140
    S(  1) --> V(  1) amplitude =  0.5790 alpha
    D( 21) --> S(  1) amplitude =  0.7858 beta
 
 ---------------------------------------------------

 Stability analysis will be performed
 ---------------------------------------------------
 Iter    Rts Conv    Rts Left    Ttl Dev     Max Dev
 ---------------------------------------------------
   1         0           8      0.006107    0.000954
   2         0           8      0.001976    0.000467
   3         0           8      0.000871    0.000218
   4         3           5      0.000434    0.000152
   5         3           5      0.000192    0.000085
   6         3           5      0.000081    0.000045
   7         3           5      0.000031    0.000019
   8         6           2      0.000012    0.000007
   9         7           1      0.000006    0.000003
  10         8           0      0.000004    0.000001    Roots Converged
 UKS-> UKS   stable,    smallest eigenvalue:      0.0851867
 UKS->CUKS   stable,    smallest eigenvalue:      0.0968357
 ---------------------------------------------------
  SETman timing summary (seconds)
  CPU time                75.52s
  System time              0.00s
  Wall time               76.72s
 
 --------------------------------------------------------------
 
                    Orbital Energies (a.u.)
 --------------------------------------------------------------
 
 Alpha MOs
 -- Occupied --
-14.321 -10.219 -10.219 -10.215 -10.211 -10.206 -10.204  -0.979
 -0.843  -0.776  -0.655  -0.594  -0.573  -0.542  -0.530  -0.448
 -0.443  -0.409  -0.404  -0.378  -0.341  -0.283  -0.267  -0.245
 -0.190
 -- Virtual --
  0.066   0.093   0.106   0.121   0.147   0.155   0.158   0.169
  0.180   0.205   0.217   0.256   0.266   0.291   0.371   0.396
  0.481   0.507   0.525   0.542   0.553   0.574   0.575   0.604
  0.614   0.652   0.675   0.727   0.731   0.741   0.757   0.792
  0.800   0.807   0.827   0.830   0.846   0.852   0.909   0.948
  0.985   1.007   1.096   1.156   1.206   1.230   1.392   1.445
  1.467   1.491   1.540   1.609   1.620   1.650   1.662   1.705
  1.730   1.832   1.868   1.896   1.959   1.978   1.984   2.035
  2.080   2.138   2.166   2.231   2.284   2.368   2.400   2.466
  2.481   2.515   2.549   2.556   2.587   2.618   2.661   2.689
  2.745   2.801   2.840   2.902   2.944   3.905   4.223   4.318
  4.339   4.453   4.601   4.673
 
 Beta MOs
 -- Occupied --
-14.310 -10.221 -10.216 -10.212 -10.210 -10.205 -10.204  -0.970
 -0.827  -0.771  -0.645  -0.591  -0.568  -0.536  -0.524  -0.445
 -0.437  -0.401  -0.394  -0.368  -0.328  -0.277  -0.254  -0.230
 -- Virtual --
 -0.078   0.084   0.098   0.113   0.126   0.148   0.156   0.161
  0.174   0.181   0.212   0.222   0.261   0.271   0.292   0.376
  0.400   0.484   0.513   0.526   0.544   0.560   0.578   0.584
  0.609   0.618   0.659   0.679   0.733   0.735   0.745   0.780
  0.796   0.804   0.811   0.831   0.837   0.848   0.853   0.911
  0.953   0.992   1.016   1.101   1.161   1.214   1.232   1.394
  1.454   1.481   1.500   1.545   1.616   1.633   1.656   1.675
  1.710   1.737   1.839   1.874   1.900   1.965   1.984   1.989
  2.041   2.088   2.143   2.182   2.237   2.294   2.371   2.415
  2.474   2.493   2.528   2.554   2.565   2.591   2.634   2.665
  2.693   2.749   2.804   2.843   2.906   2.949   3.923   4.233
  4.322   4.337   4.455   4.607   4.676
 --------------------------------------------------------------
 
          Ground-State Mulliken Net Atomic Charges

     Atom                 Charge (a.u.)    Spin (a.u.)
  --------------------------------------------------------
      1 C                    -0.046167      -0.030245
      2 C                    -0.137628       0.001104
      3 C                    -0.109083       0.519587
      4 C                    -0.176704       0.014615
      5 C                     0.002426      -0.148848
      6 N                    -0.314131       0.571205
      7 H                     0.147936       0.000548
      8 H                     0.144712      -0.000852
      9 H                     0.152021      -0.024544
     10 H                     0.144637       0.011397
     11 H                     0.148655       0.004080
     12 C                    -0.100327       0.086624
     13 H                     0.143651      -0.004671
  --------------------------------------------------------
  Sum of atomic charges =    -0.000000
  Sum of spin   charges =     1.000000

 -----------------------------------------------------------------
                    Cartesian Multipole Moments
 -----------------------------------------------------------------
    Charge (ESU x 10^10)
                 0.0000
    Dipole Moment (Debye)
         X      -1.4433      Y      -1.9685      Z       0.7576
       Tot       2.5558
    Quadrupole Moments (Debye-Ang)
        XX     -37.9354     XY      -3.9592     YY     -43.4180
        XZ       2.7760     YZ       1.1930     ZZ     -39.4297
    Octopole Moments (Debye-Ang^2)
       XXX      -9.0230    XXY      -7.1824    XYY      -7.7751
       YYY     -24.3464    XXZ       4.1487    XYZ       2.1831
       YYZ       1.3248    XZZ      -6.7309    YZZ      -8.2359
       ZZZ       8.9966
    Hexadecapole Moments (Debye-Ang^3)
      XXXX    -225.7743   XXXY      -5.6008   XXYY     -82.7830
      XYYY     -17.7871   YYYY    -250.9136   XXXZ      -8.7909
      XXYZ       8.9233   XYYZ       2.4338   YYYZ      22.3094
      XXZZ     -65.7014   XYZZ      -2.6339   YYZZ     -66.7579
      XZZZ      -7.9463   YZZZ      17.6064   ZZZZ    -158.4204
 -----------------------------------------------------------------
Archival summary:
1\1\c8-66\SP\ProcedureUnspecified\6-31G*\166(2)\hpark21\ThuMar315:02:182022ThuMar315:02:182022\0\\#,ProcedureUnspecified,6-31G*,\\0,2\N\C,1,1.33647\H,2,1.08497,1,121.897\C,1,1.43233,2,103.819,3,-171.96,0\H,4,1.08488,1,118.451,2,-172.555,0\C,2,1.52214,1,115.444,3,-171.068,0\H,6,1.08779,2,121.546,1,144.247,0\C,6,1.48244,2,75.958,1,-89.6921,0\H,8,1.08234,6,133.087,2,-97.6151,0\C,8,1.51633,6,92.0518,2,97.7391,0\H,10,1.08419,8,127.667,6,149.784,0\C,10,1.5257,8,89.2125,6,5.5157,0\H,12,1.08475,10,130.772,8,137.414,0\\\@

 Total job time:  80.85s(wall), 78.88s(cpu) 
 Thu Mar  3 15:02:18 2022

        *************************************************************
        *                                                           *
        *  Thank you very much for using Q-Chem.  Have a nice day.  *
        *                                                           *
        *************************************************************


