13   
From optimize.out: Frame 1 / 2, Energy=    -286.8549095738
C        1.6801790246    0.3941026087   -0.1783820193
C        1.1262118113   -0.8348490310   -0.2685289378
C       -0.3162841307   -1.0621848678   -0.0823204238
C       -1.1557279371    0.3278757744    0.0469936080
C       -0.3269541053    1.5324844040   -0.1484785026
N        0.9598677316    1.5898455975   -0.1662576803
H        2.7570140642    0.5227856985   -0.2501939659
H        1.7478113132   -1.6980287218   -0.4937562742
H       -0.7575702086   -1.9017382680   -0.6224630194
H       -2.1622104709    0.3916870516   -0.3711500977
H       -0.8676481845    2.4600622154   -0.3521833492
C       -0.9589916683   -0.6131773555    1.1517287765
H       -1.7256972399   -1.1088651055    1.7349918851
13   
From optimize.out: Frame 1 / 2, Energy=    -286.8383285947
C        1.1817828783    0.3161562440    0.4225127178
C        0.6604438687   -1.0911913473   -0.1223988077
C       -0.5670361437   -0.9248286154   -0.8883035656
C       -1.0852440643    0.1542583878    0.0600685179
C       -0.4655474427    1.4495078731   -0.4509748815
N        0.8063484125    1.5104603946   -0.2918409916
H        2.1704415475    0.2891044868    0.8692833393
H        1.3601290953   -1.9210459142   -0.1336123587
H       -0.8186581371   -1.1403303738   -1.9240878334
H       -2.1446712045    0.1671415777    0.3254177624
H       -1.0074874534    2.2008031098   -1.0233068143
C        0.0159127801   -0.3479181147    1.0625263378
H       -0.1064141367   -0.6621177085    2.0947165777
