13   
Frame   0 IRC: Energy =  -286.8792600000 ; +0.0000 kcal/mol
C       -0.1020960000    0.6053050000   -0.0000000000
C       -0.1725370000   -0.0506730000    0.0000000000
C       -0.0146330000    0.0813700000   -0.0000000000
C       -0.1724420000   -0.0505130000   -0.0000000000
C       -0.1007300000    0.6054980000   -0.0000000000
N       -0.2161930000   -0.2014590000   -0.0000000000
H        0.1242530000   -0.0322640000    0.0000000000
H        0.1304590000    0.0007990000    0.0000000000
H        0.1413590000   -0.0039980000   -0.0000000000
H        0.1303770000    0.0007940000   -0.0000000000
H        0.1242630000   -0.0322800000   -0.0000000000
C       -0.0135140000    0.0814200000    0.0000000000
H        0.1414360000   -0.0039980000    0.0000000000
13   
Frame   1 IRC: Energy =  -286.8792570000 ; +0.0019 kcal/mol
C       -0.1020950000    0.6051050000   -0.0000000000
C       -0.1724540000   -0.0507250000    0.0000000000
C       -0.0146860000    0.0814620000   -0.0000000000
C       -0.1724080000   -0.0505380000   -0.0000000000
C       -0.1007120000    0.6054770000   -0.0000000000
N       -0.2161390000   -0.2013660000   -0.0000000000
H        0.1242490000   -0.0322600000    0.0000000000
H        0.1304740000    0.0008000000    0.0000000000
H        0.1413400000   -0.0040030000   -0.0000000000
H        0.1303830000    0.0007950000   -0.0000000000
H        0.1242630000   -0.0322830000   -0.0000000000
C       -0.0136290000    0.0815410000    0.0000000000
H        0.1414150000   -0.0040040000    0.0000000000
13   
Frame   2 IRC: Energy =  -286.8792500000 ; +0.0063 kcal/mol
C       -0.1020870000    0.6052120000   -0.0000000000
C       -0.1726360000   -0.0506750000    0.0000000000
C       -0.0146170000    0.0814000000   -0.0000000000
C       -0.1725380000   -0.0505180000   -0.0000000000
C       -0.1007090000    0.6054140000   -0.0000000000
N       -0.2161580000   -0.2013090000   -0.0000000000
H        0.1242510000   -0.0322620000    0.0000000000
H        0.1304680000    0.0007980000    0.0000000000
H        0.1413650000   -0.0040000000   -0.0000000000
H        0.1303860000    0.0007940000   -0.0000000000
H        0.1242600000   -0.0322770000   -0.0000000000
C       -0.0134210000    0.0814230000    0.0000000000
H        0.1414350000   -0.0039990000    0.0000000000
13   
Frame   3 IRC: Energy =  -286.8792470000 ; +0.0082 kcal/mol
C       -0.1020550000    0.6050020000   -0.0000000000
C       -0.1726030000   -0.0507340000    0.0000000000
C       -0.0148350000    0.0815700000   -0.0000000000
C       -0.1725750000   -0.0505500000   -0.0000000000
C       -0.1006450000    0.6053500000   -0.0000000000
N       -0.2161340000   -0.2011990000   -0.0000000000
H        0.1242450000   -0.0322550000    0.0000000000
H        0.1304770000    0.0008000000    0.0000000000
H        0.1413650000   -0.0040080000   -0.0000000000
H        0.1303880000    0.0007940000   -0.0000000000
H        0.1242590000   -0.0322760000   -0.0000000000
C       -0.0132960000    0.0815090000    0.0000000000
H        0.1414090000   -0.0040030000    0.0000000000
13   
Frame   4 IRC: Energy =  -286.8792370000 ; +0.0144 kcal/mol
C       -0.1020680000    0.6051090000   -0.0000000000
C       -0.1727080000   -0.0507030000    0.0000000000
C       -0.0143610000    0.0813450000   -0.0000000000
C       -0.1725560000   -0.0505300000   -0.0000000000
C       -0.1007140000    0.6053310000   -0.0000000000
N       -0.2160900000   -0.2011500000   -0.0000000000
H        0.1242720000   -0.0322600000    0.0000000000
H        0.1304850000    0.0007970000    0.0000000000
H        0.1413380000   -0.0039970000   -0.0000000000
H        0.1304040000    0.0007920000   -0.0000000000
H        0.1242760000   -0.0322760000   -0.0000000000
C       -0.0137330000    0.0815450000    0.0000000000
H        0.1414550000   -0.0040030000    0.0000000000
13   
Frame   5 IRC: Energy =  -286.8792230000 ; +0.0232 kcal/mol
C       -0.1018520000    0.6047290000   -0.0000000000
C       -0.1725530000   -0.0507350000    0.0000000000
C       -0.0155820000    0.0815700000   -0.0000000000
C       -0.1724770000   -0.0507010000   -0.0000000000
C       -0.1006750000    0.6059280000   -0.0000000000
N       -0.2160190000   -0.2013420000   -0.0000000000
H        0.1244340000   -0.0322490000    0.0000000000
H        0.1305050000    0.0007950000    0.0000000000
H        0.1413680000   -0.0040040000   -0.0000000000
H        0.1304240000    0.0007930000   -0.0000000000
H        0.1244830000   -0.0323120000   -0.0000000000
C       -0.0135160000    0.0815230000    0.0000000000
H        0.1414600000   -0.0039950000    0.0000000000
13   
Frame   6 IRC: Energy =  -286.8792110000 ; +0.0307 kcal/mol
C       -0.1013230000    0.6033670000   -0.0000000000
C       -0.1729330000   -0.0504220000    0.0000000000
C       -0.0158100000    0.0814550000   -0.0000000000
C       -0.1726400000   -0.0508360000   -0.0000000000
C       -0.1011690000    0.6077030000   -0.0000000000
N       -0.2160610000   -0.2014630000   -0.0000000000
H        0.1244320000   -0.0321760000    0.0000000000
H        0.1304980000    0.0007850000    0.0000000000
H        0.1414740000   -0.0039970000   -0.0000000000
H        0.1304480000    0.0007960000   -0.0000000000
H        0.1245850000   -0.0323980000   -0.0000000000
C       -0.0130550000    0.0811620000    0.0000000000
H        0.1415550000   -0.0039760000    0.0000000000
13   
Frame   7 IRC: Energy =  -286.8790500000 ; +0.1318 kcal/mol
C       -0.1018610000    0.6036300000   -0.0000000000
C       -0.1743880000   -0.0508950000    0.0000000000
C       -0.0135780000    0.0818940000   -0.0000000000
C       -0.1742690000   -0.0506370000   -0.0000000000
C       -0.1002600000    0.6033520000   -0.0000000000
N       -0.2155090000   -0.1983990000   -0.0000000000
H        0.1242740000   -0.0322060000    0.0000000000
H        0.1306560000    0.0007880000    0.0000000000
H        0.1413820000   -0.0040240000   -0.0000000000
H        0.1305720000    0.0007810000   -0.0000000000
H        0.1242500000   -0.0321940000   -0.0000000000
C       -0.0127330000    0.0819350000    0.0000000000
H        0.1414650000   -0.0040250000    0.0000000000
13   
Frame   8 IRC: Energy =  -286.8790430000 ; +0.1362 kcal/mol
C       -0.1027370000    0.6050770000   -0.0000000000
C       -0.1742220000   -0.0510720000    0.0000000000
C       -0.0134270000    0.0818190000   -0.0000000000
C       -0.1744260000   -0.0503890000   -0.0000000000
C       -0.1000720000    0.6019620000   -0.0000000000
N       -0.2154550000   -0.1984800000   -0.0000000000
H        0.1243220000   -0.0322850000    0.0000000000
H        0.1307250000    0.0007950000    0.0000000000
H        0.1414370000   -0.0040190000   -0.0000000000
H        0.1305840000    0.0007740000   -0.0000000000
H        0.1242000000   -0.0321250000   -0.0000000000
C       -0.0124730000    0.0819660000    0.0000000000
H        0.1415440000   -0.0040230000    0.0000000000
13   
Frame   9 IRC: Energy =  -286.8787810000 ; +0.3006 kcal/mol
C       -0.1012780000    0.6011340000   -0.0000000000
C       -0.1766720000   -0.0510560000    0.0000000000
C       -0.0125980000    0.0824040000   -0.0000000000
C       -0.1764440000   -0.0508880000   -0.0000000000
C       -0.0997830000    0.6013610000   -0.0000000000
N       -0.2146810000   -0.1947270000   -0.0000000000
H        0.1243310000   -0.0321140000    0.0000000000
H        0.1308740000    0.0007700000    0.0000000000
H        0.1414180000   -0.0040490000   -0.0000000000
H        0.1308130000    0.0007670000   -0.0000000000
H        0.1243150000   -0.0321220000   -0.0000000000
C       -0.0117820000    0.0825750000    0.0000000000
H        0.1414860000   -0.0040560000    0.0000000000
13   
Frame  10 IRC: Energy =  -286.8787650000 ; +0.3106 kcal/mol
C       -0.1022300000    0.6019170000   -0.0000000000
C       -0.1763680000   -0.0512410000    0.0000000000
C       -0.0127380000    0.0825140000   -0.0000000000
C       -0.1765720000   -0.0507530000   -0.0000000000
C       -0.0996930000    0.6004300000   -0.0000000000
N       -0.2145510000   -0.1947620000   -0.0000000000
H        0.1243950000   -0.0321760000    0.0000000000
H        0.1309890000    0.0007770000    0.0000000000
H        0.1414430000   -0.0040520000   -0.0000000000
H        0.1308280000    0.0007620000   -0.0000000000
H        0.1242970000   -0.0320720000   -0.0000000000
C       -0.0113690000    0.0827120000    0.0000000000
H        0.1415690000   -0.0040570000    0.0000000000
13   
Frame  11 IRC: Energy =  -286.8784130000 ; +0.5315 kcal/mol
C       -0.1010380000    0.5986230000    0.0000000000
C       -0.1794560000   -0.0513260000    0.0000000000
C       -0.0113620000    0.0828010000   -0.0000000000
C       -0.1792280000   -0.0511150000   -0.0000000000
C       -0.0989910000    0.5980120000   -0.0000000000
N       -0.2135870000   -0.1899660000   -0.0000000000
H        0.1243820000   -0.0320360000    0.0000000000
H        0.1311840000    0.0007470000    0.0000000000
H        0.1414920000   -0.0040690000   -0.0000000000
H        0.1311140000    0.0007490000    0.0000000000
H        0.1243530000   -0.0319840000   -0.0000000000
C       -0.0103490000    0.0836740000    0.0000000000
H        0.1414860000   -0.0041090000    0.0000000000
13   
Frame  12 IRC: Energy =  -286.8783860000 ; +0.5484 kcal/mol
C       -0.1019250000    0.5983040000    0.0000000000
C       -0.1791340000   -0.0514400000    0.0000000000
C       -0.0116480000    0.0830080000   -0.0000000000
C       -0.1794380000   -0.0510960000   -0.0000000000
C       -0.0990320000    0.5980130000   -0.0000000000
N       -0.2134050000   -0.1899040000   -0.0000000000
H        0.1244250000   -0.0320620000    0.0000000000
H        0.1313430000    0.0007500000    0.0000000000
H        0.1415000000   -0.0040760000   -0.0000000000
H        0.1311220000    0.0007470000    0.0000000000
H        0.1243510000   -0.0319710000   -0.0000000000
C       -0.0097500000    0.0838410000    0.0000000000
H        0.1415920000   -0.0041120000    0.0000000000
13   
Frame  13 IRC: Energy =  -286.8779320000 ; +0.8333 kcal/mol
C       -0.1012200000    0.5961590000    0.0000000000
C       -0.1826330000   -0.0516560000    0.0000000000
C       -0.0102450000    0.0828800000   -0.0000000000
C       -0.1824860000   -0.0513660000   -0.0000000000
C       -0.0977000000    0.5935570000   -0.0000000000
N       -0.2122430000   -0.1843100000   -0.0000000000
H        0.1244510000   -0.0319890000    0.0000000000
H        0.1315860000    0.0007120000    0.0000000000
H        0.1416060000   -0.0040740000   -0.0000000000
H        0.1314560000    0.0007300000    0.0000000000
H        0.1244230000   -0.0317870000   -0.0000000000
C       -0.0084550000    0.0853280000    0.0000000000
H        0.1414610000   -0.0041860000    0.0000000000
13   
Frame  14 IRC: Energy =  -286.8778900000 ; +0.8597 kcal/mol
C       -0.1020340000    0.5948460000    0.0000000000
C       -0.1823280000   -0.0517020000    0.0000000000
C       -0.0107230000    0.0831390000   -0.0000000000
C       -0.1828130000   -0.0514490000   -0.0000000000
C       -0.0977820000    0.5944060000   -0.0000000000
N       -0.2120100000   -0.1841320000   -0.0000000000
H        0.1244750000   -0.0319860000    0.0000000000
H        0.1317800000    0.0007120000    0.0000000000
H        0.1416020000   -0.0040850000   -0.0000000000
H        0.1314590000    0.0007300000    0.0000000000
H        0.1244410000   -0.0318050000   -0.0000000000
C       -0.0076500000    0.0855160000    0.0000000000
H        0.1415840000   -0.0041900000    0.0000000000
13   
Frame  15 IRC: Energy =  -286.8773230000 ; +1.2155 kcal/mol
C       -0.1020650000    0.5942690000    0.0000000000
C       -0.1860350000   -0.0520430000    0.0000000000
C       -0.0092860000    0.0825240000   -0.0000000000
C       -0.1861140000   -0.0516090000   -0.0000000000
C       -0.0956980000    0.5878170000   -0.0000000000
N       -0.2107020000   -0.1780020000   -0.0000000000
H        0.1245270000   -0.0320000000    0.0000000000
H        0.1320740000    0.0006640000    0.0000000000
H        0.1417630000   -0.0040600000   -0.0000000000
H        0.1318130000    0.0007130000    0.0000000000
H        0.1245120000   -0.0315130000   -0.0000000000
C       -0.0061920000    0.0875260000    0.0000000000
H        0.1414050000   -0.0042860000    0.0000000000
13   
Frame  16 IRC: Energy =  -286.8772560000 ; +1.2575 kcal/mol
C       -0.1028070000    0.5919520000    0.0000000000
C       -0.1857760000   -0.0520170000    0.0000000000
C       -0.0099630000    0.0828120000   -0.0000000000
C       -0.1865840000   -0.0517940000   -0.0000000000
C       -0.0957730000    0.5895030000   -0.0000000000
N       -0.2104130000   -0.1776720000   -0.0000000000
H        0.1245250000   -0.0319700000    0.0000000000
H        0.1322990000    0.0006580000    0.0000000000
H        0.1417480000   -0.0040710000   -0.0000000000
H        0.1318140000    0.0007160000    0.0000000000
H        0.1245480000   -0.0315610000   -0.0000000000
C       -0.0051600000    0.0877370000    0.0000000000
H        0.1415430000   -0.0042920000    0.0000000000
13   
Frame  17 IRC: Energy =  -286.8765660000 ; +1.6905 kcal/mol
C       -0.1037100000    0.5933580000    0.0000000000
C       -0.1894940000   -0.0524860000    0.0000000000
C       -0.0084510000    0.0817270000   -0.0000000000
C       -0.1900170000   -0.0518220000   -0.0000000000
C       -0.0928660000    0.5807690000   -0.0000000000
N       -0.2090210000   -0.1713130000   -0.0000000000
H        0.1246160000   -0.0320870000    0.0000000000
H        0.1326340000    0.0006030000    0.0000000000
H        0.1419640000   -0.0040230000   -0.0000000000
H        0.1321730000    0.0006980000    0.0000000000
H        0.1246200000   -0.0311620000   -0.0000000000
C       -0.0037760000    0.0901430000    0.0000000000
H        0.1413270000   -0.0044050000    0.0000000000
13   
Frame  18 IRC: Energy =  -286.8764630000 ; +1.7551 kcal/mol
C       -0.1043800000    0.5899390000    0.0000000000
C       -0.1892830000   -0.0523740000    0.0000000000
C       -0.0093520000    0.0820060000   -0.0000000000
C       -0.1906580000   -0.0521090000   -0.0000000000
C       -0.0929090000    0.5834090000   -0.0000000000
N       -0.2086500000   -0.1707990000   -0.0000000000
H        0.1245810000   -0.0320300000    0.0000000000
H        0.1328870000    0.0005910000    0.0000000000
H        0.1419340000   -0.0040340000   -0.0000000000
H        0.1321720000    0.0007040000    0.0000000000
H        0.1246800000   -0.0312430000   -0.0000000000
C       -0.0024980000    0.0903510000    0.0000000000
H        0.1414760000   -0.0044130000    0.0000000000
13   
Frame  19 IRC: Energy =  -286.8756480000 ; +2.2666 kcal/mol
C       -0.1061310000    0.5936750000    0.0000000000
C       -0.1928870000   -0.0529790000    0.0000000000
C       -0.0076190000    0.0805760000   -0.0000000000
C       -0.1940720000   -0.0519900000    0.0000000000
C       -0.0892500000    0.5725120000   -0.0000000000
N       -0.2072690000   -0.1644990000   -0.0000000000
H        0.1247300000   -0.0322460000    0.0000000000
H        0.1332460000    0.0005310000    0.0000000000
H        0.1422150000   -0.0039680000   -0.0000000000
H        0.1325340000    0.0006840000    0.0000000000
H        0.1247360000   -0.0307400000   -0.0000000000
C       -0.0014710000    0.0929800000    0.0000000000
H        0.1412380000   -0.0045360000    0.0000000000
13   
Frame  20 IRC: Energy =  -286.8754860000 ; +2.3682 kcal/mol
C       -0.1066780000    0.5889320000    0.0000000000
C       -0.1927710000   -0.0527690000    0.0000000000
C       -0.0087200000    0.0808050000   -0.0000000000
C       -0.1949720000   -0.0523780000    0.0000000000
C       -0.0892040000    0.5762680000   -0.0000000000
N       -0.2068070000   -0.1637130000   -0.0000000000
H        0.1246530000   -0.0321550000    0.0000000000
H        0.1335220000    0.0005100000    0.0000000000
H        0.1421690000   -0.0039750000   -0.0000000000
H        0.1325300000    0.0006930000    0.0000000000
H        0.1248320000   -0.0308600000   -0.0000000000
C        0.0000580000    0.0931850000    0.0000000000
H        0.1413880000   -0.0045440000    0.0000000000
13   
Frame  21 IRC: Energy =  -286.8745420000 ; +2.9606 kcal/mol
C       -0.1092830000    0.5951820000    0.0000000000
C       -0.1962240000   -0.0535180000    0.0000000000
C       -0.0067050000    0.0791770000   -0.0000000000
C       -0.1982130000   -0.0521240000    0.0000000000
C       -0.0849430000    0.5631980000   -0.0000000000
N       -0.2054570000   -0.1576400000   -0.0000000000
H        0.1248950000   -0.0324640000    0.0000000000
H        0.1339050000    0.0004480000    0.0000000000
H        0.1425270000   -0.0038970000   -0.0000000000
H        0.1329110000    0.0006690000    0.0000000000
H        0.1248610000   -0.0302590000   -0.0000000000
C        0.0005740000    0.0958980000    0.0000000000
H        0.1411520000   -0.0046720000    0.0000000000
13   
Frame  22 IRC: Energy =  -286.8742890000 ; +3.1194 kcal/mol
C       -0.1096400000    0.5888870000    0.0000000000
C       -0.1962930000   -0.0531870000    0.0000000000
C       -0.0079230000    0.0793230000   -0.0000000000
C       -0.1994490000   -0.0526150000    0.0000000000
C       -0.0847430000    0.5682000000   -0.0000000000
N       -0.2049040000   -0.1564730000   -0.0000000000
H        0.1247770000   -0.0323290000    0.0000000000
H        0.1341980000    0.0004160000    0.0000000000
H        0.1424710000   -0.0038970000   -0.0000000000
H        0.1329050000    0.0006810000    0.0000000000
H        0.1250040000   -0.0304190000   -0.0000000000
C        0.0023020000    0.0960950000    0.0000000000
H        0.1412940000   -0.0046830000    0.0000000000
13   
Frame  23 IRC: Energy =  -286.8731920000 ; +3.8077 kcal/mol
C       -0.1131090000    0.5975490000    0.0000000000
C       -0.1996120000   -0.0540680000   -0.0000000000
C       -0.0056770000    0.0776130000   -0.0000000000
C       -0.2024600000   -0.0522530000    0.0000000000
C       -0.0800010000    0.5530760000   -0.0000000000
N       -0.2035470000   -0.1506470000   -0.0000000000
H        0.1251390000   -0.0327150000    0.0000000000
H        0.1346230000    0.0003530000    0.0000000000
H        0.1429220000   -0.0038140000   -0.0000000000
H        0.1333220000    0.0006510000    0.0000000000
H        0.1250000000   -0.0297290000   -0.0000000000
C        0.0023190000    0.0987940000    0.0000000000
H        0.1410810000   -0.0048110000    0.0000000000
13   
Frame  24 IRC: Energy =  -286.8728150000 ; +4.0443 kcal/mol
C       -0.1132530000    0.5895560000    0.0000000000
C       -0.1999440000   -0.0535740000   -0.0000000000
C       -0.0068700000    0.0776790000   -0.0000000000
C       -0.2040340000   -0.0528550000    0.0000000000
C       -0.0796790000    0.5594560000   -0.0000000000
N       -0.2029210000   -0.1490880000   -0.0000000000
H        0.1249980000   -0.0325260000    0.0000000000
H        0.1349240000    0.0003070000    0.0000000000
H        0.1428760000   -0.0038030000   -0.0000000000
H        0.1333240000    0.0006660000    0.0000000000
H        0.1251980000   -0.0299320000   -0.0000000000
C        0.0041640000    0.0989390000    0.0000000000
H        0.1412170000   -0.0048240000    0.0000000000
13   
Frame  25 IRC: Energy =  -286.8714910000 ; +4.8751 kcal/mol
C       -0.1174770000    0.5999200000    0.0000000000
C       -0.2032410000   -0.0544920000   -0.0000000000
C       -0.0045870000    0.0759360000   -0.0000000000
C       -0.2069910000   -0.0524340000   -0.0000000000
C       -0.0743920000    0.5427320000   -0.0000000000
N       -0.2014630000   -0.1432630000   -0.0000000000
H        0.1254950000   -0.0329510000    0.0000000000
H        0.1354170000    0.0002340000   -0.0000000000
H        0.1434400000   -0.0037180000   -0.0000000000
H        0.1337980000    0.0006280000    0.0000000000
H        0.1251820000   -0.0291710000   -0.0000000000
C        0.0037760000    0.1015300000    0.0000000000
H        0.1410420000   -0.0049520000    0.0000000000
13   
Frame  26 IRC: Energy =  -286.8710040000 ; +5.1807 kcal/mol
C       -0.1173460000    0.5900620000    0.0000000000
C       -0.2035930000   -0.0538130000   -0.0000000000
C       -0.0057670000    0.0760790000   -0.0000000000
C       -0.2086390000   -0.0531810000   -0.0000000000
C       -0.0742420000    0.5510380000   -0.0000000000
N       -0.2008850000   -0.1417390000   -0.0000000000
H        0.1253590000   -0.0326960000    0.0000000000
H        0.1357050000    0.0001770000   -0.0000000000
H        0.1433840000   -0.0036990000   -0.0000000000
H        0.1338030000    0.0006450000    0.0000000000
H        0.1254510000   -0.0294430000   -0.0000000000
C        0.0056150000    0.1015300000    0.0000000000
H        0.1411550000   -0.0049610000    0.0000000000
13   
Frame  27 IRC: Energy =  -286.8694640000 ; +6.1471 kcal/mol
C       -0.1219810000    0.6022230000    0.0000000000
C       -0.2070500000   -0.0545680000   -0.0000000000
C       -0.0035320000    0.0742520000   -0.0000000000
C       -0.2117010000   -0.0525740000   -0.0000000000
C       -0.0685740000    0.5326430000   -0.0000000000
N       -0.1993750000   -0.1358840000   -0.0000000000
H        0.1259800000   -0.0331340000    0.0000000000
H        0.1362460000    0.0000930000   -0.0000000000
H        0.1441600000   -0.0036130000   -0.0000000000
H        0.1343530000    0.0005950000    0.0000000000
H        0.1253920000   -0.0286170000   -0.0000000000
C        0.0049800000    0.1036630000    0.0000000000
H        0.1411020000   -0.0050780000    0.0000000000
13   
Frame  28 IRC: Energy =  -286.8688560000 ; +6.5286 kcal/mol
C       -0.1216140000    0.5917450000    0.0000000000
C       -0.2068220000   -0.0539880000   -0.0000000000
C       -0.0049400000    0.0748310000   -0.0000000000
C       -0.2128750000   -0.0535660000   -0.0000000000
C       -0.0681580000    0.5412280000   -0.0000000000
N       -0.1989260000   -0.1344690000   -0.0000000000
H        0.1259350000   -0.0328440000    0.0000000000
H        0.1364950000    0.0000330000   -0.0000000000
H        0.1439720000   -0.0035960000   -0.0000000000
H        0.1343490000    0.0006160000    0.0000000000
H        0.1257290000   -0.0288950000   -0.0000000000
C        0.0058760000    0.1040050000    0.0000000000
H        0.1409800000   -0.0050990000    0.0000000000
13   
Frame  29 IRC: Energy =  -286.8671180000 ; +7.6192 kcal/mol
C       -0.1260360000    0.6027870000    0.0000000000
C       -0.2106890000   -0.0539980000   -0.0000000000
C       -0.0031980000    0.0728440000   -0.0000000000
C       -0.2166300000   -0.0527530000   -0.0000000000
C       -0.0629570000    0.5244770000   -0.0000000000
N       -0.1974960000   -0.1287890000   -0.0000000000
H        0.1265790000   -0.0331890000    0.0000000000
H        0.1371090000   -0.0000770000   -0.0000000000
H        0.1450730000   -0.0035090000   -0.0000000000
H        0.1349800000    0.0005550000    0.0000000000
H        0.1256740000   -0.0281370000   -0.0000000000
C        0.0063140000    0.1049670000    0.0000000000
H        0.1412760000   -0.0051780000    0.0000000000
13   
Frame  30 IRC: Energy =  -286.8662880000 ; +8.1401 kcal/mol
C       -0.1258260000    0.5941480000    0.0000000000
C       -0.2099020000   -0.0536020000   -0.0000000000
C       -0.0047830000    0.0737330000   -0.0000000000
C       -0.2173490000   -0.0538160000   -0.0000000000
C       -0.0617070000    0.5303950000   -0.0000000000
N       -0.1970880000   -0.1271120000   -0.0000000000
H        0.1267040000   -0.0329290000    0.0000000000
H        0.1373600000   -0.0001430000   -0.0000000000
H        0.1448470000   -0.0034900000   -0.0000000000
H        0.1350270000    0.0005710000    0.0000000000
H        0.1260320000   -0.0283090000   -0.0000000000
C        0.0058050000    0.1057720000    0.0000000000
H        0.1408790000   -0.0052180000    0.0000000000
13   
Frame  31 IRC: Energy =  -286.8643010000 ; +9.3869 kcal/mol
C       -0.1293100000    0.6007460000    0.0000000000
C       -0.2137590000   -0.0524760000   -0.0000000000
C       -0.0044410000    0.0719830000   -0.0000000000
C       -0.2220240000   -0.0530270000   -0.0000000000
C       -0.0573700000    0.5181940000   -0.0000000000
N       -0.1959750000   -0.1217010000   -0.0000000000
H        0.1273370000   -0.0330680000    0.0000000000
H        0.1380970000   -0.0002890000   -0.0000000000
H        0.1462160000   -0.0034090000   -0.0000000000
H        0.1357130000    0.0005090000    0.0000000000
H        0.1260820000   -0.0277280000   -0.0000000000
C        0.0079100000    0.1055260000    0.0000000000
H        0.1415240000   -0.0052600000    0.0000000000
13   
Frame  32 IRC: Energy =  -286.8630930000 ; +10.1450 kcal/mol
C       -0.1291000000    0.5930750000    0.0000000000
C       -0.2124540000   -0.0518640000   -0.0000000000
C       -0.0064620000    0.0731330000   -0.0000000000
C       -0.2227420000   -0.0540810000   -0.0000000000
C       -0.0553460000    0.5219750000   -0.0000000000
N       -0.1956590000   -0.1195510000   -0.0000000000
H        0.1276590000   -0.0327940000    0.0000000000
H        0.1384540000   -0.0003770000   -0.0000000000
H        0.1461080000   -0.0033780000   -0.0000000000
H        0.1358580000    0.0005190000    0.0000000000
H        0.1264900000   -0.0278180000   -0.0000000000
C        0.0062500000    0.1064680000    0.0000000000
H        0.1409440000   -0.0053080000    0.0000000000
13   
Frame  33 IRC: Energy =  -286.8607480000 ; +11.6165 kcal/mol
C       -0.1315530000    0.5935330000    0.0000000000
C       -0.2152180000   -0.0491450000   -0.0000000000
C       -0.0090730000    0.0721040000   -0.0000000000
C       -0.2285620000   -0.0534500000   -0.0000000000
C       -0.0518170000    0.5145860000   -0.0000000000
N       -0.1950810000   -0.1140670000   -0.0000000000
H        0.1283100000   -0.0326690000    0.0000000000
H        0.1394330000   -0.0005670000   -0.0000000000
H        0.1477270000   -0.0033140000   -0.0000000000
H        0.1366240000    0.0004600000    0.0000000000
H        0.1267270000   -0.0274070000   -0.0000000000
C        0.0106250000    0.1052630000    0.0000000000
H        0.1418590000   -0.0053260000    0.0000000000
13   
Frame  34 IRC: Energy =  -286.8576600000 ; +13.5542 kcal/mol
C       -0.1323880000    0.5767270000    0.0000000000
C       -0.2112110000   -0.0450760000   -0.0000000000
C       -0.0145010000    0.0746550000   -0.0000000000
C       -0.2336220000   -0.0543660000   -0.0000000000
C       -0.0488800000    0.5188560000   -0.0000000000
N       -0.1958230000   -0.1077300000   -0.0000000000
H        0.1291910000   -0.0319360000    0.0000000000
H        0.1408940000   -0.0008110000   -0.0000000000
H        0.1488800000   -0.0032630000   -0.0000000000
H        0.1372510000    0.0004590000    0.0000000000
H        0.1272820000   -0.0274790000   -0.0000000000
C        0.0112440000    0.1053600000    0.0000000000
H        0.1416830000   -0.0053960000    0.0000000000
13   
Frame  35 IRC: Energy =  -286.8537820000 ; +15.9877 kcal/mol
C       -0.1353520000    0.5566130000    0.0000000000
C       -0.2053050000   -0.0384220000   -0.0000000000
C       -0.0218160000    0.0780410000   -0.0000000000
C       -0.2407830000   -0.0543470000   -0.0000000000
C       -0.0476860000    0.5216960000   -0.0000000000
N       -0.1971470000   -0.0992500000   -0.0000000000
H        0.1302090000   -0.0309380000    0.0000000000
H        0.1428330000   -0.0011230000   -0.0000000000
H        0.1510350000   -0.0032190000   -0.0000000000
H        0.1380880000    0.0004380000    0.0000000000
H        0.1276110000   -0.0275030000   -0.0000000000
C        0.0158150000    0.1034310000    0.0000000000
H        0.1424990000   -0.0054180000    0.0000000000
13   
Frame  36 IRC: Energy =  -286.8489670000 ; +19.0092 kcal/mol
C       -0.1406030000    0.5237130000    0.0000000000
C       -0.1935780000   -0.0287150000   -0.0000000000
C       -0.0262420000    0.0884650000   -0.0000000000
C       -0.2508130000   -0.0532550000   -0.0000000000
C       -0.0499520000    0.5262260000   -0.0000000000
N       -0.2003540000   -0.0877020000   -0.0000000000
H        0.1314810000   -0.0290570000    0.0000000000
H        0.1452250000   -0.0015180000   -0.0000000000
H        0.1542940000   -0.0031480000   -0.0000000000
H        0.1388100000    0.0004280000    0.0000000000
H        0.1272860000   -0.0277380000   -0.0000000000
C        0.0202150000    0.0975150000    0.0000000000
H        0.1442330000   -0.0052140000    0.0000000000
13   
Frame  37 IRC: Energy =  -286.8425430000 ; +23.0403 kcal/mol
C       -0.1488310000    0.4830740000    0.0000000000
C       -0.1771370000   -0.0155540000   -0.0000000000
C       -0.0299510000    0.1099610000   -0.0000000000
C       -0.2617440000   -0.0508530000   -0.0000000000
C       -0.0539490000    0.5250250000   -0.0000000000
N       -0.2041170000   -0.0728100000   -0.0000000000
H        0.1329300000   -0.0262250000    0.0000000000
H        0.1476680000   -0.0020770000   -0.0000000000
H        0.1579310000   -0.0028820000   -0.0000000000
H        0.1396660000    0.0003340000    0.0000000000
H        0.1265430000   -0.0278120000   -0.0000000000
C        0.0242800000    0.0842270000    0.0000000000
H        0.1467110000   -0.0044080000    0.0000000000
13   
Frame  38 IRC: Energy =  -286.8344200000 ; +28.1375 kcal/mol
C       -0.1603880000    0.4366540000    0.0000000000
C       -0.1561010000    0.0012550000   -0.0000000000
C       -0.0376680000    0.1523720000   -0.0000000000
C       -0.2708290000   -0.0477050000   -0.0000000000
C       -0.0554300000    0.5111070000   -0.0000000000
N       -0.2076940000   -0.0545570000   -0.0000000000
H        0.1345700000   -0.0226160000    0.0000000000
H        0.1498600000   -0.0029100000   -0.0000000000
H        0.1606630000   -0.0022790000   -0.0000000000
H        0.1406790000    0.0000660000    0.0000000000
H        0.1256550000   -0.0273310000   -0.0000000000
C        0.0275370000    0.0582750000    0.0000000000
H        0.1491470000   -0.0023320000    0.0000000000
13   