
Running Job 1 of 1 qcfsm.in
qchem qcfsm.in_44626.0 ./qcfsm.d/ 1
/home/leeping/opt/qchem/5.0.2-openmp/exe/qcprog.exe_s qcfsm.in_44626.0 ./qcfsm.d/
Check license passed

                  Welcome to Q-Chem
     A Quantum Leap Into The Future Of Chemistry


 Q-Chem 5.0, Q-Chem, Inc., Pleasanton, CA (2017)

 Yihan Shao,  Zhengting Gan,  E. Epifanovsky,  A. T. B. Gilbert,  M. Wormit,  
 J. Kussmann,  A. W. Lange,  A. Behn,  Jia Deng,  Xintian Feng,  D. Ghosh,  
 M. Goldey,  P. R. Horn,  L. D. Jacobson,  I. Kaliman,  T. Kus,  A. Landau,  
 Jie Liu,  E. I. Proynov,  R. M. Richard,  R. P. Steele,  E. J. Sundstrom,  
 H. L. Woodcock III,  P. M. Zimmerman,  D. Zuev,  B. Albrecht,  E. Alguire,  
 S. A. Baeppler,  D. Barton,  Z. Benda,  Y. A. Bernard,  E. J. Berquist,  
 K. B. Bravaya,  H. Burton,  D. Casanova,  Chun-Min Chang,  Yunqing Chen,  
 A. Chien,  K. D. Closser,  M. P. Coons,  S. Dasgupta,  A. L. Dempwolff,  
 M. Diedenhofen,  Hainam Do,  R. G. Edgar,  Po-Tung Fang,  S. Fatehi,  
 Qingguo Feng,  J. Fosso-Tande,  Qinghui Ge,  A. Ghysels,  G. Gidofalvi,  
 J. Gomes,  J. Gonthier,  A. Gunina,  M. W. D. Hanson-Heine,  
 P. H. P. Harbach,  A. W. Hauser,  J. E. Herr,  E. G. Hohenstein,  
 Z. C. Holden,  Kerwin Hui,  T.-C. Jagau,  Hyunjun Ji,  B. Kaduk,  
 K. Khistyaev,  Jaehoon Kim,  P. Klunzinger,  K. Koh,  D. Kosenkov,  
 L. Koulias,  T. Kowalczyk,  C. M. Krauter,  A. Kunitsa,  Ka Un Lao,  
 A. Laurent,  K. V. Lawler,  Joonho Lee,  D. Lefrancois,  S. Lehtola,  
 D. S. Levine,  Yi-Pei Li,  You-Sheng Lin,  Fenglai Liu,  E. Livshits,  
 A. Luenser,  P. Manohar,  E. Mansoor,  S. F. Manzer,  Shan-Ping Mao,  
 Yuezhi Mao,  N. Mardirossian,  A. V. Marenich,  T. Markovich,  
 L. A. Martinez-Martinez,  S. A. Maurer,  N. J. Mayhall,  S. C. McKenzie,  
 J.-M. Mewes,  A. F. Morrison,  J. W. Mullinax,  K. Nanda,  
 T. S. Nguyen-Beck,  R. Olivares-Amaya,  J. A. Parkhill,  T. M. Perrine,  
 F. Plasser,  S. Prager,  A. Prociuk,  E. Ramos,  D. R. Rehn,  F. Rob,  
 M. Schneider,  N. Sergueev,  S. M. Sharada,  S. Sharma,  D. W. Small,  
 T. Stauch,  T. Stein,  Yu-Chuan Su,  A. J. W. Thom,  A. Tkatchenko,  
 T. Tsuchimochi,  L. Vogt,  O. Vydrov,  M. A. Watson,  J. Wenzel,  
 M. de Wergifosse,  T. A. Wesolowski,  A. White,  J. Witte,  A. Yamada,  
 Jun Yang,  K. Yao,  S. Yeganeh,  S. R. Yost,  Zhi-Qiang You,  A. Zech,  
 Igor Ying Zhang,  Xing Zhang,  Yan Zhao,  Ying Zhu,  B. R. Brooks,  
 G. K. L. Chan,  C. J. Cramer,  M. S. Gordon,  W. J. Hehre,  A. Klamt,  
 M. W. Schmidt,  C. D. Sherrill,  D. G. Truhlar,  A. Aspuru-Guzik,  R. Baer,  
 A. T. Bell,  N. A. Besley,  Jeng-Da Chai,  R. A. DiStasio Jr.,  A. Dreuw,  
 B. D. Dunietz,  T. R. Furlani,  Chao-Ping Hsu,  Yousung Jung,  Jing Kong,  
 D. S. Lambrecht,  WanZhen Liang,  C. Ochsenfeld,  V. A. Rassolov,  
 L. V. Slipchenko,  J. E. Subotnik,  T. Van Voorhis,  J. M. Herbert,  
 A. I. Krylov,  P. M. W. Gill,  M. Head-Gordon

 Contributors to earlier versions of Q-Chem not listed above: 
 R. D. Adamson,  B. Austin,  J. Baker,  G. J. O. Beran,  K. Brandhorst,  
 S. T. Brown,  E. F. C. Byrd,  A. K. Chakraborty,  C.-L. Cheng,  
 Siu Hung Chien,  D. M. Chipman,  D. L. Crittenden,  H. Dachsel,  
 R. J. Doerksen,  A. D. Dutoi,  L. Fusti-Molnar,  W. A. Goddard III,  
 A. Golubeva-Zadorozhnaya,  S. R. Gwaltney,  G. Hawkins,  A. Heyden,  
 S. Hirata,  G. Kedziora,  F. J. Keil,  C. Kelley,  Jihan Kim,  R. A. King,  
 R. Z. Khaliullin,  P. P. Korambath,  W. Kurlancheek,  A. M. Lee,  M. S. Lee,  
 S. V. Levchenko,  Ching Yeh Lin,  D. Liotard,  R. C. Lochan,  I. Lotan,  
 P. E. Maslen,  N. Nair,  D. P. O'Neill,  D. Neuhauser,  E. Neuscamman,  
 C. M. Oana,  R. Olson,  B. Peters,  R. Peverati,  P. A. Pieniazek,  
 Y. M. Rhee,  J. Ritchie,  M. A. Rohrdanz,  E. Rosta,  N. J. Russ,  
 H. F. Schaefer III,  N. E. Schultz,  N. Shenvi,  A. C. Simmonett,  A. Sodt,  
 D. Stuck,  K. S. Thanthiriwatte,  V. Vanovschi,  Tao Wang,  A. Warshel,  
 C. F. Williams,  Q. Wu,  X. Xu,  W. Zhang

 Please cite Q-Chem as follows:
 Y. Shao et al., Mol. Phys. 113, 184-215 (2015)
 DOI: 10.1080/00268976.2014.952696

 Q-Chem 5.0.2 for Intel X86 EM64T Linux

 Parts of Q-Chem use Armadillo 5.200.1 (Boston Tea Smuggler).
 http://arma.sourceforge.net/

 Q-Chem begins on Wed Mar  2 10:14:48 2022  

Host: 
0

     Scratch files written to ./qcfsm.d//
 Dec517 15110_ 26548  26544 5633   
Processing $rem in /home/leeping/opt/qchem/5.0.2-openmp/config/preferences.
 MEM_STATIC 2000
 MEM_TOTAL  8000
 SYMMETRY   OFF
 SYM_IGNORE TRUE 
 Now reading second FSM geometry

Checking the input file for inconsistencies... 	...done.

--------------------------------------------------------------
User input:
--------------------------------------------------------------
$molecule
0 2
C        1.6803072342    0.3945463122   -0.1790683170
C        1.1263490106   -0.8348011062   -0.2673907334
C       -0.3164220115   -1.0621630924   -0.0827497347
C       -1.1559921890    0.3283053733    0.0476775594
C       -0.3270390790    1.5323805493   -0.1490913060
N        0.9598779594    1.5896965768   -0.1665298860
H        2.7571846633    0.5230636471   -0.2509313291
H        1.7481625718   -1.6980040683   -0.4919427787
H       -0.7580703293   -1.9017057218   -0.6227678223
H       -2.1629936635    0.3924217203   -0.3692168243
H       -0.8669858804    2.4604237218   -0.3527428824
C       -0.9581665579   -0.6145042569    1.1513137541
H       -1.7262117293   -1.1096596548    1.7334402998
****
C        1.1817511755    0.3159810802    0.4224808681
C        0.6606714180   -1.0909876685   -0.1224658165
C       -0.5671542514   -0.9251514321   -0.8882113850
C       -1.0851723069    0.1541927299    0.0598863570
C       -0.4654526888    1.4493570458   -0.4513033676
N        0.8066401300    1.5099103282   -0.2928003542
H        2.1701117512    0.2891431988    0.8698527010
H        1.3602633717   -1.9209098826   -0.1336211866
H       -0.8186152028   -1.1403540626   -1.9241126799
H       -2.1444925596    0.1671201826    0.3255108814
H       -1.0077872990    2.2013625395   -1.0222880467
C        0.0158181051   -0.3478210768    1.0624227087
H       -0.1065816429   -0.6618429823    2.0946493205
$end

$rem
method                b3lyp
basis                 6-31g(d)
unrestricted          true
symmetry              off
sym_ignore            true
incdft                false
incfock               0
scf_convergence       8
thresh                14
jobtype               fsm
scf_guess             core
scf_guess_mix         5
scf_algorithm         diis
max_scf_cycles        100
fsm_nnode             21
fsm_ngrad             6
fsm_mode              2
fsm_opt_mode          2
$end

--------------------------------------------------------------
 ----------------------------------------------------------------
             Standard Nuclear Orientation (Angstroms)
    I     Atom           X                Y                Z
 ----------------------------------------------------------------
    1      C       1.6803072342     0.3945463122    -0.1790683170
    2      C       1.1263490106    -0.8348011062    -0.2673907334
    3      C      -0.3164220115    -1.0621630924    -0.0827497347
    4      C      -1.1559921890     0.3283053733     0.0476775594
    5      C      -0.3270390790     1.5323805493    -0.1490913060
    6      N       0.9598779594     1.5896965768    -0.1665298860
    7      H       2.7571846633     0.5230636471    -0.2509313291
    8      H       1.7481625718    -1.6980040683    -0.4919427787
    9      H      -0.7580703293    -1.9017057218    -0.6227678223
   10      H      -2.1629936635     0.3924217203    -0.3692168243
   11      H      -0.8669858804     2.4604237218    -0.3527428824
   12      C      -0.9581665579    -0.6145042569     1.1513137541
   13      H      -1.7262117293    -1.1096596548     1.7334402998
 ----------------------------------------------------------------
 Nuclear Repulsion Energy =   269.1134027959 hartrees
 There are       25 alpha and       24 beta electrons
 Requested basis set is 6-31G(d)
 There are 40 shells and 117 basis functions

 Total QAlloc Memory Limit   8000 MB
 Mega-Array Size      1956 MB
 MEM_STATIC part      2000 MB
 beginning FSman 

*******************************************
*******************************************
******** Starting FSM Calculation *********
*******************************************
*******************************************
-FSM parameters:
 Maximum displacement of each coordinate during optimization (Angstrom)      0.05
 Maximum optimization steps for each new node                                6
 The scaling factor for optimization (hartrees/Angstrom^2)                   1.75
 The number of LST interpolations used for reparameterization                100
-Aligning product structure to maximum coincidence with the reactant structure
 Total R --> P Distance 3.340793
 New node interpolation distace (Angstroms): 0.16
-Performing force calculation on reactant structure in state:0
 ----------------------------------------------------------------
             Standard Nuclear Orientation (Angstroms)
    I     Atom           X                Y                Z
 ----------------------------------------------------------------
    1      C       1.6803072342     0.3945463122    -0.1790683170
    2      C       1.1263490106    -0.8348011062    -0.2673907334
    3      C      -0.3164220115    -1.0621630924    -0.0827497347
    4      C      -1.1559921890     0.3283053733     0.0476775594
    5      C      -0.3270390790     1.5323805493    -0.1490913060
    6      N       0.9598779594     1.5896965768    -0.1665298860
    7      H       2.7571846633     0.5230636471    -0.2509313291
    8      H       1.7481625718    -1.6980040683    -0.4919427787
    9      H      -0.7580703293    -1.9017057218    -0.6227678223
   10      H      -2.1629936635     0.3924217203    -0.3692168243
   11      H      -0.8669858804     2.4604237218    -0.3527428824
   12      C      -0.9581665579    -0.6145042569     1.1513137541
   13      H      -1.7262117293    -1.1096596548     1.7334402998
 ----------------------------------------------------------------
 Nuclear Repulsion Energy =   269.1134027959 hartrees
 There are       25 alpha and       24 beta electrons

                       Distance Matrix (Angstroms)
             C (  1)   C (  2)   C (  3)   C (  4)   C (  5)   N (  6)
   C (  2)  1.351283
   C (  3)  2.473501  1.472200
   C (  4)  2.846119  2.580923  1.629507
   C (  5)  2.307597  2.780266  2.595413  1.475018
   N (  6)  1.395550  2.432298  2.944201  2.472630  1.288311
   H (  7)  1.086897  2.122191  3.462411  3.929383  3.246772  2.091684
   H (  8)  2.116899  1.087288  2.198691  3.582071  3.854788  3.396507
   H (  9)  3.378658  2.194451  1.091561  2.362369  3.493294  3.917830
   H ( 10)  3.848002  3.512295  2.368060  1.091771  2.172255  3.350653
   H ( 11)  3.284313  3.852165  3.575561  2.188559  1.092831  2.032307
   C ( 12)  3.122442  2.531098  1.461214  1.464936  2.588144  3.205325
   H ( 13)  4.186251  3.495136  2.299632  2.287944  3.532985  4.255759
             H (  7)   H (  8)   H (  9)   H ( 10)   H ( 11)   C ( 12)
   H (  8)  2.451398
   H (  9)  4.286582  2.517899
   H ( 10)  4.923334  4.436450  2.702058
   H ( 11)  4.110759  4.914356  4.371836  2.440602
   C ( 12)  4.130882  3.346413  2.200975  2.185754  3.424278
   H ( 13)  5.167626  4.167704  2.667649  2.620724  4.223260  1.083487

 
 Requested basis set is 6-31G(d)
 There are 40 shells and 117 basis functions
 A cutoff of  1.0D-14 yielded    804 shell pairs
 There are      7076 function pairs
 
 -------------------------------------------------------
 OpenMP Integral Computing Module                       
 Release: version 1.0, May 2013, Q-Chem Inc. Pittsburgh 
 -------------------------------------------------------
 Integral Job Info:
 Integral job number is                      11
 Integral operator is                         1
 short-range coefficients                     0
 long-range coefficients              100000000
 Omega coefficients                           0
 if combine SR and LR in K                    0
 Integral screening is                        0
 Integral computing path is                   2
 max size of driver memory is            800000
 size of driver memory is                593474
 size of scratch memory is              2361544
 max col of scratch BK array               1296
 max len of scratch array in speh3          155
 max len of scratch index in speh4           18
 max int batch size is                      520
 min int batch size is                       52
 fixed nKL is                                52
 max L of basis functions is                  2
 order of int derivative is                   0
 number of shells is                         40
 number of basis is                         117
 number of cartesian basis is               117
 number of contracted shell pairs           804
 number of primitive shell pairs           3486
 maxK2 (contraction) of shell pair           36
 max number of K2 of shell pair               1
 max number of CS2 of shell pair             86
 max number of PS2 of shell pair            390
 mem total for path MDJ                  535308
 -------------------------------------------------------
 Smallest overlap matrix eigenvalue = 1.47E-03

 Scale SEOQF with 1.000000e-01/1.000000e-01/1.000000e-01

 Standard Electronic Orientation quadrupole field applied
 Nucleus-field energy     =     0.0000000053 hartrees
 Guess MOs from core Hamiltonian diagonalization
 Mixing HOMO and LUMO in initial guess
 Adding  50% of the LUMO to the HOMO
 An unrestricted hybrid HF-DFT SCF calculation will be
 performed using Pulay DIIS extrapolation
 Exchange:     0.2000 Hartree-Fock + 0.0800 Slater + 0.7200 B88
 Correlation:  0.1900 VWN1RPA + 0.8100 LYP
 Using SG-1 standard quadrature grid
 SCF converges when DIIS error is below 1.0E-08
 using 4 threads for integral computing
 -------------------------------------------------------
 OpenMP Integral computing Module                
 Release: version 1.0, May 2013, Q-Chem Inc. Pittsburgh 
 -------------------------------------------------------
 -------------------------------------------------------
 OpenMP BLAS3 based DFT computing Module                
 Release: version 1.0, May 2013, Q-Chem Inc. Pittsburgh 
 -------------------------------------------------------
 ---------------------------------------
  Cycle       Energy         DIIS Error
 ---------------------------------------
    1    -237.9493561106      1.30E-01
    2    -233.1051683555      1.00E-01
    3    -251.2675114130      1.06E-01
    4    -279.8769397205      6.24E-02
    5    -282.0571025399      4.59E-02
    6    -286.1795841868      1.66E-02
    7    -286.3551656899      1.58E-02
    8    -286.8310832241      3.31E-03
    9    -286.8535209059      8.67E-04
   10    -286.8545794842      4.14E-04
   11    -286.8548910159      8.05E-05
   12    -286.8549072340      3.41E-05
   13    -286.8549106954      1.23E-05
   14    -286.8549116550      2.56E-06
   15    -286.8549117478      1.26E-06
   16    -286.8549117722      3.69E-07
   17    -286.8549117817      1.49E-07
   18    -286.8549117841      4.27E-08
   19    -286.8549117853      1.85E-08
   20    -286.8549117856      8.20E-09 Convergence criterion met
 ---------------------------------------
 <S^2> = 0.7532
 SCF time:  CPU 51.85 s  wall 48.57 s
 SCF   energy in the final basis set = -286.85491179
 Total energy in the final basis set = -286.85491179
 
 --------------------------------------------------------------
 
                    Orbital Energies (a.u.)
 --------------------------------------------------------------
 
 Alpha MOs
 -- Occupied --
-14.323 -10.230 -10.224 -10.221 -10.219 -10.206 -10.195  -0.934
 -0.868  -0.765  -0.667  -0.641  -0.570  -0.532  -0.491  -0.482
 -0.451  -0.425  -0.377  -0.373  -0.359  -0.300  -0.255  -0.229
 -0.219
 -- Virtual --
 -0.031   0.048   0.085   0.130   0.135   0.151   0.156   0.173
  0.184   0.228   0.244   0.286   0.296   0.328   0.400   0.437
  0.504   0.506   0.529   0.551   0.552   0.581   0.592   0.605
  0.617   0.630   0.647   0.669   0.672   0.713   0.754   0.803
  0.832   0.845   0.860   0.867   0.879   0.896   0.902   0.924
  0.937   1.001   1.077   1.099   1.114   1.170   1.212   1.328
  1.350   1.434   1.488   1.522   1.548   1.567   1.602   1.700
  1.724   1.766   1.816   1.828   1.897   1.914   1.949   2.021
  2.032   2.055   2.147   2.203   2.220   2.242   2.295   2.344
  2.437   2.469   2.504   2.529   2.545   2.579   2.633   2.673
  2.733   2.806   2.838   3.019   3.234   4.027   4.106   4.140
  4.276   4.317   4.397   4.609
 
 Beta MOs
 -- Occupied --
-14.323 -10.229 -10.224 -10.221 -10.207 -10.204 -10.194  -0.932
 -0.858  -0.763  -0.659  -0.639  -0.556  -0.527  -0.488  -0.473
 -0.447  -0.422  -0.375  -0.371  -0.351  -0.291  -0.250  -0.225
 -- Virtual --
 -0.072  -0.029   0.051   0.091   0.131   0.137   0.154   0.162
  0.179   0.186   0.233   0.246   0.291   0.311   0.330   0.403
  0.439   0.508   0.531   0.541   0.557   0.558   0.587   0.595
  0.611   0.622   0.640   0.650   0.673   0.674   0.719   0.766
  0.806   0.833   0.847   0.862   0.869   0.884   0.902   0.906
  0.925   0.941   1.013   1.079   1.104   1.119   1.175   1.215
  1.331   1.351   1.440   1.496   1.526   1.550   1.570   1.609
  1.705   1.730   1.787   1.821   1.830   1.920   1.925   1.963
  2.025   2.039   2.064   2.158   2.213   2.230   2.252   2.300
  2.354   2.440   2.474   2.514   2.535   2.547   2.589   2.637
  2.674   2.737   2.816   2.848   3.019   3.236   4.028   4.112
  4.141   4.300   4.321   4.401   4.610
 --------------------------------------------------------------
 
          Ground-State Mulliken Net Atomic Charges

     Atom                 Charge (a.u.)    Spin (a.u.)
  --------------------------------------------------------
      1 C                    -0.009203      -0.014665
      2 C                    -0.083864       0.041060
      3 C                    -0.175836      -0.016689
      4 C                    -0.194266      -0.017107
      5 C                     0.088613       0.019267
      6 N                    -0.391558       0.002506
      7 H                     0.136782       0.000774
      8 H                     0.139543       0.003633
      9 H                     0.155137       0.017055
     10 H                     0.155355       0.022638
     11 H                     0.142799       0.005883
     12 C                    -0.121298       0.958853
     13 H                     0.157796      -0.023207
  --------------------------------------------------------
  Sum of atomic charges =    -0.000000
  Sum of spin   charges =     1.000000

 -----------------------------------------------------------------
                    Cartesian Multipole Moments
 -----------------------------------------------------------------
    Charge (ESU x 10^10)
                 0.0000
    Dipole Moment (Debye)
         X      -1.9386      Y      -2.0362      Z      -0.3370
       Tot       2.8315
    Quadrupole Moments (Debye-Ang)
        XX     -36.9973     XY      -2.9635     YY     -41.5667
        XZ      -0.4184     YZ       0.3088     ZZ     -42.3369
    Octopole Moments (Debye-Ang^2)
       XXX     -13.2579    XXY     -10.5850    XYY     -13.7774
       YYY     -28.3672    XXZ      -1.6108    XYZ       3.2832
       YYZ      -2.8396    XZZ      -7.8391    YZZ      -8.0477
       ZZZ      -3.9795
    Hexadecapole Moments (Debye-Ang^3)
      XXXX    -325.2173   XXXY     -19.4061   XXYY    -115.5702
      XYYY     -41.3767   YYYY    -337.4817   XXXZ      30.7337
      XXYZ       3.6130   XYYZ      12.1906   YYYZ      20.6253
      XXZZ     -75.9414   XYZZ      -3.2074   YYZZ     -72.9748
      XZZZ      32.7949   YZZZ      15.2109   ZZZZ    -107.6152
 -----------------------------------------------------------------
 Calculating analytic gradient of the SCF energy
 Gradient of SCF Energy
            1           2           3           4           5           6
    1   0.0000387   0.0000120   0.0000107  -0.0000144   0.0000561  -0.0000636
    2  -0.0000241  -0.0000190   0.0001350  -0.0001705   0.0000427   0.0000156
    3  -0.0000276   0.0000539  -0.0000096  -0.0000317   0.0000205   0.0000214
            7           8           9          10          11          12
    1  -0.0000053   0.0000120  -0.0000164  -0.0000021  -0.0000029  -0.0000515
    2   0.0000221   0.0000092  -0.0000024   0.0000103   0.0000033  -0.0000079
    3   0.0000129   0.0000114   0.0000068  -0.0000311  -0.0000024  -0.0000475
           13
    1   0.0000266
    2  -0.0000144
    3   0.0000231
 Max gradient component =       1.705E-04
 RMS gradient           =       4.356E-05
 Gradient time:  CPU 8.14 s  wall 4.71 s
-Performing force calculation on product structure in state0
 ----------------------------------------------------------------
             Standard Nuclear Orientation (Angstroms)
    I     Atom           X                Y                Z
 ----------------------------------------------------------------
    1      C       1.1818260992     0.3159786665     0.4222730411
    2      C       0.6606001465    -1.0910367096    -0.1224133826
    3      C      -0.5673247206    -0.9252414364    -0.8880087429
    4      C      -1.0851562494     0.1542545083     0.0600180855
    5      C      -0.4654441527     1.4493200864    -0.4514308468
    6      N       0.8066738913     1.5098313663    -0.2931143537
    7      H       2.1702480986     0.2891512759     0.8695097776
    8      H       1.3601493864    -1.9209950924    -0.1335565066
    9      H      -0.8189416715    -1.1405693779    -1.9238461156
   10      H      -2.1444385831     0.1672698235     0.3257894983
   11      H      -1.0078215861     2.2012765217    -1.0224394587
   12      C       0.0159499178    -0.3476805469     1.0624667351
   13      H      -0.1063205769    -0.6615590848     2.0947522688
 ----------------------------------------------------------------
 Nuclear Repulsion Energy =   282.1909427798 hartrees
 There are       25 alpha and       24 beta electrons

                       Distance Matrix (Angstroms)
             C (  1)   C (  2)   C (  3)   C (  4)   C (  5)   N (  6)
   C (  2)  1.596262
   C (  3)  2.513363  1.456511
   C (  4)  2.301433  2.152138  1.527159
   C (  5)  2.182045  2.798150  2.416510  1.524079
   N (  6)  1.441458  2.610554  2.858558  2.353999  1.283359
   H (  7)  1.085227  2.273294  3.472452  3.357251  3.168241  2.168200
   H (  8)  2.311882  1.085506  2.296928  3.213044  3.846149  3.478845
   H (  9)  3.410114  2.331664  1.087491  2.383937  3.000082  3.510917
   H ( 10)  3.330985  3.106841  2.270281  1.092192  2.250943  3.300694
   H ( 11)  3.230495  3.799079  3.160257  2.316893  1.088881  2.074224
   C ( 12)  1.486458  1.540160  2.116162  1.571393  2.398507  2.431706
   H ( 13)  2.326390  2.385045  3.029673  2.400795  3.326835  3.354162
             H (  7)   H (  8)   H (  9)   H ( 10)   H ( 11)   C ( 12)
   H (  8)  2.558740
   H (  9)  4.333843  2.926199
   H ( 10)  4.350518  4.105361  2.920316
   H ( 11)  4.163631  4.836375  3.466431  2.691989
   C ( 12)  2.254726  2.390118  3.200591  2.339903  3.448496
   H ( 13)  2.754602  2.949928  4.109308  2.823139  4.327287  1.085856

 
 Applying Cartesian multipole field
    Component          Value
    ---------          -----
     (2,0,0)        1.00000E-11
     (0,2,0)        2.00000E-11
     (0,0,2)       -3.00000E-11
 Nucleus-field energy     =     0.0000000025 hartrees
 Requested basis set is 6-31G(d)
 There are 40 shells and 117 basis functions
 A cutoff of  1.0D-14 yielded    812 shell pairs
 There are      7084 function pairs
 Smallest overlap matrix eigenvalue = 1.65E-03
 Guess MOs from core Hamiltonian diagonalization
 Mixing HOMO and LUMO in initial guess
 Adding  50% of the LUMO to the HOMO
 An unrestricted hybrid HF-DFT SCF calculation will be
 performed using Pulay DIIS extrapolation
 Exchange:     0.2000 Hartree-Fock + 0.0800 Slater + 0.7200 B88
 Correlation:  0.1900 VWN1RPA + 0.8100 LYP
 Using SG-1 standard quadrature grid
 SCF converges when DIIS error is below 1.0E-08
 using 4 threads for integral computing
 -------------------------------------------------------
 OpenMP Integral computing Module                
 Release: version 1.0, May 2013, Q-Chem Inc. Pittsburgh 
 -------------------------------------------------------
 -------------------------------------------------------
 OpenMP BLAS3 based DFT computing Module                
 Release: version 1.0, May 2013, Q-Chem Inc. Pittsburgh 
 -------------------------------------------------------
 ---------------------------------------
  Cycle       Energy         DIIS Error
 ---------------------------------------
    1    -236.3080803547      1.34E-01
    2    -225.7565320214      1.11E-01
    3    -256.6336424286      1.01E-01
    4    -276.2016251009      7.34E-02
    5    -282.8262801658      4.29E-02
    6    -286.3578965085      1.58E-02
    7    -286.4888159689      1.31E-02
    8    -286.8104851609      3.89E-03
    9    -286.8277557489      2.44E-03
   10    -286.8380472184      2.90E-04
   11    -286.8382551703      1.42E-04
   12    -286.8383083461      5.10E-05
   13    -286.8383261410      2.52E-05
   14    -286.8383287011      7.98E-06
   15    -286.8383289088      1.44E-06
   16    -286.8383289284      4.10E-07
   17    -286.8383289326      2.18E-07
   18    -286.8383289333      8.55E-08
   19    -286.8383289335      1.78E-08
   20    -286.8383289335      8.13E-09 Convergence criterion met
 ---------------------------------------
 <S^2> = 0.7566
 SCF time:  CPU 52.62 s  wall 31.74 s
 SCF   energy in the final basis set = -286.83832893
 Total energy in the final basis set = -286.83832893
 
 --------------------------------------------------------------
 
                    Orbital Energies (a.u.)
 --------------------------------------------------------------
 
 Alpha MOs
 -- Occupied --
-14.320 -10.224 -10.220 -10.210 -10.209 -10.208 -10.206  -0.968
 -0.856  -0.749  -0.664  -0.606  -0.571  -0.535  -0.516  -0.467
 -0.439  -0.405  -0.400  -0.356  -0.336  -0.298  -0.273  -0.256
 -0.182
 -- Virtual --
  0.004   0.101   0.114   0.128   0.150   0.150   0.153   0.162
  0.177   0.200   0.221   0.262   0.280   0.296   0.348   0.391
  0.494   0.513   0.524   0.543   0.558   0.573   0.601   0.605
  0.605   0.659   0.675   0.677   0.720   0.741   0.770   0.777
  0.805   0.807   0.822   0.842   0.854   0.877   0.889   0.936
  0.954   0.973   1.043   1.096   1.206   1.237   1.328   1.390
  1.446   1.475   1.504   1.517   1.587   1.632   1.672   1.713
  1.743   1.828   1.873   1.881   1.932   1.954   1.987   2.026
  2.060   2.168   2.207   2.218   2.232   2.253   2.363   2.380
  2.456   2.490   2.502   2.541   2.590   2.626   2.664   2.676
  2.718   2.808   2.841   2.914   2.963   3.959   4.194   4.239
  4.362   4.433   4.508   4.640
 
 Beta MOs
 -- Occupied --
-14.319 -10.222 -10.219 -10.211 -10.209 -10.207 -10.193  -0.964
 -0.850  -0.741  -0.652  -0.601  -0.567  -0.528  -0.511  -0.461
 -0.434  -0.403  -0.394  -0.348  -0.332  -0.291  -0.262  -0.251
 -- Virtual --
 -0.062   0.020   0.103   0.118   0.134   0.151   0.156   0.157
  0.165   0.181   0.204   0.227   0.267   0.284   0.298   0.360
  0.394   0.497   0.518   0.532   0.553   0.561   0.578   0.607
  0.610   0.622   0.669   0.679   0.683   0.729   0.745   0.775
  0.787   0.808   0.809   0.824   0.844   0.858   0.882   0.892
  0.940   0.958   0.976   1.047   1.108   1.208   1.243   1.334
  1.392   1.449   1.481   1.514   1.525   1.594   1.640   1.677
  1.716   1.751   1.835   1.878   1.894   1.940   1.970   1.994
  2.034   2.068   2.172   2.222   2.226   2.242   2.270   2.368
  2.390   2.463   2.497   2.511   2.546   2.594   2.633   2.666
  2.684   2.725   2.813   2.846   2.917   2.965   3.961   4.208
  4.245   4.369   4.438   4.511   4.644
 --------------------------------------------------------------
 
          Ground-State Mulliken Net Atomic Charges

     Atom                 Charge (a.u.)    Spin (a.u.)
  --------------------------------------------------------
      1 C                    -0.019098       0.096933
      2 C                    -0.163251      -0.095877
      3 C                    -0.066380       0.888394
      4 C                    -0.257948      -0.065700
      5 C                     0.088583       0.047050
      6 N                    -0.342238       0.039235
      7 H                     0.151451       0.002843
      8 H                     0.147195       0.005291
      9 H                     0.136241      -0.019299
     10 H                     0.142812       0.022680
     11 H                     0.143042       0.001381
     12 C                    -0.108474       0.077853
     13 H                     0.148064      -0.000782
  --------------------------------------------------------
  Sum of atomic charges =    -0.000000
  Sum of spin   charges =     1.000000

 -----------------------------------------------------------------
                    Cartesian Multipole Moments
 -----------------------------------------------------------------
    Charge (ESU x 10^10)
                 0.0000
    Dipole Moment (Debye)
         X      -1.1924      Y      -1.5147      Z       0.6947
       Tot       2.0491
    Quadrupole Moments (Debye-Ang)
        XX     -38.9039     XY      -4.7739     YY     -43.5803
        XZ       2.2657     YZ       0.0674     ZZ     -38.8345
    Octopole Moments (Debye-Ang^2)
       XXX      -7.6616    XXY      -7.3283    XYY      -7.6618
       YYY     -20.1631    XXZ       4.1830    XYZ       2.5948
       YYZ       0.0352    XZZ      -4.7121    YZZ      -7.4326
       ZZZ       4.5754
    Hexadecapole Moments (Debye-Ang^3)
      XXXX    -211.8932   XXXY      -9.0327   XXYY     -90.3167
      XYYY     -25.1947   YYYY    -306.9711   XXXZ     -14.9343
      XXYZ       3.9135   XYYZ      -1.4429   YYYZ       6.3571
      XXZZ     -62.8757   XYZZ      -1.4730   YYZZ     -73.4271
      XZZZ     -16.9743   YZZZ       7.6949   ZZZZ    -146.0783
 -----------------------------------------------------------------
 Calculating analytic gradient of the SCF energy
 Gradient of SCF Energy
            1           2           3           4           5           6
    1   0.0000162  -0.0001711   0.0000491  -0.0000125   0.0000065   0.0000444
    2   0.0002500  -0.0001390   0.0000209  -0.0000056  -0.0000140  -0.0000796
    3   0.0000697  -0.0000269   0.0000090  -0.0000095  -0.0000150  -0.0000481
            7           8           9          10          11          12
    1   0.0000018   0.0000309  -0.0000168   0.0000044  -0.0000151   0.0000642
    2  -0.0000066   0.0000345  -0.0000435   0.0000103   0.0000042  -0.0000557
    3  -0.0000104   0.0000200   0.0000349   0.0000053   0.0000023  -0.0000401
           13
    1  -0.0000018
    2   0.0000239
    3   0.0000088
 Max gradient component =       2.500E-04
 RMS gradient           =       6.144E-05
 Gradient time:  CPU 8.42 s  wall 6.43 s

STARTING FREEZING STRING ITERATION # 1
 The distance between the innermost nodes (Angstroms): 3.341
-Adding two new nodes
 The distance between the previous and current R_nodes (Angstroms): 0.1679
 The distance between the previous and current P_nodes (Angstroms): 0.1579
-Optimizing new reactant side node
 Using BFGS, step: 2 E_tol 0.0166
 max_steps 6, node_spacing 0.1591, sigma 0.7000
 ----------------------------------------------------------------
             Standard Nuclear Orientation (Angstroms)
    I     Atom           X                Y                Z
 ----------------------------------------------------------------
    1      C       1.6624291332     0.3917139461    -0.1465154443
    2      C       1.1117180224    -0.8483801095    -0.2612138946
    3      C      -0.3341418259    -1.0621633761    -0.1378317030
    4      C      -1.1552467353     0.3236789531     0.0439961123
    5      C      -0.3355428323     1.5320875726    -0.1668143197
    6      N       0.9500071411     1.5919328240    -0.1726425408
    7      H       2.7414716192     0.5134761659    -0.1932331057
    8      H       1.7396994349    -1.7098546236    -0.4738644194
    9      H      -0.7771285985    -1.8863954686    -0.6976992369
   10      H      -2.1764409049     0.3878171464    -0.3368258766
   11      H      -0.8751966904     2.4560939672    -0.3880473133
   12      C      -0.9099134809    -0.6017157010     1.1590849820
   13      H      -1.6552725838    -1.0931545297     1.7733753689
 ----------------------------------------------------------------
 Nuclear Repulsion Energy =   269.2712697204 hartrees
 There are       25 alpha and       24 beta electrons

                       Distance Matrix (Angstroms)
             C (  1)   C (  2)   C (  3)   C (  4)   C (  5)   N (  6)
   C (  2)  1.361716
   C (  3)  2.469844  1.466778
   C (  4)  2.824928  2.570215  1.621059
   C (  5)  2.300599  2.787490  2.594413  1.475333
   N (  6)  1.395977  2.447268  2.948640  2.467285  1.286955
   H (  7)  1.086895  2.124940  3.456169  3.908544  3.241340  2.091133
   H (  8)  2.128314  1.087069  2.198463  3.575493  3.861489  3.408247
   H (  9)  3.383050  2.199031  1.090435  2.361676  3.487530  3.918858
   H ( 10)  3.843586  3.513672  2.352894  1.091777  2.174204  3.354330
   H ( 11)  3.280175  3.857910  3.568401  2.193692  1.092684  2.030897
   C ( 12)  3.050974  2.482959  1.491817  1.469683  2.577019  3.169369
   H ( 13)  4.110713  3.443211  2.323588  2.290894  3.521068  4.217127
             H (  7)   H (  8)   H (  9)   H ( 10)   H ( 11)   C ( 12)
   H (  8)  2.454690
   H (  9)  4.288871  2.532922
   H ( 10)  4.921613  4.444678  2.694503
   H ( 11)  4.109989  4.919367  4.354620  2.444101
   C ( 12)  4.050312  3.303777  2.261787  2.195681  3.427101
   H ( 13)  5.077418  4.117796  2.739813  2.630179  4.228171  1.083709

 
 Applying Cartesian multipole field
    Component          Value
    ---------          -----
     (2,0,0)        1.00000E-11
     (0,2,0)        2.00000E-11
     (0,0,2)       -3.00000E-11
 Nucleus-field energy     =     0.0000000052 hartrees
 Requested basis set is 6-31G(d)
 There are 40 shells and 117 basis functions
 A cutoff of  1.0D-14 yielded    805 shell pairs
 There are      7077 function pairs
 Smallest overlap matrix eigenvalue = 1.45E-03
 Guess MOs from core Hamiltonian diagonalization
 Mixing HOMO and LUMO in initial guess
 Adding  50% of the LUMO to the HOMO
 An unrestricted hybrid HF-DFT SCF calculation will be
 performed using Pulay DIIS extrapolation
 Exchange:     0.2000 Hartree-Fock + 0.0800 Slater + 0.7200 B88
 Correlation:  0.1900 VWN1RPA + 0.8100 LYP
 Using SG-1 standard quadrature grid
 SCF converges when DIIS error is below 1.0E-08
 using 4 threads for integral computing
 -------------------------------------------------------
 OpenMP Integral computing Module                
 Release: version 1.0, May 2013, Q-Chem Inc. Pittsburgh 
 -------------------------------------------------------
 -------------------------------------------------------
 OpenMP BLAS3 based DFT computing Module                
 Release: version 1.0, May 2013, Q-Chem Inc. Pittsburgh 
 -------------------------------------------------------
 ---------------------------------------
  Cycle       Energy         DIIS Error
 ---------------------------------------
    1    -237.8233983775      1.30E-01
    2    -232.9349808134      1.00E-01
    3    -251.2196352650      1.06E-01
    4    -280.0288693959      6.20E-02
    5    -282.0188510333      4.61E-02
    6    -286.2382732021      1.62E-02
    7    -286.2979470060      1.67E-02
    8    -286.8333893038      3.00E-03
    9    -286.8510581697      1.15E-03
   10    -286.8530586990      4.39E-04
   11    -286.8533899498      8.63E-05
   12    -286.8534036578      4.25E-05
   13    -286.8534079065      9.04E-06
   14    -286.8534088766      2.02E-06
   15    -286.8534091509      1.06E-06
   16    -286.8534092527      3.32E-07
   17    -286.8534093425      1.30E-07
   18    -286.8534093894      1.04E-07
   19    -286.8534094187      5.35E-08
   20    -286.8534094313      2.63E-08
   21    -286.8534094333      7.73E-09 Convergence criterion met
 ---------------------------------------
 <S^2> = 0.7533
 SCF time:  CPU 53.84 s  wall 40.28 s
 SCF   energy in the final basis set = -286.85340943
 Total energy in the final basis set = -286.85340943
 
 --------------------------------------------------------------
 
                    Orbital Energies (a.u.)
 --------------------------------------------------------------
 
 Alpha MOs
 -- Occupied --
-14.323 -10.229 -10.224 -10.221 -10.221 -10.206 -10.196  -0.934
 -0.865  -0.764  -0.664  -0.640  -0.572  -0.532  -0.489  -0.481
 -0.450  -0.426  -0.377  -0.371  -0.354  -0.300  -0.257  -0.231
 -0.219
 -- Virtual --
 -0.032   0.049   0.086   0.131   0.137   0.153   0.156   0.169
  0.184   0.222   0.242   0.285   0.287   0.327   0.396   0.438
  0.506   0.510   0.531   0.550   0.555   0.580   0.592   0.602
  0.616   0.623   0.649   0.668   0.671   0.709   0.757   0.807
  0.829   0.844   0.860   0.866   0.877   0.896   0.902   0.927
  0.943   1.002   1.078   1.096   1.112   1.173   1.206   1.332
  1.354   1.440   1.490   1.522   1.542   1.574   1.600   1.707
  1.726   1.781   1.819   1.830   1.873   1.911   1.936   2.016
  2.037   2.063   2.143   2.211   2.214   2.236   2.281   2.341
  2.445   2.474   2.499   2.524   2.547   2.569   2.630   2.678
  2.729   2.783   2.830   3.017   3.227   4.026   4.113   4.143
  4.274   4.324   4.395   4.602
 
 Beta MOs
 -- Occupied --
-14.323 -10.228 -10.224 -10.221 -10.207 -10.206 -10.195  -0.933
 -0.855  -0.762  -0.656  -0.638  -0.557  -0.527  -0.486  -0.472
 -0.447  -0.423  -0.375  -0.369  -0.346  -0.292  -0.251  -0.223
 -- Virtual --
 -0.074  -0.029   0.052   0.092   0.132   0.138   0.156   0.162
  0.176   0.185   0.228   0.244   0.289   0.302   0.329   0.399
  0.440   0.511   0.534   0.543   0.555   0.562   0.587   0.594
  0.607   0.621   0.635   0.651   0.671   0.672   0.715   0.770
  0.809   0.831   0.846   0.861   0.869   0.881   0.901   0.905
  0.928   0.947   1.015   1.080   1.102   1.116   1.179   1.209
  1.335   1.356   1.447   1.497   1.526   1.545   1.578   1.606
  1.711   1.732   1.801   1.823   1.833   1.910   1.921   1.942
  2.020   2.042   2.073   2.156   2.218   2.226   2.243   2.286
  2.349   2.449   2.480   2.510   2.530   2.549   2.579   2.634
  2.679   2.734   2.792   2.841   3.018   3.228   4.027   4.119
  4.144   4.299   4.327   4.399   4.603
 --------------------------------------------------------------
 
          Ground-State Mulliken Net Atomic Charges

     Atom                 Charge (a.u.)    Spin (a.u.)
  --------------------------------------------------------
      1 C                    -0.012814      -0.016569
      2 C                    -0.084291       0.043602
      3 C                    -0.175270      -0.018408
      4 C                    -0.194909      -0.020874
      5 C                     0.090750       0.014297
      6 N                    -0.389173       0.003389
      7 H                     0.135269       0.000701
      8 H                     0.141045       0.003393
      9 H                     0.155622       0.012680
     10 H                     0.156409       0.025623
     11 H                     0.141833       0.005405
     12 C                    -0.122556       0.965791
     13 H                     0.158085      -0.019031
  --------------------------------------------------------
  Sum of atomic charges =    -0.000000
  Sum of spin   charges =     1.000000

 -----------------------------------------------------------------
                    Cartesian Multipole Moments
 -----------------------------------------------------------------
    Charge (ESU x 10^10)
                 0.0000
    Dipole Moment (Debye)
         X      -1.9813      Y      -2.0409      Z      -0.3216
       Tot       2.8625
    Quadrupole Moments (Debye-Ang)
        XX     -37.0956     XY      -3.0653     YY     -41.6221
        XZ      -0.3195     YZ       0.3927     ZZ     -42.2094
    Octopole Moments (Debye-Ang^2)
       XXX     -13.2819    XXY     -10.4345    XYY     -13.4487
       YYY     -28.1638    XXZ      -1.3341    XYZ       3.2396
       YYZ      -2.9285    XZZ      -7.9756    YZZ      -8.2268
       ZZZ      -3.3336
    Hexadecapole Moments (Debye-Ang^3)
      XXXX    -319.5613   XXXY     -19.1254   XXYY    -114.4535
      XYYY     -40.3401   YYYY    -337.6291   XXXZ      29.0289
      XXYZ       3.8177   XYYZ      11.6749   YYYZ      20.2754
      XXZZ     -75.4035   XYZZ      -2.7434   YYZZ     -72.8682
      XZZZ      29.5372   YZZZ      14.3825   ZZZZ    -108.4059
 -----------------------------------------------------------------
 Calculating analytic gradient of the SCF energy
 Gradient of SCF Energy
            1           2           3           4           5           6
    1  -0.0007152  -0.0047445   0.0035328  -0.0043007   0.0016385  -0.0004668
    2   0.0082866  -0.0116945  -0.0062976   0.0001580  -0.0021712   0.0029257
    3   0.0033474   0.0048368  -0.0162694  -0.0028415   0.0015608  -0.0007660
            7           8           9          10          11          12
    1  -0.0001259  -0.0005074   0.0016691   0.0000309   0.0002164   0.0039138
    2  -0.0001193  -0.0002491   0.0001492   0.0005319   0.0001519   0.0085196
    3  -0.0012521  -0.0007302  -0.0025516  -0.0008688   0.0003285   0.0160821
           13
    1  -0.0001409
    2  -0.0001910
    3  -0.0008758
 Max gradient component =       1.627E-02
 RMS gradient           =       5.028E-03
 Gradient time:  CPU 8.12 s  wall 5.01 s
 ----------------------------------------------------------------
             Standard Nuclear Orientation (Angstroms)
    I     Atom           X                Y                Z
 ----------------------------------------------------------------
    1      C       1.6622534924     0.3784334847    -0.1489026116
    2      C       1.1180000752    -0.8309408203    -0.2683035544
    3      C      -0.3411635120    -1.0521564498    -0.1169551904
    4      C      -1.1483542244     0.3230306948     0.0481284565
    5      C      -0.3388100813     1.5354944127    -0.1708718367
    6      N       0.9499606043     1.5874098793    -0.1719510397
    7      H       2.7405061206     0.5129675125    -0.1862812396
    8      H       1.7398751863    -1.7102902030    -0.4711259892
    9      H      -0.7812899946    -1.8854065340    -0.6999218085
   10      H      -2.1775712719     0.3866718971    -0.3326070996
   11      H      -0.8761510006     2.4555221034    -0.3915594870
   12      C      -0.9119318103    -0.6142287001     1.1340849820
   13      H      -1.6488818622    -1.0913707508     1.7780345403
 ----------------------------------------------------------------
 Nuclear Repulsion Energy =   270.2274752620 hartrees
 There are       25 alpha and       24 beta electrons

                       Distance Matrix (Angstroms)
             C (  1)   C (  2)   C (  3)   C (  4)   C (  5)   N (  6)
   C (  2)  1.331561
   C (  3)  2.461968  1.483577
   C (  4)  2.818050  2.562839  1.603106
   C (  5)  2.311607  2.780612  2.588214  1.474243
   N (  6)  1.403395  2.426096  2.938935  2.459678  1.289816
   H (  7)  1.087256  2.108398  3.457037  3.900546  3.244686  2.088225
   H (  8)  2.114857  1.095957  2.211176  3.570138  3.866032  3.404159
   H (  9)  3.376314  2.214835  1.108092  2.360405  3.489734  3.916176
   H ( 10)  3.844225  3.513902  2.342888  1.099226  2.174165  3.353959
   H ( 11)  3.288872  3.846124  3.558852  2.194297  1.088067  2.033846
   C ( 12)  3.042674  2.476748  1.443142  1.453841  2.579281  3.165373
   H ( 13)  4.103295  3.451226  2.302749  2.289898  3.523485  4.210973
             H (  7)   H (  8)   H (  9)   H ( 10)   H ( 11)   C ( 12)
   H (  8)  2.454643
   H (  9)  4.291745  2.537575
   H ( 10)  4.921874  4.445540  2.692000
   H ( 11)  4.110458  4.919748  4.352901  2.444854
   C ( 12)  4.044038  3.287877  2.235294  2.180557  3.428154
   H ( 13)  5.069434  4.114056  2.742896  2.630386  4.229031  1.088775

 
 Applying Cartesian multipole field
    Component          Value
    ---------          -----
     (2,0,0)        1.00000E-11
     (0,2,0)        2.00000E-11
     (0,0,2)       -3.00000E-11
 Nucleus-field energy     =     0.0000000052 hartrees
 Requested basis set is 6-31G(d)
 There are 40 shells and 117 basis functions
 A cutoff of  1.0D-14 yielded    805 shell pairs
 There are      7077 function pairs
 Smallest overlap matrix eigenvalue = 1.41E-03
 Guess MOs from core Hamiltonian diagonalization
 Mixing HOMO and LUMO in initial guess
 Adding  50% of the LUMO to the HOMO
 An unrestricted hybrid HF-DFT SCF calculation will be
 performed using Pulay DIIS extrapolation
 Exchange:     0.2000 Hartree-Fock + 0.0800 Slater + 0.7200 B88
 Correlation:  0.1900 VWN1RPA + 0.8100 LYP
 Using SG-1 standard quadrature grid
 SCF converges when DIIS error is below 1.0E-08
 using 4 threads for integral computing
 -------------------------------------------------------
 OpenMP Integral computing Module                
 Release: version 1.0, May 2013, Q-Chem Inc. Pittsburgh 
 -------------------------------------------------------
 -------------------------------------------------------
 OpenMP BLAS3 based DFT computing Module                
 Release: version 1.0, May 2013, Q-Chem Inc. Pittsburgh 
 -------------------------------------------------------
 ---------------------------------------
  Cycle       Energy         DIIS Error
 ---------------------------------------
    1    -238.5888039705      1.31E-01
    2    -232.0579673917      1.01E-01
    3    -249.5313491137      1.10E-01
    4    -281.4092850397      5.47E-02
    5    -282.9729764688      4.11E-02
    6    -286.3601427039      1.29E-02
    7    -286.3638434449      1.49E-02
    8    -286.8229828335      3.25E-03
    9    -286.8305131579      3.54E-03
   10    -286.8525756448      3.74E-04
   11    -286.8531760895      1.61E-04
   12    -286.8532659905      7.83E-05
   13    -286.8532910597      1.53E-05
   14    -286.8532941453      7.60E-06
   15    -286.8532951772      3.22E-06
   16    -286.8532957575      8.76E-07
   17    -286.8532960064      2.98E-07
   18    -286.8532961341      2.05E-07
   19    -286.8532961981      9.84E-08
   20    -286.8532962320      4.94E-08
   21    -286.8532962462      1.70E-08
   22    -286.8532962483      4.50E-09 Convergence criterion met
 ---------------------------------------
 <S^2> = 0.7532
 SCF time:  CPU 56.41 s  wall 38.63 s
 SCF   energy in the final basis set = -286.85329625
 Total energy in the final basis set = -286.85329625
 
 --------------------------------------------------------------
 
                    Orbital Energies (a.u.)
 --------------------------------------------------------------
 
 Alpha MOs
 -- Occupied --
-14.323 -10.229 -10.223 -10.219 -10.217 -10.204 -10.194  -0.936
 -0.872  -0.767  -0.665  -0.638  -0.570  -0.532  -0.490  -0.483
 -0.453  -0.425  -0.376  -0.369  -0.359  -0.299  -0.256  -0.234
 -0.216
 -- Virtual --
 -0.030   0.053   0.084   0.128   0.139   0.152   0.156   0.173
  0.184   0.228   0.242   0.287   0.300   0.327   0.404   0.435
  0.503   0.507   0.530   0.554   0.562   0.577   0.593   0.603
  0.616   0.631   0.651   0.672   0.674   0.715   0.756   0.801
  0.828   0.841   0.856   0.865   0.875   0.894   0.905   0.923
  0.942   1.012   1.080   1.097   1.120   1.176   1.207   1.331
  1.357   1.434   1.490   1.525   1.545   1.572   1.605   1.705
  1.727   1.778   1.824   1.829   1.895   1.916   1.937   2.024
  2.039   2.062   2.163   2.219   2.228   2.242   2.297   2.345
  2.443   2.477   2.511   2.533   2.550   2.591   2.641   2.681
  2.741   2.802   2.850   3.019   3.236   4.019   4.118   4.149
  4.276   4.322   4.394   4.612
 
 Beta MOs
 -- Occupied --
-14.322 -10.229 -10.224 -10.219 -10.205 -10.203 -10.193  -0.933
 -0.863  -0.765  -0.658  -0.636  -0.556  -0.527  -0.487  -0.473
 -0.449  -0.422  -0.375  -0.366  -0.351  -0.291  -0.251  -0.228
 -- Virtual --
 -0.071  -0.028   0.056   0.090   0.129   0.140   0.156   0.161
  0.178   0.186   0.233   0.244   0.292   0.314   0.329   0.408
  0.437   0.506   0.533   0.542   0.559   0.568   0.582   0.597
  0.608   0.622   0.641   0.654   0.674   0.678   0.722   0.768
  0.804   0.830   0.842   0.857   0.868   0.880   0.899   0.908
  0.924   0.945   1.026   1.082   1.104   1.123   1.182   1.210
  1.333   1.359   1.440   1.498   1.529   1.548   1.577   1.610
  1.710   1.734   1.796   1.827   1.835   1.921   1.927   1.948
  2.029   2.044   2.072   2.173   2.230   2.236   2.253   2.301
  2.356   2.447   2.482   2.520   2.539   2.553   2.602   2.644
  2.682   2.746   2.811   2.860   3.020   3.237   4.019   4.122
  4.151   4.305   4.323   4.399   4.614
 --------------------------------------------------------------
 
          Ground-State Mulliken Net Atomic Charges

     Atom                 Charge (a.u.)    Spin (a.u.)
  --------------------------------------------------------
      1 C                    -0.009767      -0.014066
      2 C                    -0.081851       0.046417
      3 C                    -0.170233      -0.023566
      4 C                    -0.194687      -0.020180
      5 C                     0.092272       0.016984
      6 N                    -0.395027       0.003889
      7 H                     0.135731       0.000683
      8 H                     0.139758       0.003960
      9 H                     0.152089       0.018630
     10 H                     0.153746       0.027755
     11 H                     0.144033       0.005869
     12 C                    -0.122315       0.956996
     13 H                     0.156252      -0.023371
  --------------------------------------------------------
  Sum of atomic charges =     0.000000
  Sum of spin   charges =     1.000000

 -----------------------------------------------------------------
                    Cartesian Multipole Moments
 -----------------------------------------------------------------
    Charge (ESU x 10^10)
                -0.0000
    Dipole Moment (Debye)
         X      -1.9324      Y      -2.0080      Z      -0.2835
       Tot       2.8011
    Quadrupole Moments (Debye-Ang)
        XX     -37.1373     XY      -3.1252     YY     -41.5652
        XZ      -0.3045     YZ       0.3120     ZZ     -42.1188
    Octopole Moments (Debye-Ang^2)
       XXX     -12.9444    XXY     -10.3051    XYY     -13.5549
       YYY     -27.7978    XXZ      -1.0899    XYZ       3.2401
       YYZ      -2.7485    XZZ      -7.9315    YZZ      -8.1973
       ZZZ      -2.9640
    Hexadecapole Moments (Debye-Ang^3)
      XXXX    -320.1179   XXXY     -19.0864   XXYY    -114.4059
      XYYY     -40.7953   YYYY    -335.7590   XXXZ      29.0465
      XXYZ       3.9463   XYYZ      11.7290   YYYZ      20.0794
      XXZZ     -75.0437   XYZZ      -2.7846   YYZZ     -72.2797
      XZZZ      29.3355   YZZZ      14.5663   ZZZZ    -106.2892
 -----------------------------------------------------------------
 Calculating analytic gradient of the SCF energy
 Gradient of SCF Energy
            1           2           3           4           5           6
    1  -0.0098765   0.0089863  -0.0087953   0.0086975  -0.0073920   0.0028380
    2  -0.0215000   0.0230716   0.0112452  -0.0085216   0.0032952   0.0011537
    3   0.0012475   0.0039842   0.0145057   0.0065626  -0.0016172  -0.0000484
            7           8           9          10          11          12
    1  -0.0001261   0.0026132  -0.0026797  -0.0040790   0.0013972   0.0110721
    2   0.0006804  -0.0048363  -0.0074678   0.0007375  -0.0022430   0.0058885
    3  -0.0004530  -0.0015695  -0.0073339  -0.0016768   0.0006749  -0.0162788
           13
    1  -0.0026555
    2  -0.0015035
    3   0.0020027
 Max gradient component =       2.307E-02
 RMS gradient           =       7.985E-03
 Gradient time:  CPU 8.12 s  wall 3.04 s
WARNING!!!!! energy has increased from optimization step!
 ----------------------------------------------------------------
             Standard Nuclear Orientation (Angstroms)
    I     Atom           X                Y                Z
 ----------------------------------------------------------------
    1      C       1.6789725510     0.4150446324    -0.1507849053
    2      C       1.1026181903    -0.8702941711    -0.2750334309
    3      C      -0.3262841485    -1.0713030650    -0.1420243770
    4      C      -1.1631603822     0.3375015578     0.0369113820
    5      C      -0.3262849358     1.5298790775    -0.1682389039
    6      N       0.9450574335     1.5854611065    -0.1718903406
    7      H       2.7406313755     0.5117811965    -0.1850957340
    8      H       1.7354001620    -1.7021003952    -0.4683136437
    9      H      -0.7768151028    -1.8726030391    -0.6879186599
   10      H      -2.1707053958     0.3853744417    -0.3295673665
   11      H      -0.8785925981     2.4593097748    -0.3929403428
   12      C      -0.9304839244    -0.6241968251     1.1618194809
   13      H      -1.6439114832    -1.0887179080     1.7748447241
 ----------------------------------------------------------------
 Nuclear Repulsion Energy =   268.5888285163 hartrees
 There are       25 alpha and       24 beta electrons

                       Distance Matrix (Angstroms)
             C (  1)   C (  2)   C (  3)   C (  4)   C (  5)   N (  6)
   C (  2)  1.414114
   C (  3)  2.496069  1.449089
   C (  4)  2.849379  2.586471  1.648366
   C (  5)  2.294388  2.795353  2.601314  1.471126
   N (  6)  1.381648  2.462965  2.945437  2.458777  1.272562
   H (  7)  1.066609  2.145066  3.451664  3.913981  3.231530  2.092140
   H (  8)  2.141568  1.062860  2.180576  3.580067  3.845293  3.394196
   H (  9)  3.398932  2.169647  1.069140  2.357796  3.471301  3.897350
   H ( 10)  3.853941  3.506326  2.357747  1.073194  2.176650  3.342611
   H ( 11)  3.283108  3.876256  3.582350  2.183534  1.104254  2.034250
   C ( 12)  3.100357  2.501722  1.504982  1.498139  2.602721  3.190459
   H ( 13)  4.124428  3.434113  2.326120  2.299051  3.516925  4.200449
             H (  7)   H (  8)   H (  9)   H ( 10)   H ( 11)   C ( 12)
   H (  8)  2.447851
   H (  9)  4.279083  2.527553
   H ( 10)  4.915087  4.431079  2.677650
   H ( 11)  4.115197  4.914873  4.343137  2.444336
   C ( 12)  4.072065  3.305472  2.236887  2.186691  3.453691
   H ( 13)  5.062330  4.102163  2.726084  2.622787  4.227707  1.049075

 
 Applying Cartesian multipole field
    Component          Value
    ---------          -----
     (2,0,0)        1.00000E-11
     (0,2,0)        2.00000E-11
     (0,0,2)       -3.00000E-11
 Nucleus-field energy     =     0.0000000052 hartrees
 Requested basis set is 6-31G(d)
 There are 40 shells and 117 basis functions
 A cutoff of  1.0D-14 yielded    805 shell pairs
 There are      7077 function pairs
 Smallest overlap matrix eigenvalue = 1.51E-03
 Guess MOs from core Hamiltonian diagonalization
 Mixing HOMO and LUMO in initial guess
 Adding  50% of the LUMO to the HOMO
 An unrestricted hybrid HF-DFT SCF calculation will be
 performed using Pulay DIIS extrapolation
 Exchange:     0.2000 Hartree-Fock + 0.0800 Slater + 0.7200 B88
 Correlation:  0.1900 VWN1RPA + 0.8100 LYP
 Using SG-1 standard quadrature grid
 SCF converges when DIIS error is below 1.0E-08
 using 4 threads for integral computing
 -------------------------------------------------------
 OpenMP Integral computing Module                
 Release: version 1.0, May 2013, Q-Chem Inc. Pittsburgh 
 -------------------------------------------------------
 -------------------------------------------------------
 OpenMP BLAS3 based DFT computing Module                
 Release: version 1.0, May 2013, Q-Chem Inc. Pittsburgh 
 -------------------------------------------------------
 ---------------------------------------
  Cycle       Energy         DIIS Error
 ---------------------------------------
    1    -237.5701332329      1.29E-01
    2    -232.2232081595      1.01E-01
    3    -250.0154548981      1.07E-01
    4    -280.9112887454      5.73E-02
    5    -282.5212245000      4.31E-02
    6    -286.1921602327      1.46E-02
    7    -286.1958673879      1.72E-02
    8    -286.7981318114      4.12E-03
    9    -286.8161819991      4.01E-03
   10    -286.8456206150      6.09E-04
   11    -286.8465521237      2.85E-04
   12    -286.8468199853      7.46E-05
   13    -286.8468657970      2.03E-05
   14    -286.8468720431      9.10E-06
   15    -286.8468739937      4.85E-06
   16    -286.8468751589      2.03E-06
   17    -286.8468757860      5.63E-07
   18    -286.8468760579      3.54E-07
   19    -286.8468762615      1.69E-07
   20    -286.8468763870      9.55E-08
   21    -286.8468764465      3.17E-08
   22    -286.8468764536      8.91E-09 Convergence criterion met
 ---------------------------------------
 <S^2> = 0.7536
 SCF time:  CPU 56.37 s  wall 38.03 s
 SCF   energy in the final basis set = -286.84687645
 Total energy in the final basis set = -286.84687645
 
 --------------------------------------------------------------
 
                    Orbital Energies (a.u.)
 --------------------------------------------------------------
 
 Alpha MOs
 -- Occupied --
-14.321 -10.228 -10.223 -10.221 -10.220 -10.210 -10.197  -0.936
 -0.859  -0.760  -0.666  -0.643  -0.577  -0.532  -0.493  -0.484
 -0.447  -0.429  -0.383  -0.374  -0.352  -0.299  -0.254  -0.228
 -0.215
 -- Virtual --
 -0.034   0.044   0.094   0.134   0.138   0.153   0.157   0.170
  0.187   0.220   0.247   0.283   0.288   0.328   0.382   0.437
  0.506   0.517   0.534   0.541   0.548   0.584   0.591   0.603
  0.617   0.620   0.644   0.667   0.668   0.705   0.760   0.811
  0.833   0.854   0.869   0.878   0.890   0.902   0.908   0.936
  0.950   1.004   1.077   1.088   1.102   1.170   1.199   1.326
  1.352   1.436   1.484   1.519   1.535   1.566   1.607   1.706
  1.731   1.785   1.815   1.826   1.882   1.904   1.951   2.017
  2.028   2.059   2.117   2.200   2.210   2.240   2.269   2.338
  2.439   2.477   2.504   2.520   2.543   2.557   2.628   2.682
  2.722   2.780   2.824   3.018   3.233   4.044   4.107   4.132
  4.273   4.326   4.398   4.594
 
 Beta MOs
 -- Occupied --
-14.321 -10.227 -10.223 -10.221 -10.210 -10.205 -10.196  -0.935
 -0.849  -0.758  -0.657  -0.641  -0.562  -0.527  -0.491  -0.477
 -0.443  -0.426  -0.380  -0.373  -0.344  -0.291  -0.247  -0.216
 -- Virtual --
 -0.070  -0.031   0.047   0.099   0.135   0.139   0.155   0.164
  0.177   0.188   0.224   0.248   0.292   0.299   0.330   0.385
  0.439   0.519   0.536   0.542   0.545   0.557   0.591   0.596
  0.607   0.622   0.632   0.645   0.670   0.670   0.712   0.772
  0.814   0.834   0.856   0.871   0.879   0.892   0.906   0.914
  0.937   0.953   1.017   1.081   1.093   1.107   1.174   1.202
  1.328   1.353   1.442   1.492   1.522   1.538   1.568   1.614
  1.710   1.736   1.803   1.823   1.831   1.909   1.923   1.957
  2.022   2.032   2.070   2.133   2.209   2.220   2.246   2.274
  2.344   2.443   2.481   2.516   2.526   2.545   2.567   2.632
  2.683   2.727   2.788   2.834   3.018   3.234   4.045   4.112
  4.133   4.297   4.330   4.402   4.595
 --------------------------------------------------------------
 
          Ground-State Mulliken Net Atomic Charges

     Atom                 Charge (a.u.)    Spin (a.u.)
  --------------------------------------------------------
      1 C                    -0.011523      -0.022627
      2 C                    -0.095188       0.049631
      3 C                    -0.177607      -0.021081
      4 C                    -0.199351      -0.022634
      5 C                     0.093223       0.009704
      6 N                    -0.382695       0.004640
      7 H                     0.138937       0.000963
      8 H                     0.141677       0.002190
      9 H                     0.156771       0.012001
     10 H                     0.158123       0.022072
     11 H                     0.137594       0.005307
     12 C                    -0.121625       0.982151
     13 H                     0.161664      -0.022317
  --------------------------------------------------------
  Sum of atomic charges =     0.000000
  Sum of spin   charges =     1.000000

 -----------------------------------------------------------------
                    Cartesian Multipole Moments
 -----------------------------------------------------------------
    Charge (ESU x 10^10)
                 0.0000
    Dipole Moment (Debye)
         X      -1.9169      Y      -2.0589      Z      -0.2746
       Tot       2.8265
    Quadrupole Moments (Debye-Ang)
        XX     -36.8011     XY      -2.8973     YY     -41.6551
        XZ      -0.3599     YZ       0.3385     ZZ     -42.1691
    Octopole Moments (Debye-Ang^2)
       XXX     -12.6575    XXY     -10.3364    XYY     -13.0912
       YYY     -28.0643    XXZ      -1.0681    XYZ       3.2506
       YYZ      -2.6312    XZZ      -8.0990    YZZ      -8.2082
       ZZZ      -2.5816
    Hexadecapole Moments (Debye-Ang^3)
      XXXX    -317.9710   XXXY     -19.2166   XXYY    -114.6910
      XYYY     -40.0193   YYYY    -340.2653   XXXZ      29.4015
      XXYZ       3.8262   XYYZ      11.7319   YYYZ      20.3889
      XXZZ     -75.4846   XYZZ      -2.6341   YYZZ     -73.1771
      XZZZ      29.6383   YZZZ      14.3109   ZZZZ    -107.9135
 -----------------------------------------------------------------
 Calculating analytic gradient of the SCF energy
 Gradient of SCF Energy
            1           2           3           4           5           6
    1   0.0341770  -0.0206803   0.0127392  -0.0202288   0.0273553  -0.0215190
    2   0.0533773  -0.0638785  -0.0170942   0.0176726  -0.0071278  -0.0039161
    3   0.0042399  -0.0048091  -0.0288323  -0.0203779   0.0021830   0.0002934
            7           8           9          10          11          12
    1  -0.0137595  -0.0093565   0.0072453   0.0108258  -0.0042694  -0.0209710
    2  -0.0039872   0.0139972   0.0120029  -0.0019461   0.0049514  -0.0164023
    3  -0.0003195   0.0044468   0.0060476   0.0050826  -0.0003962   0.0465235
           13
    1   0.0184420
    2   0.0123509
    3  -0.0140817
 Max gradient component =       6.388E-02
 RMS gradient           =       2.073E-02
 Gradient time:  CPU 7.92 s  wall 2.78 s
WARNING!!!!! energy has increased from optimization step!
 ----------------------------------------------------------------
             Standard Nuclear Orientation (Angstroms)
    I     Atom           X                Y                Z
 ----------------------------------------------------------------
    1      C       1.6541331967     0.3961232855    -0.1530841219
    2      C       1.1070719137    -0.8459770520    -0.2698247269
    3      C      -0.3238795760    -1.0757542824    -0.1502007605
    4      C      -1.1581124801     0.3302570669     0.0468311978
    5      C      -0.3443351569     1.5305625574    -0.1667573398
    6      N       0.9643300209     1.5915326895    -0.1730840611
    7      H       2.7558851966     0.5150323468    -0.1848028022
    8      H       1.7414049357    -1.7111012293    -0.4716091883
    9      H      -0.7792973812    -1.8748251560    -0.6878155451
   10      H      -2.1769879223     0.3870324145    -0.3334318005
   11      H      -0.8757000261     2.4571606793    -0.3935157018
   12      C      -0.9180888351    -0.6045422177     1.1519614630
   13      H      -1.6599821279    -1.1003648392     1.7871010656
 ----------------------------------------------------------------
 Nuclear Repulsion Energy =   268.8848508147 hartrees
 There are       25 alpha and       24 beta electrons

                       Distance Matrix (Angstroms)
             C (  1)   C (  2)   C (  3)   C (  4)   C (  5)   N (  6)
   C (  2)  1.362247
   C (  3)  2.465556  1.454211
   C (  4)  2.820112  2.571937  1.646704
   C (  5)  2.298046  2.786601  2.606450  1.465806
   N (  6)  1.380301  2.443601  2.962166  2.478697  1.310100
   H (  7)  1.108604  2.139664  3.466518  3.925197  3.262360  2.090134
   H (  8)  2.132949  1.091575  2.184575  3.583731  3.866734  3.405929
   H (  9)  3.371161  2.188980  1.065340  2.354909  3.472371  3.914182
   H ( 10)  3.835374  3.508476  2.367980  1.089004  2.166577  3.368146
   H ( 11)  3.271963  3.854530  3.584020  2.190292  1.091949  2.045388
   C ( 12)  3.052999  2.486170  1.506901  1.467233  2.574274  3.181508
   H ( 13)  4.121548  3.457202  2.353490  2.308049  3.531327  4.239770
             H (  7)   H (  8)   H (  9)   H ( 10)   H ( 11)   C ( 12)
   H (  8)  2.463148
   H (  9)  4.296738  2.535250
   H ( 10)  4.936771  4.446916  2.682373
   H ( 11)  4.123571  4.922372  4.343041  2.445893
   C ( 12)  4.066752  3.306563  2.240014  2.185049  3.429916
   H ( 13)  5.098804  4.128463  2.738724  2.641270  4.245724  1.095284

 
 Applying Cartesian multipole field
    Component          Value
    ---------          -----
     (2,0,0)        1.00000E-11
     (0,2,0)        2.00000E-11
     (0,0,2)       -3.00000E-11
 Nucleus-field energy     =     0.0000000052 hartrees
 Requested basis set is 6-31G(d)
 There are 40 shells and 117 basis functions
 A cutoff of  1.0D-14 yielded    805 shell pairs
 There are      7077 function pairs
 Smallest overlap matrix eigenvalue = 1.47E-03
 Guess MOs from core Hamiltonian diagonalization
 Mixing HOMO and LUMO in initial guess
 Adding  50% of the LUMO to the HOMO
 An unrestricted hybrid HF-DFT SCF calculation will be
 performed using Pulay DIIS extrapolation
 Exchange:     0.2000 Hartree-Fock + 0.0800 Slater + 0.7200 B88
 Correlation:  0.1900 VWN1RPA + 0.8100 LYP
 Using SG-1 standard quadrature grid
 SCF converges when DIIS error is below 1.0E-08
 using 4 threads for integral computing
 -------------------------------------------------------
 OpenMP Integral computing Module                
 Release: version 1.0, May 2013, Q-Chem Inc. Pittsburgh 
 -------------------------------------------------------
 -------------------------------------------------------
 OpenMP BLAS3 based DFT computing Module                
 Release: version 1.0, May 2013, Q-Chem Inc. Pittsburgh 
 -------------------------------------------------------
 ---------------------------------------
  Cycle       Energy         DIIS Error
 ---------------------------------------
    1    -238.8727445865      1.30E-01
    2    -232.2602659120      1.01E-01
    3    -249.6818552479      1.10E-01
    4    -281.2569606867      5.47E-02
    5    -282.6299402992      4.25E-02
    6    -286.0540716781      1.61E-02
    7    -285.9472618963      1.99E-02
    8    -286.8244517727      3.39E-03
    9    -286.8171635067      4.39E-03
   10    -286.8506797116      5.30E-04
   11    -286.8512466479      2.50E-04
   12    -286.8514237765      7.34E-05
   13    -286.8514581477      2.66E-05
   14    -286.8514634924      1.14E-05
   15    -286.8514649515      5.50E-06
   16    -286.8514656326      2.25E-06
   17    -286.8514660990      3.62E-07
   18    -286.8514662042      1.35E-07
   19    -286.8514662851      9.80E-08
   20    -286.8514663270      7.13E-08
   21    -286.8514663534      3.02E-08
   22    -286.8514663590      6.60E-09 Convergence criterion met
 ---------------------------------------
 <S^2> = 0.7533
 SCF time:  CPU 56.55 s  wall 45.29 s
 SCF   energy in the final basis set = -286.85146636
 Total energy in the final basis set = -286.85146636
 
 --------------------------------------------------------------
 
                    Orbital Energies (a.u.)
 --------------------------------------------------------------
 
 Alpha MOs
 -- Occupied --
-14.324 -10.230 -10.224 -10.223 -10.223 -10.207 -10.195  -0.932
 -0.862  -0.764  -0.667  -0.641  -0.572  -0.533  -0.487  -0.480
 -0.451  -0.429  -0.375  -0.370  -0.356  -0.298  -0.258  -0.230
 -0.218
 -- Virtual --
 -0.035   0.047   0.087   0.128   0.134   0.149   0.153   0.170
  0.181   0.221   0.244   0.286   0.291   0.326   0.397   0.442
  0.505   0.510   0.531   0.548   0.550   0.582   0.591   0.603
  0.615   0.623   0.649   0.662   0.671   0.706   0.759   0.807
  0.828   0.847   0.860   0.864   0.875   0.894   0.901   0.926
  0.942   1.005   1.074   1.092   1.111   1.171   1.201   1.327
  1.352   1.440   1.485   1.515   1.539   1.565   1.600   1.706
  1.736   1.784   1.817   1.822   1.879   1.905   1.936   2.008
  2.042   2.064   2.132   2.196   2.212   2.246   2.278   2.337
  2.441   2.475   2.493   2.523   2.545   2.567   2.624   2.669
  2.729   2.783   2.833   3.016   3.221   4.022   4.111   4.142
  4.269   4.324   4.394   4.597
 
 Beta MOs
 -- Occupied --
-14.324 -10.230 -10.224 -10.223 -10.208 -10.207 -10.194  -0.930
 -0.852  -0.762  -0.658  -0.639  -0.557  -0.528  -0.485  -0.471
 -0.448  -0.426  -0.374  -0.367  -0.348  -0.290  -0.253  -0.220
 -- Virtual --
 -0.072  -0.033   0.050   0.093   0.130   0.136   0.153   0.159
  0.176   0.183   0.226   0.246   0.295   0.302   0.328   0.400
  0.444   0.511   0.533   0.543   0.552   0.557   0.590   0.594
  0.607   0.620   0.633   0.652   0.666   0.672   0.712   0.772
  0.810   0.829   0.849   0.861   0.867   0.880   0.898   0.904
  0.927   0.946   1.019   1.076   1.099   1.114   1.176   1.204
  1.329   1.354   1.447   1.492   1.518   1.542   1.567   1.607
  1.710   1.741   1.803   1.823   1.825   1.909   1.921   1.943
  2.012   2.048   2.075   2.143   2.204   2.223   2.252   2.282
  2.345   2.445   2.480   2.506   2.527   2.549   2.576   2.628
  2.671   2.734   2.791   2.843   3.016   3.222   4.022   4.117
  4.144   4.294   4.327   4.399   4.598
 --------------------------------------------------------------
 
          Ground-State Mulliken Net Atomic Charges

     Atom                 Charge (a.u.)    Spin (a.u.)
  --------------------------------------------------------
      1 C                    -0.008666      -0.017035
      2 C                    -0.082944       0.042904
      3 C                    -0.176413      -0.017471
      4 C                    -0.193999      -0.022925
      5 C                     0.084169       0.012996
      6 N                    -0.391542       0.003524
      7 H                     0.131633       0.000718
      8 H                     0.140684       0.003071
      9 H                     0.159296       0.010906
     10 H                     0.157592       0.026376
     11 H                     0.144236       0.004984
     12 C                    -0.122464       0.971979
     13 H                     0.158418      -0.020029
  --------------------------------------------------------
  Sum of atomic charges =     0.000000
  Sum of spin   charges =     1.000000

 -----------------------------------------------------------------
                    Cartesian Multipole Moments
 -----------------------------------------------------------------
    Charge (ESU x 10^10)
                 0.0000
    Dipole Moment (Debye)
         X      -2.0886      Y      -2.0802      Z      -0.2907
       Tot       2.9621
    Quadrupole Moments (Debye-Ang)
        XX     -37.2026     XY      -3.0813     YY     -41.6029
        XZ      -0.2878     YZ       0.3593     ZZ     -42.2332
    Octopole Moments (Debye-Ang^2)
       XXX     -13.8329    XXY     -10.6183    XYY     -13.7136
       YYY     -28.2410    XXZ      -1.0205    XYZ       3.2663
       YYZ      -2.8050    XZZ      -8.1393    YZZ      -8.3337
       ZZZ      -2.7233
    Hexadecapole Moments (Debye-Ang^3)
      XXXX    -322.0189   XXXY     -19.5914   XXYY    -114.9109
      XYYY     -40.8642   YYYY    -337.8933   XXXZ      29.8412
      XXYZ       3.7208   XYYZ      11.9197   YYYZ      19.9927
      XXZZ     -75.5954   XYZZ      -2.7032   YYZZ     -73.0502
      XZZZ      29.8559   YZZZ      14.1192   ZZZZ    -108.2136
 -----------------------------------------------------------------
 Calculating analytic gradient of the SCF energy
 Gradient of SCF Energy
            1           2           3           4           5           6
    1  -0.0207396  -0.0099053   0.0080032  -0.0040957  -0.0211903   0.0276695
    2   0.0100880  -0.0053774  -0.0242238   0.0045333  -0.0060797  -0.0009096
    3   0.0014909   0.0055084  -0.0334457  -0.0038793   0.0021913  -0.0005832
            7           8           9          10          11          12
    1   0.0129875   0.0004688   0.0070647   0.0018919   0.0000378   0.0026483
    2   0.0023097  -0.0032474   0.0135877  -0.0002907   0.0005448   0.0125993
    3  -0.0009389  -0.0000381   0.0075350   0.0001889   0.0006132   0.0163679
           13
    1  -0.0048407
    2  -0.0035342
    3   0.0049895
 Max gradient component =       3.345E-02
 RMS gradient           =       1.103E-02
 Gradient time:  CPU 7.72 s  wall 2.93 s
 FSM gradient convergence criteria satisfied
done with opt_step_by_gradient, Reactant, iter1
-Optimizing new product side node
 Using BFGS, step: 2 E_tol 0.0165829
 max_steps 6, node_spacing 0.1590854, sigma 0.7000000
 ----------------------------------------------------------------
             Standard Nuclear Orientation (Angstroms)
    I     Atom           X                Y                Z
 ----------------------------------------------------------------
    1      C       1.2097476551     0.3180308846     0.3960256547
    2      C       0.6932492689    -1.0796168127    -0.1368784381
    3      C      -0.5618773962    -0.9375787451    -0.8577527091
    4      C      -1.0923594545     0.1669322002     0.0575825563
    5      C      -0.4599783605     1.4557679728    -0.4417344101
    6      N       0.8129745397     1.5166242922    -0.2930763867
    7      H       2.2078190636     0.2996772310     0.8220110905
    8      H       1.3876341560    -1.9135476192    -0.1516472845
    9      H      -0.8255538941    -1.1846404595    -1.8831118633
   10      H      -2.1574142105     0.1832141713     0.2986977714
   11      H      -1.0040186408     2.2201579246    -0.9943736119
   12      C      -0.0310366851    -0.3593641795     1.0769179191
   13      H      -0.1860949327    -0.6876123759     2.0998357887
 ----------------------------------------------------------------
 Nuclear Repulsion Energy =   280.8198788792 hartrees
 There are       25 alpha and       24 beta electrons

                       Distance Matrix (Angstroms)
             C (  1)   C (  2)   C (  3)   C (  4)   C (  5)   N (  6)
   C (  2)  1.582459
   C (  3)  2.507423  1.454365
   C (  4)  2.331753  2.186344  1.529442
   C (  5)  2.187298  2.801972  2.431371  1.519974
   N (  6)  1.438373  2.603690  2.869179  2.361129  1.283048
   H (  7)  1.085333  2.261823  3.467510  3.390155  3.170290  2.161012
   H (  8)  2.304676  1.085278  2.291658  3.243847  3.853584  3.480850
   H (  9)  3.405135  2.316705  1.087164  2.379964  3.030342  3.536922
   H ( 10)  3.371265  3.148135  2.267001  1.092128  2.246981  3.309288
   H ( 11)  3.232964  3.808481  3.191466  2.308712  1.088890  2.070807
   C ( 12)  1.569084  1.586397  2.087840  1.562830  2.405203  2.471553
   H ( 13)  2.421294  2.435119  2.991826  2.392145  3.335966  3.403355
             H (  7)   H (  8)   H (  9)   H ( 10)   H ( 11)   C ( 12)
   H (  8)  2.553249
   H (  9)  4.326920  2.903012
   H ( 10)  4.398032  4.143258  2.899167
   H ( 11)  4.159736  4.849506  3.523401  2.674228
   C ( 12)  2.347720  2.436696  3.173975  2.328411  3.448315
   H ( 13)  2.887629  3.008108  4.064458  2.808654  4.324148  1.085427

 
 Applying Cartesian multipole field
    Component          Value
    ---------          -----
     (2,0,0)        1.00000E-11
     (0,2,0)        2.00000E-11
     (0,0,2)       -3.00000E-11
 Nucleus-field energy     =     0.0000000027 hartrees
 Requested basis set is 6-31G(d)
 There are 40 shells and 117 basis functions
 A cutoff of  1.0D-14 yielded    812 shell pairs
 There are      7084 function pairs
 Smallest overlap matrix eigenvalue = 1.80E-03
 Guess MOs from core Hamiltonian diagonalization
 Mixing HOMO and LUMO in initial guess
 Adding  50% of the LUMO to the HOMO
 An unrestricted hybrid HF-DFT SCF calculation will be
 performed using Pulay DIIS extrapolation
 Exchange:     0.2000 Hartree-Fock + 0.0800 Slater + 0.7200 B88
 Correlation:  0.1900 VWN1RPA + 0.8100 LYP
 Using SG-1 standard quadrature grid
 SCF converges when DIIS error is below 1.0E-08
 using 4 threads for integral computing
 -------------------------------------------------------
 OpenMP Integral computing Module                
 Release: version 1.0, May 2013, Q-Chem Inc. Pittsburgh 
 -------------------------------------------------------
 -------------------------------------------------------
 OpenMP BLAS3 based DFT computing Module                
 Release: version 1.0, May 2013, Q-Chem Inc. Pittsburgh 
 -------------------------------------------------------
 ---------------------------------------
  Cycle       Energy         DIIS Error
 ---------------------------------------
    1    -237.1915651539      1.33E-01
    2    -227.7632807942      1.08E-01
    3    -255.9591303115      1.02E-01
    4    -278.1132326166      6.58E-02
    5    -282.0788804342      4.63E-02
    6    -286.2829847248      1.62E-02
    7    -286.4088688910      1.40E-02
    8    -286.8065642212      3.43E-03
    9    -286.8106822512      3.71E-03
   10    -286.8330810314      4.52E-04
   11    -286.8336224948      1.84E-04
   12    -286.8337645159      9.20E-05
   13    -286.8338157727      1.69E-05
   14    -286.8338176766      4.72E-06
   15    -286.8338177881      2.24E-06
   16    -286.8338178256      6.64E-07
   17    -286.8338178390      2.17E-07
   18    -286.8338178419      1.04E-07
   19    -286.8338178423      3.16E-08
   20    -286.8338178425      1.73E-08
   21    -286.8338178427      7.31E-09 Convergence criterion met
 ---------------------------------------
 <S^2> = 0.7565
 SCF time:  CPU 54.86 s  wall 46.49 s
 SCF   energy in the final basis set = -286.83381784
 Total energy in the final basis set = -286.83381784
 
 --------------------------------------------------------------
 
                    Orbital Energies (a.u.)
 --------------------------------------------------------------
 
 Alpha MOs
 -- Occupied --
-14.321 -10.228 -10.220 -10.215 -10.211 -10.209 -10.205  -0.962
 -0.853  -0.744  -0.663  -0.606  -0.577  -0.533  -0.512  -0.466
 -0.436  -0.405  -0.401  -0.359  -0.340  -0.289  -0.275  -0.255
 -0.179
 -- Virtual --
  0.001   0.099   0.105   0.130   0.146   0.151   0.152   0.163
  0.176   0.195   0.213   0.260   0.277   0.297   0.343   0.391
  0.496   0.509   0.520   0.538   0.557   0.576   0.585   0.601
  0.604   0.655   0.673   0.675   0.717   0.738   0.772   0.776
  0.806   0.813   0.828   0.841   0.855   0.876   0.890   0.940
  0.953   0.973   1.052   1.091   1.191   1.216   1.340   1.385
  1.441   1.469   1.500   1.515   1.578   1.628   1.645   1.724
  1.738   1.822   1.853   1.874   1.923   1.943   1.960   2.031
  2.070   2.153   2.202   2.211   2.237   2.257   2.341   2.367
  2.449   2.478   2.502   2.531   2.589   2.621   2.645   2.660
  2.688   2.786   2.835   2.918   2.960   3.959   4.194   4.236
  4.336   4.437   4.491   4.617
 
 Beta MOs
 -- Occupied --
-14.320 -10.227 -10.220 -10.213 -10.212 -10.210 -10.192  -0.958
 -0.846  -0.738  -0.650  -0.601  -0.572  -0.526  -0.506  -0.459
 -0.432  -0.402  -0.395  -0.352  -0.335  -0.281  -0.264  -0.249
 -- Virtual --
 -0.057   0.015   0.102   0.109   0.134   0.149   0.154   0.158
  0.166   0.181   0.197   0.221   0.263   0.282   0.299   0.355
  0.394   0.500   0.513   0.527   0.547   0.561   0.582   0.590
  0.607   0.621   0.666   0.677   0.681   0.727   0.742   0.776
  0.787   0.808   0.815   0.829   0.844   0.859   0.883   0.894
  0.943   0.956   0.977   1.057   1.104   1.193   1.221   1.348
  1.387   1.444   1.474   1.509   1.521   1.586   1.635   1.650
  1.729   1.745   1.832   1.859   1.885   1.929   1.956   1.968
  2.038   2.079   2.160   2.209   2.223   2.259   2.262   2.344
  2.379   2.458   2.484   2.509   2.536   2.592   2.625   2.652
  2.664   2.697   2.791   2.840   2.920   2.961   3.961   4.206
[...]
  --------------------------------------------------------
      1 C                     0.012920       0.326590
      2 C                    -0.160377       0.002123
      3 C                    -0.086600       0.636445
      4 C                    -0.267382      -0.021983
      5 C                     0.106639       0.263372
      6 N                    -0.352746      -0.050342
      7 H                     0.144340      -0.006268
      8 H                     0.154210      -0.003061
      9 H                     0.150134      -0.020313
     10 H                     0.144714      -0.000028
     11 H                     0.136638      -0.013440
     12 C                    -0.134377      -0.142018
     13 H                     0.151887       0.028923
  --------------------------------------------------------
  Sum of atomic charges =    -0.000000
  Sum of spin   charges =     1.000000

 -----------------------------------------------------------------
                    Cartesian Multipole Moments
 -----------------------------------------------------------------
    Charge (ESU x 10^10)
                 0.0000
    Dipole Moment (Debye)
         X      -1.2421      Y      -2.4521      Z       0.6234
       Tot       2.8186
    Quadrupole Moments (Debye-Ang)
        XX     -37.4779     XY      -3.9857     YY     -42.1890
        XZ       0.1338     YZ      -0.3238     ZZ     -42.6303
    Octopole Moments (Debye-Ang^2)
       XXX      -9.7074    XXY     -10.9909    XYY     -12.2955
       YYY     -28.3752    XXZ       3.0006    XYZ       2.3075
       YYZ      -0.6082    XZZ      -5.7444    YZZ      -8.5734
       ZZZ       8.6299
    Hexadecapole Moments (Debye-Ang^3)
      XXXX    -235.9511   XXXY     -16.4717   XXYY     -98.9007
      XYYY     -30.1150   YYYY    -328.5360   XXXZ      -4.8712
      XXYZ       4.3420   XYYZ       0.9532   YYYZ       8.6490
      XXZZ     -65.3395   XYZZ      -1.9016   YYZZ     -74.6373
      XZZZ     -13.4740   YZZZ       3.1470   ZZZZ    -134.0112
 -----------------------------------------------------------------
 Calculating analytic gradient of the SCF energy
 Gradient of SCF Energy
            1           2           3           4           5           6
    1  -0.0042958   0.0181967  -0.0042903   0.0109209   0.0122588  -0.0135133
    2  -0.0092608  -0.0119180  -0.0058490  -0.0148300   0.0038792  -0.0012036
    3   0.0112953  -0.0228107   0.0009791   0.0083795   0.0053645  -0.0053906
            7           8           9          10          11          12
    1   0.0041952   0.0096928   0.0021848  -0.0121479   0.0038626  -0.0034433
    2   0.0012257   0.0071421  -0.0034434   0.0045701  -0.0000409   0.0355962
    3  -0.0109787  -0.0076757  -0.0059333  -0.0083775   0.0049119   0.0117407
           13
    1  -0.0236213
    2  -0.0058675
    3   0.0184955
 Max gradient component =       3.560E-02
 RMS gradient           =       1.146E-02
 Gradient time:  CPU 8.41 s  wall 7.42 s
 ----------------------------------------------------------------
             Standard Nuclear Orientation (Angstroms)
    I     Atom           X                Y                Z
 ----------------------------------------------------------------
    1      C       1.3706765794     0.3773412010     0.2352637893
    2      C       0.8111050707    -0.9518035510    -0.1771415854
    3      C      -0.4916973958    -0.9195056001    -0.8536377070
    4      C      -1.0724076999     0.2674122752    -0.0376380447
    5      C      -0.4017791718     1.5617356703    -0.3591420882
    6      N       0.8767055900     1.5819426864    -0.1963056818
    7      H       2.4164592555     0.3741186911     0.5394989337
    8      H       1.5550259107    -1.7429563995    -0.2625894172
    9      H      -1.0200195824    -1.8495599344    -1.0621924648
   10      H      -2.1791595647     0.3303398783    -0.0013489106
   11      H      -0.9186457522     2.4593242754    -0.6744301756
   12      C      -0.2294718431    -0.4822011545     1.0068273114
   13      H      -0.7776371977    -1.0464574751     1.8334991005
 ----------------------------------------------------------------
 Nuclear Repulsion Energy =   277.6521966626 hartrees
 There are       25 alpha and       24 beta electrons

                       Distance Matrix (Angstroms)
             C (  1)   C (  2)   C (  3)   C (  4)   C (  5)   N (  6)
   C (  2)  1.499941
   C (  3)  2.517132  1.468327
   C (  4)  2.460736  2.248014  1.553014
   C (  5)  2.213077  2.796800  2.531634  1.492776
   N (  6)  1.371614  2.534668  2.926065  2.356312  1.288971
   H (  7)  1.089142  2.202000  3.474431  3.537890  3.187547  2.090715
   H (  8)  2.185750  1.089331  2.283963  3.315960  3.841796  3.394034
   H (  9)  3.515382  2.223128  1.089780  2.352451  3.537434  4.015288
   H ( 10)  3.558024  3.258294  2.266283  1.109133  2.191673  3.307995
   H ( 11)  3.225398  3.856829  3.410409  2.287712  1.082692  2.054675
   C ( 12)  1.973474  1.644722  1.929074  1.537325  2.464394  2.632840
   H ( 13)  3.032624  2.564320  2.705288  2.305276  3.428063  3.710181
             H (  7)   H (  8)   H (  9)   H ( 10)   H ( 11)   C ( 12)
   H (  8)  2.422276
   H (  9)  4.395401  2.698442
   H ( 10)  4.627542  4.279129  2.687184
   H ( 11)  4.116386  4.893652  4.327484  2.564080
   C ( 12)  2.820041  2.526926  2.602975  2.340497  3.457479
   H ( 13)  3.727563  3.212478  3.014756  2.688216  4.312783  1.141165

 
 Applying Cartesian multipole field
    Component          Value
    ---------          -----
     (2,0,0)        1.00000E-11
     (0,2,0)        2.00000E-11
     (0,0,2)       -3.00000E-11
 Nucleus-field energy     =     0.0000000040 hartrees
 Requested basis set is 6-31G(d)
 There are 40 shells and 117 basis functions
 A cutoff of  1.0D-14 yielded    810 shell pairs
 There are      7082 function pairs
 Smallest overlap matrix eigenvalue = 2.24E-03
 Guess MOs from core Hamiltonian diagonalization
 Mixing HOMO and LUMO in initial guess
 Adding  50% of the LUMO to the HOMO
 An unrestricted hybrid HF-DFT SCF calculation will be
 performed using Pulay DIIS extrapolation
 Exchange:     0.2000 Hartree-Fock + 0.0800 Slater + 0.7200 B88
 Correlation:  0.1900 VWN1RPA + 0.8100 LYP
 Using SG-1 standard quadrature grid
 SCF converges when DIIS error is below 1.0E-08
 using 4 threads for integral computing
 -------------------------------------------------------
 OpenMP Integral computing Module                
 Release: version 1.0, May 2013, Q-Chem Inc. Pittsburgh 
 -------------------------------------------------------
 -------------------------------------------------------
 OpenMP BLAS3 based DFT computing Module                
 Release: version 1.0, May 2013, Q-Chem Inc. Pittsburgh 
 -------------------------------------------------------
 ---------------------------------------
  Cycle       Energy         DIIS Error
 ---------------------------------------
    1    -238.4399876662      1.32E-01
    2    -231.7926604900      1.02E-01
    3    -255.3618095552      1.10E-01
    4    -283.1620054837      4.31E-02
    5    -283.1132768999      4.11E-02
    6    -286.3872998310      1.30E-02
    7    -286.2486868320      1.57E-02
    8    -286.7411181099      3.16E-03
    9    -286.7591689114      1.90E-03
   10    -286.7660373159      4.08E-04
   11    -286.7668061017      2.69E-04
   12    -286.7672990496      2.40E-04
   13    -286.7677734064      1.43E-04
   14    -286.7681079923      6.34E-05
   15    -286.7681797213      2.11E-05
   16    -286.7681865350      7.31E-06
   17    -286.7681873845      4.41E-06
   18    -286.7681875206      6.95E-07
   19    -286.7681875371      3.00E-07
   20    -286.7681875435      9.45E-08
   21    -286.7681875456      5.08E-08
   22    -286.7681875465      1.74E-08
   23    -286.7681875466      6.77E-09 Convergence criterion met
 ---------------------------------------
 <S^2> = 0.8121
 SCF time:  CPU 60.93 s  wall 60.40 s
 SCF   energy in the final basis set = -286.76818755
 Total energy in the final basis set = -286.76818755
 
 --------------------------------------------------------------
 
                    Orbital Energies (a.u.)
 --------------------------------------------------------------
 
 Alpha MOs
 -- Occupied --
-14.313 -10.247 -10.228 -10.226 -10.219 -10.218 -10.203  -0.954
 -0.860  -0.748  -0.646  -0.618  -0.601  -0.537  -0.490  -0.446
 -0.438  -0.413  -0.413  -0.360  -0.360  -0.313  -0.263  -0.233
 -0.126
 -- Virtual --
 -0.035   0.034   0.077   0.092   0.142   0.149   0.159   0.167
  0.168   0.180   0.215   0.253   0.284   0.304   0.334   0.406
  0.481   0.514   0.518   0.541   0.551   0.567   0.573   0.599
  0.605   0.646   0.658   0.667   0.681   0.732   0.775   0.800
  0.806   0.832   0.851   0.853   0.865   0.885   0.916   0.927
  0.971   1.037   1.061   1.117   1.135   1.169   1.251   1.342
  1.410   1.434   1.480   1.506   1.561   1.606   1.631   1.677
  1.721   1.775   1.826   1.846   1.900   1.936   2.018   2.068
  2.110   2.137   2.180   2.217   2.233   2.301   2.333   2.366
  2.387   2.406   2.453   2.508   2.550   2.579   2.607   2.640
  2.678   2.744   2.801   2.964   3.067   3.996   4.180   4.193
  4.312   4.417   4.459   4.526
 
 Beta MOs
 -- Occupied --
-14.313 -10.248 -10.226 -10.223 -10.219 -10.211 -10.199  -0.949
 -0.855  -0.740  -0.638  -0.609  -0.597  -0.534  -0.485  -0.443
 -0.432  -0.410  -0.401  -0.357  -0.350  -0.297  -0.257  -0.225
 -- Virtual --
 -0.036  -0.013   0.050   0.079   0.100   0.145   0.153   0.163
  0.170   0.173   0.184   0.221   0.257   0.288   0.310   0.341
  0.410   0.490   0.519   0.527   0.543   0.556   0.576   0.588
  0.608   0.614   0.662   0.668   0.674   0.684   0.736   0.777
  0.804   0.806   0.837   0.853   0.858   0.868   0.888   0.922
  0.930   0.975   1.041   1.069   1.123   1.140   1.175   1.256
  1.346   1.414   1.441   1.489   1.515   1.568   1.612   1.638
  1.686   1.725   1.785   1.835   1.854   1.904   1.942   2.025
  2.077   2.120   2.144   2.196   2.224   2.246   2.313   2.340
  2.374   2.393   2.416   2.463   2.520   2.560   2.584   2.613
  2.646   2.683   2.750   2.807   2.968   3.071   3.998   4.188
  4.200   4.321   4.425   4.466   4.528
 --------------------------------------------------------------
 
          Ground-State Mulliken Net Atomic Charges

     Atom                 Charge (a.u.)    Spin (a.u.)
  --------------------------------------------------------
      1 C                     0.016371       0.354863
      2 C                    -0.161550      -0.000201
      3 C                    -0.084245       0.589081
      4 C                    -0.265156      -0.025099
      5 C                     0.101623       0.298322
      6 N                    -0.354985      -0.055704
      7 H                     0.142304      -0.007633
      8 H                     0.154962      -0.002784
      9 H                     0.152865      -0.018669
     10 H                     0.145220       0.000118
     11 H                     0.134831      -0.015323
     12 C                    -0.134379      -0.146153
     13 H                     0.152137       0.029180
  --------------------------------------------------------
  Sum of atomic charges =     0.000000
  Sum of spin   charges =     1.000000

 -----------------------------------------------------------------
                    Cartesian Multipole Moments
 -----------------------------------------------------------------
    Charge (ESU x 10^10)
                 0.0000
    Dipole Moment (Debye)
         X      -1.2913      Y      -2.5946      Z       0.5707
       Tot       2.9539
    Quadrupole Moments (Debye-Ang)
        XX     -37.5603     XY      -3.9768     YY     -42.2622
        XZ       0.1580     YZ      -0.2206     ZZ     -42.4795
    Octopole Moments (Debye-Ang^2)
       XXX      -9.9860    XXY     -11.1517    XYY     -12.2574
       YYY     -28.8853    XXZ       2.9450    XYZ       2.2135
       YYZ      -0.7185    XZZ      -5.8019    YZZ      -8.7561
       ZZZ       8.4718
    Hexadecapole Moments (Debye-Ang^3)
      XXXX    -237.2159   XXXY     -16.7660   XXYY     -99.1544
      XYYY     -30.1101   YYYY    -329.2968   XXXZ      -4.6206
      XXYZ       4.5063   XYYZ       1.0411   YYYZ       9.0008
      XXZZ     -65.2923   XYZZ      -1.8513   YYZZ     -74.4890
      XZZZ     -13.1344   YZZZ       3.6876   ZZZZ    -132.2807
 -----------------------------------------------------------------
 Calculating analytic gradient of the SCF energy
 Gradient of SCF Energy
            1           2           3           4           5           6
    1  -0.0076126   0.0171309  -0.0043738   0.0108625   0.0131301  -0.0151951
    2  -0.0117175  -0.0136115  -0.0052632  -0.0158536   0.0035074  -0.0003723
    3   0.0155083  -0.0227014  -0.0054744   0.0086479   0.0056066  -0.0065675
            7           8           9          10          11          12
    1   0.0029400   0.0094694   0.0020195  -0.0117383   0.0039028   0.0011466
    2   0.0009263   0.0073972  -0.0032541   0.0044285  -0.0001987   0.0384542
    3  -0.0103482  -0.0079615  -0.0057558  -0.0081300   0.0046591   0.0134150
           13
    1  -0.0216820
    2  -0.0044428
    3   0.0191018
 Max gradient component =       3.845E-02
 RMS gradient           =       1.197E-02
 Gradient time:  CPU 8.05 s  wall 6.38 s
 E1 = -286.7674747, E2 = -286.7681875, Emax = -286.7677915
 Iteration 5, Curvature = -1.3620295
 Curvature, final (in Hartree/Bohr^2) = -0.3814071
 ----------------------------------------------------------------
             Standard Nuclear Orientation (Angstroms)
    I     Atom           X                Y                Z
 ----------------------------------------------------------------
    1      C       1.3683627027     0.3762037519     0.2384016126
    2      C       0.8100018787    -0.9529559746    -0.1778818851
    3      C      -0.4912933797    -0.9186639902    -0.8578801100
    4      C      -1.0722434133     0.2665148263    -0.0372644991
    5      C      -0.4016434740     1.5615333900    -0.3588801543
    6      N       0.8761617921     1.5819581093    -0.1972649025
    7      H       2.4157581347     0.3740167161     0.5397396168
    8      H       1.5553150152    -1.7431896792    -0.2628382551
    9      H      -1.0202336560    -1.8494939267    -1.0619594778
   10      H      -2.1792741166     0.3303624081    -0.0012361168
   11      H      -0.9185897980     2.4590644796    -0.6747092906
   12      C      -0.2266598535    -0.4801812389     1.0080314727
   13      H      -0.7765740320    -1.0455324189     1.8344471156
 ----------------------------------------------------------------
 Nuclear Repulsion Energy =   277.6290172578 hartrees
 There are       25 alpha and       24 beta electrons
 Requested basis set is 6-31G(d)
 There are 40 shells and 117 basis functions
 Geometry Optimization Parameters
   NAtoms,    NIC,     NZ,  NCons,   NDum,   NFix, NCnnct, MaxDiis
       13     157       0       0       0       0       0       0


** GEOMETRY OPTIMIZATION IN DELOCALIZED INTERNAL COORDINATES **
   Searching for a Minimum

   Optimization Cycle:   1

                       Coordinates (Angstroms)
     ATOM                X               Y               Z
      1  C         1.3683627027    0.3762037519    0.2384016126
      2  C         0.8100018787   -0.9529559746   -0.1778818851
      3  C        -0.4912933797   -0.9186639902   -0.8578801100
      4  C        -1.0722434133    0.2665148263   -0.0372644991
      5  C        -0.4016434740    1.5615333900   -0.3588801543
      6  N         0.8761617921    1.5819581093   -0.1972649025
      7  H         2.4157581347    0.3740167161    0.5397396168
      8  H         1.5553150152   -1.7431896792   -0.2628382551
      9  H        -1.0202336560   -1.8494939267   -1.0619594778
     10  H        -2.1792741166    0.3303624081   -0.0012361168
     11  H        -0.9185897980    2.4590644796   -0.6747092906
     12  C        -0.2266598535   -0.4801812389    1.0080314727
     13  H        -0.7765740320   -1.0455324189    1.8344471156
   Point Group: c1    Number of degrees of freedom:    33


   Energy is   -286.768187547


 Attempting to Generate Delocalized Internal Coordinates

 33 Hessian modes will be used to form the next step
  Hessian Eigenvalues:
     0.011738    0.014391    0.017012    0.019211    0.021900    0.025250
     0.025973    0.027371    0.032303    0.034250    0.043211    0.047711
     0.052687    0.067537    0.078292    0.099915    0.106060    0.153039
     0.159908    0.164205    0.200362    0.223084    0.225552    0.261186
     0.294005    0.305735    0.326577    0.348248    0.348261    0.348615
     0.356533    0.455364    0.616917

 Minimum Search - Taking Simple RFO Step
 Searching for Lamda that Minimizes Along All modes
 Value Taken    Lamda =  -0.01857297
 Calculated Step too Large.  Step scaled by  0.630082
 Step Taken.  Stepsize is  0.300000

                             Maximum     Tolerance    Cnvgd?
         Gradient           0.028842      0.000300      NO
         Displacement       0.139691      0.001200      NO
         Energy change     *********      0.000001      NO


 New Cartesian Coordinates Obtained by Inverse Iteration

 Displacement from previous Coordinates is:  0.264514
 ----------------------------------------------------------------
             Standard Nuclear Orientation (Angstroms)
    I     Atom           X                Y                Z
 ----------------------------------------------------------------
    1      C       1.3711856768     0.3868602538     0.2355029499
    2      C       0.8002638969    -0.9477703272    -0.1724502981
    3      C      -0.4941735811    -0.9013843347    -0.8609604505
    4      C      -1.0666074416     0.2769533464    -0.0362311649
    5      C      -0.4034644894     1.5669372487    -0.3780924200
    6      N       0.8795386605     1.5940359911    -0.1992350254
    7      H       2.4038512620     0.3831752873     0.5840751396
    8      H       1.5155450733    -1.7656944508    -0.2283480979
    9      H      -1.0360638277    -1.8251249241    -1.0486958219
   10      H      -2.1610363870     0.3270009432     0.0389772020
   11      H      -0.9334835374     2.4530820122    -0.7141074034
   12      C      -0.2122962373    -0.5028562398     0.9852215075
   13      H      -0.7241712676    -1.0855783533     1.7850490099
 ----------------------------------------------------------------
 Nuclear Repulsion Energy =   278.1738542082 hartrees
 There are       25 alpha and       24 beta electrons

































 Eigenvalues after right structure
 -0.4031838 -0.0000000 -0.0000000 0.0000000 0.0000000 0.0000000 0.0001271 0.0185063 0.0334581 0.0429975 0.0512000 0.0614465 0.0642210 0.0665603 0.0763054 0.0855041 0.1020104 0.1164409 0.1228460 0.1466819 0.1872662 0.2356098 0.2471069 0.2698797 0.2950849 0.3671746 0.4125035 0.4617728 0.5992817 0.6491306 0.7465740 1.0091591 1.0156892 1.0511498 1.1288228 1.1974825 1.2778476 1.3811395 1.7662262
Archival summary:
1\1\c8-73\JobtypUnspecified\ProcedureUnspecified\6-31G*\166(2)\hpark21\WedMar211:27:152022WedMar211:27:152022\0\\#,JobtypUnspecified,ProcedureUnspecified,6-31G*,\\0,2\N\C,1,1.29569\H,2,1.08585,1,120.596\C,1,1.37404,2,112.309,3,179.549,0\H,4,1.08991,1,116.307,2,-168.978,0\C,2,1.4902,1,115.283,3,-177.51,0\H,6,1.09815,2,114.819,1,166.248,0\C,4,1.50785,1,123.818,2,33.3501,0\H,8,1.088,4,115.492,1,148.573,0\C,8,1.46689,4,115.666,1,-11.775,0\H,10,1.08728,8,119.602,4,-170.73,0\C,6,1.54315,2,110.056,1,24.0815,0\H,12,1.11414,6,119.022,2,142.944,0\\\@

 Total job time:  4346.16s(wall), 5178.78s(cpu) 
 Wed Mar  2 11:27:15 2022

        *************************************************************
        *                                                           *
        *  Thank you very much for using Q-Chem.  Have a nice day.  *
        *                                                           *
        *************************************************************


