
Running Job 1 of 1 qcts2.in
qchem qcts2.in_53646.0 ./qcts2.d/ 1
/home/leeping/opt/qchem/5.0.2-openmp/exe/qcprog.exe_s qcts2.in_53646.0 ./qcts2.d/
Check license passed

                  Welcome to Q-Chem
     A Quantum Leap Into The Future Of Chemistry


 Q-Chem 5.0, Q-Chem, Inc., Pleasanton, CA (2017)

 Yihan Shao,  Zhengting Gan,  E. Epifanovsky,  A. T. B. Gilbert,  M. Wormit,  
 J. Kussmann,  A. W. Lange,  A. Behn,  Jia Deng,  Xintian Feng,  D. Ghosh,  
 M. Goldey,  P. R. Horn,  L. D. Jacobson,  I. Kaliman,  T. Kus,  A. Landau,  
 Jie Liu,  E. I. Proynov,  R. M. Richard,  R. P. Steele,  E. J. Sundstrom,  
 H. L. Woodcock III,  P. M. Zimmerman,  D. Zuev,  B. Albrecht,  E. Alguire,  
 S. A. Baeppler,  D. Barton,  Z. Benda,  Y. A. Bernard,  E. J. Berquist,  
 K. B. Bravaya,  H. Burton,  D. Casanova,  Chun-Min Chang,  Yunqing Chen,  
 A. Chien,  K. D. Closser,  M. P. Coons,  S. Dasgupta,  A. L. Dempwolff,  
 M. Diedenhofen,  Hainam Do,  R. G. Edgar,  Po-Tung Fang,  S. Fatehi,  
 Qingguo Feng,  J. Fosso-Tande,  Qinghui Ge,  A. Ghysels,  G. Gidofalvi,  
 J. Gomes,  J. Gonthier,  A. Gunina,  M. W. D. Hanson-Heine,  
 P. H. P. Harbach,  A. W. Hauser,  J. E. Herr,  E. G. Hohenstein,  
 Z. C. Holden,  Kerwin Hui,  T.-C. Jagau,  Hyunjun Ji,  B. Kaduk,  
 K. Khistyaev,  Jaehoon Kim,  P. Klunzinger,  K. Koh,  D. Kosenkov,  
 L. Koulias,  T. Kowalczyk,  C. M. Krauter,  A. Kunitsa,  Ka Un Lao,  
 A. Laurent,  K. V. Lawler,  Joonho Lee,  D. Lefrancois,  S. Lehtola,  
 D. S. Levine,  Yi-Pei Li,  You-Sheng Lin,  Fenglai Liu,  E. Livshits,  
 A. Luenser,  P. Manohar,  E. Mansoor,  S. F. Manzer,  Shan-Ping Mao,  
 Yuezhi Mao,  N. Mardirossian,  A. V. Marenich,  T. Markovich,  
 L. A. Martinez-Martinez,  S. A. Maurer,  N. J. Mayhall,  S. C. McKenzie,  
 J.-M. Mewes,  A. F. Morrison,  J. W. Mullinax,  K. Nanda,  
 T. S. Nguyen-Beck,  R. Olivares-Amaya,  J. A. Parkhill,  T. M. Perrine,  
 F. Plasser,  S. Prager,  A. Prociuk,  E. Ramos,  D. R. Rehn,  F. Rob,  
 M. Schneider,  N. Sergueev,  S. M. Sharada,  S. Sharma,  D. W. Small,  
 T. Stauch,  T. Stein,  Yu-Chuan Su,  A. J. W. Thom,  A. Tkatchenko,  
 T. Tsuchimochi,  L. Vogt,  O. Vydrov,  M. A. Watson,  J. Wenzel,  
 M. de Wergifosse,  T. A. Wesolowski,  A. White,  J. Witte,  A. Yamada,  
 Jun Yang,  K. Yao,  S. Yeganeh,  S. R. Yost,  Zhi-Qiang You,  A. Zech,  
 Igor Ying Zhang,  Xing Zhang,  Yan Zhao,  Ying Zhu,  B. R. Brooks,  
 G. K. L. Chan,  C. J. Cramer,  M. S. Gordon,  W. J. Hehre,  A. Klamt,  
 M. W. Schmidt,  C. D. Sherrill,  D. G. Truhlar,  A. Aspuru-Guzik,  R. Baer,  
 A. T. Bell,  N. A. Besley,  Jeng-Da Chai,  R. A. DiStasio Jr.,  A. Dreuw,  
 B. D. Dunietz,  T. R. Furlani,  Chao-Ping Hsu,  Yousung Jung,  Jing Kong,  
 D. S. Lambrecht,  WanZhen Liang,  C. Ochsenfeld,  V. A. Rassolov,  
 L. V. Slipchenko,  J. E. Subotnik,  T. Van Voorhis,  J. M. Herbert,  
 A. I. Krylov,  P. M. W. Gill,  M. Head-Gordon

 Contributors to earlier versions of Q-Chem not listed above: 
 R. D. Adamson,  B. Austin,  J. Baker,  G. J. O. Beran,  K. Brandhorst,  
 S. T. Brown,  E. F. C. Byrd,  A. K. Chakraborty,  C.-L. Cheng,  
 Siu Hung Chien,  D. M. Chipman,  D. L. Crittenden,  H. Dachsel,  
 R. J. Doerksen,  A. D. Dutoi,  L. Fusti-Molnar,  W. A. Goddard III,  
 A. Golubeva-Zadorozhnaya,  S. R. Gwaltney,  G. Hawkins,  A. Heyden,  
 S. Hirata,  G. Kedziora,  F. J. Keil,  C. Kelley,  Jihan Kim,  R. A. King,  
 R. Z. Khaliullin,  P. P. Korambath,  W. Kurlancheek,  A. M. Lee,  M. S. Lee,  
 S. V. Levchenko,  Ching Yeh Lin,  D. Liotard,  R. C. Lochan,  I. Lotan,  
 P. E. Maslen,  N. Nair,  D. P. O'Neill,  D. Neuhauser,  E. Neuscamman,  
 C. M. Oana,  R. Olson,  B. Peters,  R. Peverati,  P. A. Pieniazek,  
 Y. M. Rhee,  J. Ritchie,  M. A. Rohrdanz,  E. Rosta,  N. J. Russ,  
 H. F. Schaefer III,  N. E. Schultz,  N. Shenvi,  A. C. Simmonett,  A. Sodt,  
 D. Stuck,  K. S. Thanthiriwatte,  V. Vanovschi,  Tao Wang,  A. Warshel,  
 C. F. Williams,  Q. Wu,  X. Xu,  W. Zhang

 Please cite Q-Chem as follows:
 Y. Shao et al., Mol. Phys. 113, 184-215 (2015)
 DOI: 10.1080/00268976.2014.952696

 Q-Chem 5.0.2 for Intel X86 EM64T Linux

 Parts of Q-Chem use Armadillo 5.200.1 (Boston Tea Smuggler).
 http://arma.sourceforge.net/

 Q-Chem begins on Wed Mar  2 12:18:13 2022  

Host: 
0

     Scratch files written to ./qcts2.d//
 Dec517 15110_ 26548  26544 5633   
Processing $rem in /home/leeping/opt/qchem/5.0.2-openmp/config/preferences.
 MEM_STATIC 2000
 MEM_TOTAL  8000
 SYMMETRY   OFF
 SYM_IGNORE TRUE 

Checking the input file for inconsistencies... 	...done.

--------------------------------------------------------------
User input:
--------------------------------------------------------------
$molecule
0 2
C        1.3542003206    0.3995924955    0.2294977592
C        0.8129720329   -0.9194641018   -0.2379946595
C       -0.5249928943   -0.8761636033   -0.8946753331
C       -1.0756454759    0.3189177532   -0.0458480461
C       -0.4066826333    1.5890078753   -0.3993323935
N        0.8845153309    1.6115391608   -0.1974919676
H        2.2556847122    0.3665544144    0.8331293332
H        1.4292310131   -1.8109877188   -0.2007777914
H       -1.0836612633   -1.8110997420   -0.9272774856
H       -2.1460786261    0.3339818740    0.1475323030
H       -0.9238215620    2.4384986760   -0.8347693021
C       -0.1589904230   -0.5299168238    0.8419242501
H       -0.4776427313   -1.1508238068    1.6767884602
$end

$rem
method                b3lyp
basis                 6-31+g(d,p)
unrestricted          true
symmetry              off
sym_ignore            true
incdft                false
incfock               0
scf_convergence       6
thresh                14
jobtype               sp
scf_guess             read
scf_algorithm         diis
max_scf_cycles        100
stability_analysis    true
max_cis_cycles        100
cis_n_roots           4
$end

--------------------------------------------------------------
 ----------------------------------------------------------------
             Standard Nuclear Orientation (Angstroms)
    I     Atom           X                Y                Z
 ----------------------------------------------------------------
    1      C       1.3542003206     0.3995924955     0.2294977592
    2      C       0.8129720329    -0.9194641018    -0.2379946595
    3      C      -0.5249928943    -0.8761636033    -0.8946753331
    4      C      -1.0756454759     0.3189177532    -0.0458480461
    5      C      -0.4066826333     1.5890078753    -0.3993323935
    6      N       0.8845153309     1.6115391608    -0.1974919676
    7      H       2.2556847122     0.3665544144     0.8331293332
    8      H       1.4292310131    -1.8109877188    -0.2007777914
    9      H      -1.0836612633    -1.8110997420    -0.9272774856
   10      H      -2.1460786261     0.3339818740     0.1475323030
   11      H      -0.9238215620     2.4384986760    -0.8347693021
   12      C      -0.1589904230    -0.5299168238     0.8419242501
   13      H      -0.4776427313    -1.1508238068     1.6767884602
 ----------------------------------------------------------------
 Nuclear Repulsion Energy =   280.5069073242 hartrees
 There are       25 alpha and       24 beta electrons
 Requested basis set is 6-31+G(d,p)
 There are 53 shells and 163 basis functions

 Total QAlloc Memory Limit   8000 MB
 Mega-Array Size      1956 MB
 MEM_STATIC part      2000 MB

                       Distance Matrix (Angstroms)
             C (  1)   C (  2)   C (  3)   C (  4)   C (  5)   N (  6)
   C (  2)  1.500462
   C (  3)  2.534302  1.491058
   C (  4)  2.446727  2.266580  1.565869
   C (  5)  2.216043  2.793925  2.517227  1.478375
   N (  6)  1.368115  2.532338  2.943033  2.352891  1.307073
   H (  7)  1.085420  2.209654  3.501689  3.445668  3.178294  2.119498
   H (  8)  2.253316  1.084424  2.274727  3.291642  3.869105  3.465605
   H (  9)  3.488332  2.206206  1.089623  2.305202  3.506816  4.015067
   H ( 10)  3.501853  3.236625  2.275647  1.087865  2.213515  3.306916
   H ( 11)  3.237157  3.827337  3.339108  2.266731  1.085667  2.088077
   C ( 12)  1.878510  1.504222  1.808210  1.532617  2.468180  2.599062
   H ( 13)  2.802515  2.320691  2.586524  2.342056  3.438312  3.605420
             H (  7)   H (  8)   H (  9)   H ( 10)   H ( 11)   C ( 12)
   H (  8)  2.548270
   H (  9)  4.358032  2.615804
   H ( 10)  4.454955  4.183904  2.623990
   H ( 11)  4.145371  4.898667  4.253609  2.624466
   C ( 12)  2.575732  2.291466  2.372029  2.275307  3.493960
   H ( 13)  3.238098  2.756309  2.753976  2.706834  4.403434  1.088147

 
 A cutoff of  1.0D-14 yielded   1398 shell pairs
 There are     13494 function pairs
 Smallest overlap matrix eigenvalue = 4.01E-05

 Scale SEOQF with 1.000000e-01/1.000000e-01/1.000000e-01

 Standard Electronic Orientation quadrupole field applied
 Nucleus-field energy     =     0.0000000042 hartrees
 Guess MOs from SCF MO coefficient file
 Reading MOs from coefficient file
 Reading MOs from coefficient file
 An unrestricted hybrid HF-DFT SCF calculation will be
 performed using Pulay DIIS extrapolation
 Exchange:     0.2000 Hartree-Fock + 0.0800 Slater + 0.7200 B88
 Correlation:  0.1900 VWN1RPA + 0.8100 LYP
 Using SG-1 standard quadrature grid
 SCF converges when DIIS error is below 1.0E-06
Using Q-Chem read-in guess as SCF_GUESS READ specified.

 -------------------------------------------------------
 OpenMP BLAS3 based DFT computing Module                
 -------------------------------------------------------
 ---------------------------------------
  Cycle       Energy         DIIS Error
 ---------------------------------------
    1    -286.8141289545      4.54E-10
    2    -286.8141289545      7.84E-10 Convergence criterion met
 ---------------------------------------
 <S^2> = 0.7755
 SCF time:  CPU 6.88 s  wall 15.93 s
 SCF   energy in the final basis set = -286.81412895
 Total energy in the final basis set = -286.81412895
 
 Direct TDDFT/TDA calculation will be performed
 Exchange:     0.2000 Hartree-Fock + 0.0800 Slater + 0.7200 B88
 Correlation:  0.1900 VWN1RPA + 0.8100 LYP
 Using SG-1 standard quadrature grid
 CIS energy converged when residual is below 10e- 6
 ---------------------------------------------------
 Iter    Rts Conv    Rts Left    Ttl Dev     Max Dev
 ---------------------------------------------------
   1         0           4      0.003002    0.001498
   2         0           4      0.000757    0.000280
   3         0           4      0.000384    0.000201
   4         0           4      0.000141    0.000083
   5         0           4      0.000052    0.000031
   6         0           4      0.000019    0.000012
   7         3           1      0.000007    0.000005
   8         3           1      0.000003    0.000001
   9         4           0      0.000002    0.000001    Roots Converged
 ---------------------------------------------------
 
 ---------------------------------------------------
         TDDFT/TDA Excitation Energies              
 ---------------------------------------------------

 Excited state   1: excitation energy (eV) =    1.7162
 Total energy for state  1:                  -286.75105951 au
    <S**2>     :  0.7766
    Trans. Mom.: -0.1098 X  -0.6530 Y  -0.2048 Z
    Strength   :     0.0201992064
    S(  1) --> V(  1) amplitude =  0.9721 alpha
    D( 24) --> S(  1) amplitude = -0.1621 beta

 Excited state   2: excitation energy (eV) =    2.6483
 Total energy for state  2:                  -286.71680568 au
    <S**2>     :  0.7883
    Trans. Mom.:  0.1475 X   0.3047 Y  -0.2103 Z
    Strength   :     0.0103065202
    S(  1) --> V(  2) amplitude =  0.9951 alpha

 Excited state   3: excitation energy (eV) =    3.1253
 Total energy for state  3:                  -286.69927602 au
    <S**2>     :  0.8038
    Trans. Mom.: -0.2594 X   0.1565 Y   0.0239 Z
    Strength   :     0.0070732875
    S(  1) --> V(  3) amplitude =  0.7986 alpha
    S(  1) --> V(  4) amplitude = -0.5203 alpha
    S(  1) --> V(  6) amplitude = -0.1616 alpha

 Excited state   4: excitation energy (eV) =    3.3235
 Total energy for state  4:                  -286.69199095 au
    <S**2>     :  0.7881
    Trans. Mom.: -0.1292 X   0.1274 Y  -0.0299 Z
    Strength   :     0.0027554525
    S(  1) --> V(  3) amplitude =  0.5552 alpha
    S(  1) --> V(  4) amplitude =  0.8272 alpha
 
 ---------------------------------------------------

 Stability analysis will be performed
 ---------------------------------------------------
 Iter    Rts Conv    Rts Left    Ttl Dev     Max Dev
 ---------------------------------------------------
   1         0           8      0.003139    0.000725
   2         0           8      0.001020    0.000335
   3         0           8      0.000645    0.000296
   4         3           5      0.001048    0.000649
   5         4           4      0.000641    0.000348
   6         4           4      0.000261    0.000144
   7         4           4      0.000080    0.000044
   8         6           2      0.000030    0.000016
   9         6           2      0.000011    0.000004
  10         7           1      0.000005    0.000001
  11         8           0      0.000004    0.000001    Roots Converged
 UKS-> UKS   stable,    smallest eigenvalue:      0.0544130
 UKS->CUKS   stable,    smallest eigenvalue:      0.0579525
 ---------------------------------------------------
  SETman timing summary (seconds)
  CPU time               179.31s
  System time              0.00s
  Wall time              256.69s
 
 --------------------------------------------------------------
 
                    Orbital Energies (a.u.)
 --------------------------------------------------------------
 
 Alpha MOs
 -- Occupied --
-14.331 -10.252 -10.246 -10.232 -10.230 -10.228 -10.219  -0.979
 -0.888  -0.767  -0.655  -0.636  -0.613  -0.557  -0.506  -0.461
 -0.450  -0.433  -0.422  -0.380  -0.374  -0.321  -0.280  -0.257
 -0.137
 -- Virtual --
 -0.035  -0.008   0.015   0.016   0.027   0.038   0.052   0.053
  0.065   0.069   0.074   0.096   0.098   0.102   0.109   0.111
  0.120   0.129   0.142   0.149   0.157   0.166   0.172   0.183
  0.187   0.200   0.207   0.217   0.231   0.240   0.244   0.249
  0.253   0.266   0.280   0.284   0.307   0.317   0.325   0.341
  0.360   0.365   0.437   0.461   0.616   0.621   0.638   0.672
  0.692   0.705   0.719   0.740   0.746   0.753   0.771   0.791
  0.808   0.839   0.873   0.890   0.918   0.928   0.960   0.977
  0.997   1.019   1.038   1.069   1.084   1.104   1.135   1.149
  1.178   1.223   1.304   1.339   1.358   1.404   1.444   1.483
  1.520   1.589   1.593   1.679   1.709   1.736   1.807   1.837
  1.861   1.905   1.941   1.983   2.039   2.061   2.099   2.160
  2.176   2.190   2.264   2.266   2.297   2.340   2.363   2.365
  2.415   2.423   2.453   2.491   2.511   2.517   2.538   2.555
  2.576   2.592   2.627   2.649   2.677   2.708   2.713   2.754
  2.823   2.881   2.960   3.081   3.109   3.288   3.312   3.375
  3.446   3.502   3.673   4.193   4.381   4.455   4.531   4.582
  4.654   4.706
 
 Beta MOs
 -- Occupied --
-14.331 -10.253 -10.243 -10.228 -10.227 -10.224 -10.215  -0.974
 -0.883  -0.760  -0.648  -0.627  -0.610  -0.553  -0.501  -0.458
 -0.443  -0.430  -0.412  -0.374  -0.366  -0.303  -0.273  -0.247
 -- Virtual --
 -0.051  -0.019  -0.007   0.015   0.020   0.029   0.040   0.053
  0.060   0.065   0.072   0.076   0.096   0.098   0.103   0.109
  0.112   0.122   0.131   0.143   0.151   0.158   0.167   0.174
  0.184   0.190   0.201   0.211   0.218   0.233   0.245   0.247
  0.251   0.256   0.269   0.282   0.290   0.309   0.320   0.328
  0.343   0.365   0.371   0.442   0.467   0.620   0.627   0.641
  0.669   0.699   0.719   0.731   0.747   0.751   0.758   0.776
  0.797   0.814   0.844   0.881   0.895   0.922   0.931   0.962
  0.979   1.002   1.021   1.039   1.073   1.086   1.109   1.141
  1.155   1.184   1.227   1.310   1.346   1.365   1.406   1.451
  1.488   1.525   1.594   1.601   1.683   1.717   1.745   1.822
  1.841   1.867   1.909   1.945   1.987   2.045   2.065   2.109
  2.167   2.182   2.195   2.268   2.273   2.302   2.343   2.369
  2.372   2.419   2.426   2.457   2.497   2.518   2.520   2.544
  2.568   2.583   2.597   2.634   2.656   2.682   2.711   2.717
  2.759   2.827   2.885   2.964   3.084   3.111   3.290   3.313
  3.381   3.447   3.504   3.676   4.195   4.388   4.471   4.536
  4.590   4.655   4.710
 --------------------------------------------------------------
 
          Ground-State Mulliken Net Atomic Charges

     Atom                 Charge (a.u.)    Spin (a.u.)
  --------------------------------------------------------
      1 C                    -0.246368       0.249487
      2 C                    -0.062128       0.043371
      3 C                    -0.143948       0.608052
      4 C                    -0.264555      -0.043961
      5 C                     0.018479       0.245058
      6 N                    -0.198880      -0.007505
      7 H                     0.142954      -0.009302
      8 H                     0.150712      -0.007245
      9 H                     0.152779      -0.004765
     10 H                     0.139643      -0.002844
     11 H                     0.128473      -0.013470
     12 C                     0.034159      -0.071955
     13 H                     0.148679       0.015078
  --------------------------------------------------------
  Sum of atomic charges =     0.000000
  Sum of spin   charges =     1.000000

 -----------------------------------------------------------------
                    Cartesian Multipole Moments
 -----------------------------------------------------------------
    Charge (ESU x 10^10)
                -0.0000
    Dipole Moment (Debye)
         X      -1.3317      Y      -2.8890      Z       1.3596
       Tot       3.4595
    Quadrupole Moments (Debye-Ang)
        XX     -39.2562     XY      -4.6166     YY     -43.4928
        XZ       1.1180     YZ      -1.3536     ZZ     -44.2180
    Octopole Moments (Debye-Ang^2)
       XXX     -13.1502    XXY     -12.3311    XYY     -13.3257
       YYY     -35.8397    XXZ       6.8171    XYZ       2.7548
       YYZ       1.5303    XZZ      -4.2250    YZZ      -8.9842
       ZZZ      16.7498
    Hexadecapole Moments (Debye-Ang^3)
      XXXX    -247.6525   XXXY     -18.9651   XXYY    -106.3793
      XYYY     -36.5315   YYYY    -356.6496   XXXZ      -5.7547
      XXYZ       5.1970   XYYZ       1.6814   YYYZ       4.2711
      XXZZ     -67.0718   XYZZ      -4.3098   YYZZ     -79.7367
      XZZZ     -16.5328   YZZZ       1.3343   ZZZZ    -144.8459
 -----------------------------------------------------------------
Archival summary:
1\1\c8-73\SP\ProcedureUnspecified\6-31+G**\166(2)\hpark21\WedMar212:22:542022WedMar212:22:542022\0\\#,ProcedureUnspecified,6-31+G**,\\0,2\N\C,1,1.30707\H,2,1.08567,1,121.265\C,1,1.36812,2,111.843,3,-173.787,0\H,4,1.08542,1,119.056,2,-153.337,0\C,2,1.47837,1,115.144,3,177.585,0\H,6,1.08786,2,118.415,1,158.77,0\C,4,1.50046,1,123.895,2,35.5209,0\H,8,1.08442,4,120.467,1,155.556,0\C,8,1.49106,4,115.808,1,-17.1524,0\H,10,1.08962,8,116.637,4,-159.424,0\C,8,1.50422,4,77.3927,1,-82.52,0\H,12,1.08815,8,126.318,4,-129.248,0\\\@

 Total job time:  281.67s(wall), 186.42s(cpu) 
 Wed Mar  2 12:22:54 2022

        *************************************************************
        *                                                           *
        *  Thank you very much for using Q-Chem.  Have a nice day.  *
        *                                                           *
        *************************************************************


