13   
From optimize.out: Frame 1 / 17, Energy=    -286.6463204927
C       -0.0001110000   -0.0972760000   -0.0000000000
C       -0.1743590000    0.0206230000   -0.0000000000
C       -0.1423210000    0.0345420000   -0.0000000000
C       -0.1209830000   -0.0111570000   -0.0000000000
C       -0.0716080000   -0.0407680000   -0.0000000000
N       -0.3048840000    0.8891730000   -0.0000000000
H        0.1754540000    0.0028510000    0.0000000000
H        0.1566110000    0.0141520000   -0.0000000000
H        0.1728140000   -0.0027150000   -0.0000000000
H        0.1595750000   -0.0004960000   -0.0000000000
H        0.1435840000    0.0011660000   -0.0000000000
C       -0.1481540000    0.1937730000    0.0000000000
H        0.1543810000   -0.0038680000    0.0000000000
13   
From optimize.out: Frame 2 / 17, Energy=    -286.6872270487
C        0.0072590000   -0.0977810000   -0.0000000000
C       -0.1777900000    0.0259180000   -0.0000000000
C       -0.1364760000    0.0407130000   -0.0000000000
C       -0.1140250000   -0.0040780000   -0.0000000000
C       -0.0773590000   -0.0424540000   -0.0000000000
N       -0.3046390000    0.8796170000   -0.0000000000
H        0.1710250000    0.0027780000   -0.0000000000
H        0.1558920000    0.0129590000   -0.0000000000
H        0.1705180000   -0.0028650000   -0.0000000000
H        0.1564940000   -0.0006340000   -0.0000000000
H        0.1456290000    0.0012190000   -0.0000000000
C       -0.1518990000    0.1887380000    0.0000000000
H        0.1553710000   -0.0041290000    0.0000000000
13   
From optimize.out: Frame 3 / 17, Energy=    -286.7220306615
C        0.0109160000   -0.0972800000   -0.0000000000
C       -0.1770760000    0.0320320000   -0.0000000000
C       -0.1310020000    0.0498150000   -0.0000000000
C       -0.1056630000    0.0059550000   -0.0000000000
C       -0.0806160000   -0.0463020000   -0.0000000000
N       -0.3034530000    0.8651010000   -0.0000000000
H        0.1662140000    0.0027050000   -0.0000000000
H        0.1547130000    0.0114760000   -0.0000000000
H        0.1667850000   -0.0032480000   -0.0000000000
H        0.1533860000   -0.0009480000   -0.0000000000
H        0.1469760000    0.0012910000   -0.0000000000
C       -0.1559480000    0.1840100000    0.0000000000
H        0.1547670000   -0.0046070000    0.0000000000
13   
From optimize.out: Frame 4 / 17, Energy=    -286.7496360909
C        0.0085830000   -0.0965270000   -0.0000000000
C       -0.1711700000    0.0388720000   -0.0000000000
C       -0.1283910000    0.0614680000   -0.0000000000
C       -0.0983940000    0.0196810000   -0.0000000000
C       -0.0813810000   -0.0533390000   -0.0000000000
N       -0.3001130000    0.8512530000   -0.0000000000
H        0.1619540000    0.0026140000   -0.0000000000
H        0.1533220000    0.0093510000   -0.0000000000
H        0.1627780000   -0.0037210000   -0.0000000000
H        0.1507600000   -0.0014100000   -0.0000000000
H        0.1480250000    0.0013370000   -0.0000000000
C       -0.1598210000    0.1754800000    0.0000000000
H        0.1538470000   -0.0050590000    0.0000000000
13   
From optimize.out: Frame 5 / 17, Energy=    -286.7710994604
C        0.0019610000   -0.0951450000   -0.0000000000
C       -0.1616640000    0.0456010000   -0.0000000000
C       -0.1282870000    0.0741060000   -0.0000000000
C       -0.0934830000    0.0351630000   -0.0000000000
C       -0.0799540000   -0.0613100000   -0.0000000000
N       -0.2960400000    0.8376960000   -0.0000000000
H        0.1583740000    0.0024600000   -0.0000000000
H        0.1517280000    0.0069940000   -0.0000000000
H        0.1592990000   -0.0041120000   -0.0000000000
H        0.1486530000   -0.0018930000   -0.0000000000
H        0.1487860000    0.0013450000   -0.0000000000
C       -0.1620480000    0.1644450000    0.0000000000
H        0.1526760000   -0.0053510000    0.0000000000
13   
From optimize.out: Frame 6 / 17, Energy=    -286.7873406106
C       -0.0067760000   -0.0931840000   -0.0000000000
C       -0.1510150000    0.0514780000   -0.0000000000
C       -0.1294980000    0.0853700000   -0.0000000000
C       -0.0918930000    0.0493790000   -0.0000000000
C       -0.0765240000   -0.0680500000   -0.0000000000
N       -0.2924550000    0.8255250000   -0.0000000000
H        0.1555110000    0.0022340000   -0.0000000000
H        0.1500710000    0.0048910000   -0.0000000000
H        0.1563520000   -0.0043330000   -0.0000000000
H        0.1470370000   -0.0022300000   -0.0000000000
H        0.1492830000    0.0013080000   -0.0000000000
C       -0.1615020000    0.1530660000    0.0000000000
H        0.1514100000   -0.0054550000    0.0000000000
13   
From optimize.out: Frame 7 / 17, Energy=    -286.7993971421
C       -0.0158980000   -0.0908420000   -0.0000000000
C       -0.1411720000    0.0564450000   -0.0000000000
C       -0.1309770000    0.0937930000   -0.0000000000
C       -0.0936190000    0.0607110000   -0.0000000000
C       -0.0713350000   -0.0728670000   -0.0000000000
N       -0.2897250000    0.8161060000   -0.0000000000
H        0.1532460000    0.0019700000   -0.0000000000
H        0.1485060000    0.0032220000   -0.0000000000
H        0.1537350000   -0.0043940000   -0.0000000000
H        0.1458290000   -0.0023630000   -0.0000000000
H        0.1494630000    0.0012410000   -0.0000000000
C       -0.1582140000    0.1423780000    0.0000000000
H        0.1501610000   -0.0053990000    0.0000000000
13   
From optimize.out: Frame 8 / 17, Energy=    -286.8082515613
C       -0.0244120000   -0.0882650000   -0.0000000000
C       -0.1330070000    0.0608230000   -0.0000000000
C       -0.1321840000    0.0989940000   -0.0000000000
C       -0.0977960000    0.0692970000   -0.0000000000
C       -0.0650410000   -0.0760860000   -0.0000000000
N       -0.2877910000    0.8101650000   -0.0000000000
H        0.1515210000    0.0017100000   -0.0000000000
H        0.1471150000    0.0019300000   -0.0000000000
H        0.1513230000   -0.0043110000   -0.0000000000
H        0.1449380000   -0.0023490000   -0.0000000000
H        0.1494100000    0.0011670000   -0.0000000000
C       -0.1530850000    0.1321240000    0.0000000000
H        0.1490080000   -0.0051990000    0.0000000000
13   
From optimize.out: Frame 9 / 17, Energy=    -286.8146823454
C       -0.0317770000   -0.0856230000   -0.0000000000
C       -0.1267690000    0.0650170000   -0.0000000000
C       -0.1328430000    0.1011390000   -0.0000000000
C       -0.1031730000    0.0758080000   -0.0000000000
C       -0.0586340000   -0.0781880000   -0.0000000000
N       -0.2865490000    0.8076620000   -0.0000000000
H        0.1503120000    0.0014840000   -0.0000000000
H        0.1459430000    0.0008950000   -0.0000000000
H        0.1491040000   -0.0040870000   -0.0000000000
H        0.1442810000   -0.0022780000   -0.0000000000
H        0.1492880000    0.0011040000   -0.0000000000
C       -0.1471500000    0.1219290000    0.0000000000
H        0.1479680000   -0.0048600000    0.0000000000
13   
From optimize.out: Frame 10 / 17, Energy=    -286.8192342468
C       -0.0376760000   -0.0831490000   -0.0000000000
C       -0.1226220000    0.0693190000   -0.0000000000
C       -0.1327600000    0.1007780000   -0.0000000000
C       -0.1087720000    0.0808200000   -0.0000000000
C       -0.0529710000   -0.0795340000   -0.0000000000
N       -0.2858870000    0.8078770000   -0.0000000000
H        0.1495800000    0.0013080000   -0.0000000000
H        0.1450210000    0.0000280000   -0.0000000000
H        0.1471440000   -0.0037410000   -0.0000000000
H        0.1438220000   -0.0022260000    0.0000000000
H        0.1492250000    0.0010600000   -0.0000000000
C       -0.1411200000    0.1118690000    0.0000000000
H        0.1470150000   -0.0044080000    0.0000000000
13   
From optimize.out: Frame 11 / 17, Energy=    -286.8222762528
C       -0.0419440000   -0.0810950000   -0.0000000000
C       -0.1207000000    0.0738740000   -0.0000000000
C       -0.1317370000    0.0986640000   -0.0000000000
C       -0.1141170000    0.0847550000   -0.0000000000
C       -0.0485500000   -0.0803630000   -0.0000000000
N       -0.2856630000    0.8096220000   -0.0000000000
H        0.1492310000    0.0011840000   -0.0000000000
H        0.1443660000   -0.0007340000   -0.0000000000
H        0.1455480000   -0.0033140000   -0.0000000000
H        0.1435660000   -0.0022370000    0.0000000000
H        0.1492620000    0.0010350000   -0.0000000000
C       -0.1353730000    0.1024920000    0.0000000000
H        0.1461100000   -0.0038850000    0.0000000000
13   
From optimize.out: Frame 12 / 17, Energy=    -286.8240733316
C       -0.0445770000   -0.0796900000   -0.0000000000
C       -0.1210160000    0.0787520000   -0.0000000000
C       -0.1296070000    0.0954590000   -0.0000000000
C       -0.1191360000    0.0878330000   -0.0000000000
C       -0.0455640000   -0.0808050000   -0.0000000000
N       -0.2857290000    0.8116870000   -0.0000000000
H        0.1491530000    0.0011060000   -0.0000000000
H        0.1439740000   -0.0014260000   -0.0000000000
H        0.1444170000   -0.0028620000   -0.0000000000
H        0.1435400000   -0.0023250000    0.0000000000
H        0.1493730000    0.0010270000   -0.0000000000
C       -0.1300610000    0.0945770000    0.0000000000
H        0.1452320000   -0.0033340000    0.0000000000
13   
From optimize.out: Frame 13 / 17, Energy=    -286.8248426888
C       -0.0457870000   -0.0791290000   -0.0000000000
C       -0.1231320000    0.0841610000   -0.0000000000
C       -0.1265540000    0.0916790000   -0.0000000000
C       -0.1238340000    0.0901470000   -0.0000000000
C       -0.0438950000   -0.0809120000   -0.0000000000
N       -0.2859130000    0.8128650000   -0.0000000000
H        0.1492130000    0.0010630000   -0.0000000000
H        0.1438440000   -0.0020930000   -0.0000000000
H        0.1438290000   -0.0024600000   -0.0000000000
H        0.1437630000   -0.0024610000    0.0000000000
H        0.1494690000    0.0010300000   -0.0000000000
C       -0.1253700000    0.0888930000    0.0000000000
H        0.1443660000   -0.0027830000    0.0000000000
13   
From optimize.out: Frame 14 / 17, Energy=    -286.8249337534
C       -0.0456160000   -0.0795300000   -0.0000000000
C       -0.1241130000    0.0865500000   -0.0000000000
C       -0.1254220000    0.0902310000   -0.0000000000
C       -0.1250710000    0.0902590000   -0.0000000000
C       -0.0438750000   -0.0807210000   -0.0000000000
N       -0.2859370000    0.8123280000   -0.0000000000
H        0.1492540000    0.0010540000   -0.0000000000
H        0.1438820000   -0.0023280000   -0.0000000000
H        0.1438380000   -0.0024120000   -0.0000000000
H        0.1439180000   -0.0024880000    0.0000000000
H        0.1494240000    0.0010380000   -0.0000000000
C       -0.1243600000    0.0886320000    0.0000000000
H        0.1440780000   -0.0026120000    0.0000000000
13   
From optimize.out: Frame 15 / 17, Energy=    -286.8249579261
C       -0.0452750000   -0.0800200000   -0.0000000000
C       -0.1244040000    0.0881110000   -0.0000000000
C       -0.1250480000    0.0894810000   -0.0000000000
C       -0.1251270000    0.0897930000   -0.0000000000
C       -0.0442580000   -0.0804940000   -0.0000000000
N       -0.2859440000    0.8117280000   -0.0000000000
H        0.1492800000    0.0010490000   -0.0000000000
H        0.1439380000   -0.0024500000   -0.0000000000
H        0.1439000000   -0.0024400000   -0.0000000000
H        0.1439910000   -0.0024950000    0.0000000000
H        0.1493730000    0.0010430000   -0.0000000000
C       -0.1243770000    0.0892300000    0.0000000000
H        0.1439510000   -0.0025360000    0.0000000000
13   
From optimize.out: Frame 16 / 17, Energy=    -286.8249620093
C       -0.0448260000   -0.0803430000   -0.0000000000
C       -0.1249760000    0.0891350000   -0.0000000000
C       -0.1247710000    0.0893660000   -0.0000000000
C       -0.1250580000    0.0890450000   -0.0000000000
C       -0.0446850000   -0.0802710000   -0.0000000000
N       -0.2858600000    0.8113900000   -0.0000000000
H        0.1492910000    0.0010470000   -0.0000000000
H        0.1440210000   -0.0024740000   -0.0000000000
H        0.1440230000   -0.0024980000   -0.0000000000
H        0.1440200000   -0.0024730000    0.0000000000
H        0.1493140000    0.0010460000   -0.0000000000
C       -0.1244580000    0.0895370000    0.0000000000
H        0.1439660000   -0.0025060000    0.0000000000
