13   
From optimize.out: Frame 1 / 10, Energy=    -286.8274221311
C       -0.1050240000   -0.0350430000    0.0000000000
C       -0.0595960000    0.0704570000   -0.0000000000
C       -0.1375260000    0.0940200000   -0.0000000000
C       -0.2146340000   -0.0499140000    0.0000000000
C        0.0944960000    0.0057010000   -0.0000000000
N       -0.3357420000   -0.0016250000   -0.0000000000
H        0.1399320000    0.0026380000    0.0000000000
H        0.1542980000   -0.0036200000   -0.0000000000
H        0.1540420000    0.0000020000   -0.0000000000
H        0.1290230000    0.0042720000   -0.0000000000
H        0.1467040000   -0.0005210000   -0.0000000000
C       -0.1060790000    0.9359800000    0.0000000000
H        0.1401050000   -0.0223460000    0.0000000000
13   
From optimize.out: Frame 2 / 10, Energy=    -286.8386978375
C       -0.0987000000   -0.0367000000    0.0000000000
C       -0.0739380000    0.0601100000   -0.0000000000
C       -0.1243250000    0.0922330000   -0.0000000000
C       -0.2286410000   -0.0468690000    0.0000000000
C        0.0961220000    0.0017210000   -0.0000000000
N       -0.3328040000    0.0024070000   -0.0000000000
H        0.1413660000    0.0027150000    0.0000000000
H        0.1512770000   -0.0021540000   -0.0000000000
H        0.1530420000   -0.0007810000   -0.0000000000
H        0.1305970000    0.0037090000   -0.0000000000
H        0.1479660000   -0.0005380000   -0.0000000000
C       -0.1008250000    0.9471680000    0.0000000000
H        0.1388610000   -0.0230210000    0.0000000000
13   
From optimize.out: Frame 3 / 10, Energy=    -286.8455455059
C       -0.0955470000   -0.0385400000    0.0000000000
C       -0.0825520000    0.0550090000   -0.0000000000
C       -0.1120720000    0.0860630000   -0.0000000000
C       -0.2366760000   -0.0437160000    0.0000000000
C        0.0954170000   -0.0022620000   -0.0000000000
N       -0.3290110000    0.0075230000   -0.0000000000
H        0.1409260000    0.0028470000    0.0000000000
H        0.1489540000   -0.0010350000   -0.0000000000
H        0.1508960000   -0.0010130000   -0.0000000000
H        0.1315560000    0.0033600000    0.0000000000
H        0.1477970000   -0.0004510000   -0.0000000000
C       -0.0978040000    0.9554620000    0.0000000000
H        0.1381160000   -0.0232470000    0.0000000000
13   
From optimize.out: Frame 4 / 10, Energy=    -286.8493441340
C       -0.0936070000   -0.0404700000    0.0000000000
C       -0.0875160000    0.0518490000   -0.0000000000
C       -0.1026480000    0.0802650000   -0.0000000000
C       -0.2417380000   -0.0418510000    0.0000000000
C        0.0939030000   -0.0052580000   -0.0000000000
N       -0.3269570000    0.0123180000   -0.0000000000
H        0.1406630000    0.0029780000    0.0000000000
H        0.1476800000   -0.0000810000   -0.0000000000
H        0.1485290000   -0.0007690000   -0.0000000000
H        0.1324980000    0.0030970000    0.0000000000
H        0.1486020000   -0.0003460000   -0.0000000000
C       -0.0970830000    0.9620030000    0.0000000000
H        0.1376740000   -0.0237340000    0.0000000000
13   
From optimize.out: Frame 5 / 10, Energy=    -286.8511322306
C       -0.0931600000   -0.0424570000    0.0000000000
C       -0.0897560000    0.0480030000   -0.0000000000
C       -0.0964980000    0.0768830000   -0.0000000000
C       -0.2448860000   -0.0415580000    0.0000000000
C        0.0924400000   -0.0074690000   -0.0000000000
N       -0.3252590000    0.0167870000   -0.0000000000
H        0.1400300000    0.0030220000    0.0000000000
H        0.1467350000    0.0005280000   -0.0000000000
H        0.1468140000   -0.0002530000   -0.0000000000
H        0.1334010000    0.0029590000    0.0000000000
H        0.1491050000   -0.0002470000   -0.0000000000
C       -0.0968660000    0.9681890000    0.0000000000
H        0.1379010000   -0.0243870000    0.0000000000
13   
From optimize.out: Frame 6 / 10, Energy=    -286.8516082808
C       -0.0928630000   -0.0439590000    0.0000000000
C       -0.0895150000    0.0410230000   -0.0000000000
C       -0.0948280000    0.0796590000   -0.0000000000
C       -0.2463110000   -0.0425840000    0.0000000000
C        0.0922330000   -0.0092070000   -0.0000000000
N       -0.3252150000    0.0207000000   -0.0000000000
H        0.1398880000    0.0030930000    0.0000000000
H        0.1464430000    0.0010570000   -0.0000000000
H        0.1456630000    0.0001780000   -0.0000000000
H        0.1339330000    0.0028730000    0.0000000000
H        0.1497090000   -0.0001610000   -0.0000000000
C       -0.0976220000    0.9727220000    0.0000000000
H        0.1384850000   -0.0253920000    0.0000000000
13   
From optimize.out: Frame 7 / 10, Energy=    -286.8516202451
C       -0.0938920000   -0.0447600000    0.0000000000
C       -0.0886800000    0.0423160000   -0.0000000000
C       -0.0955090000    0.0770500000   -0.0000000000
C       -0.2466480000   -0.0431850000    0.0000000000
C        0.0920040000   -0.0083180000   -0.0000000000
N       -0.3248240000    0.0206410000   -0.0000000000
H        0.1397130000    0.0030450000    0.0000000000
H        0.1460610000    0.0008570000   -0.0000000000
H        0.1455660000    0.0005310000   -0.0000000000
H        0.1342630000    0.0028920000    0.0000000000
H        0.1497890000   -0.0001990000   -0.0000000000
C       -0.0964320000    0.9752020000    0.0000000000
H        0.1385900000   -0.0260720000    0.0000000000
13   
From optimize.out: Frame 8 / 10, Energy=    -286.8516669333
C       -0.0937790000   -0.0446390000    0.0000000000
C       -0.0885790000    0.0407180000   -0.0000000000
C       -0.0955570000    0.0791980000   -0.0000000000
C       -0.2463050000   -0.0433670000    0.0000000000
C        0.0922390000   -0.0088460000   -0.0000000000
N       -0.3251210000    0.0212920000   -0.0000000000
H        0.1397630000    0.0030470000    0.0000000000
H        0.1461650000    0.0009010000   -0.0000000000
H        0.1456530000    0.0003670000   -0.0000000000
H        0.1340060000    0.0028750000    0.0000000000
H        0.1496740000   -0.0001760000   -0.0000000000
C       -0.0968290000    0.9746840000    0.0000000000
H        0.1386700000   -0.0260540000    0.0000000000
13   
From optimize.out: Frame 9 / 10, Energy=    -286.8516701831
C       -0.0939450000   -0.0447550000    0.0000000000
C       -0.0883500000    0.0405370000   -0.0000000000
C       -0.0957660000    0.0795040000   -0.0000000000
C       -0.2462390000   -0.0435790000    0.0000000000
C        0.0923180000   -0.0087830000   -0.0000000000
N       -0.3252340000    0.0214230000   -0.0000000000
H        0.1397890000    0.0030480000    0.0000000000
H        0.1461540000    0.0008890000   -0.0000000000
H        0.1456270000    0.0003430000   -0.0000000000
H        0.1339580000    0.0028720000    0.0000000000
H        0.1497050000   -0.0001780000   -0.0000000000
C       -0.0967460000    0.9749380000    0.0000000000
H        0.1387290000   -0.0262580000    0.0000000000
