13   
From optimize.out: Frame 1 / 18, Energy=    -286.6557927704
C        1.6329386129    0.3806114728   -1.7914611614
C        0.7919354169   -0.9768722699   -1.5283684801
C       -0.6343265214   -0.6252005727   -1.9787808839
C       -1.1628151458    0.3260693158   -0.6267483545
C       -0.5655396680    0.7101944240   -2.1254713781
N        0.6991759367    1.2623186985   -2.0500214324
H        2.6956995944    0.3692470724   -2.0621263511
H        1.1001163427   -2.0442628587   -1.5196584163
H       -1.1489813788   -1.0742289367   -2.9240055991
H       -2.1490075244    0.6884039843   -0.3926642368
H       -1.4821817065    1.1848590060   -2.5225765675
C       -0.7585898811   -1.1056784850   -0.3329355792
H       -0.7362219036   -1.9062526704    0.2885804681
13   
From optimize.out: Frame 2 / 18, Energy=    -286.6980225546
C        1.5801773380    0.3508576359   -1.7918057760
C        0.7806315581   -0.9818714257   -1.5386048967
C       -0.6249420694   -0.6498152781   -1.9901414945
C       -1.1577565546    0.3261587686   -0.6283603334
C       -0.5660933524    0.7363792208   -2.1201999356
N        0.7065338830    1.2814453453   -2.0554301368
H        2.6451806097    0.3480654801   -2.0284096182
H        1.1027750762   -2.0337034307   -1.5206236920
H       -1.1345579245   -1.1192739019   -2.8976680724
H       -2.1523477756    0.6782009577   -0.3917617148
H       -1.4591265315    1.2342513076   -2.5214207931
C       -0.7332892284   -1.0832025508   -0.3636867922
H       -0.7049828545   -1.8982839485    0.2818752833
13   
From optimize.out: Frame 3 / 18, Energy=    -286.7302530169
C        1.5430841615    0.3178145662   -1.7846645887
C        0.7724205485   -0.9804520671   -1.5494427643
C       -0.6206917648   -0.6754163034   -2.0018206893
C       -1.1546513780    0.3374328454   -0.6241674620
C       -0.5781775480    0.7479675579   -2.1093208292
N        0.7103716918    1.2794814654   -2.0568043643
H        2.6125916398    0.3294211360   -1.9884249536
H        1.1120353104   -2.0178921555   -1.5242835081
H       -1.1253342957   -1.1620300343   -2.8761782775
H       -2.1523302093    0.6826788367   -0.3787877146
H       -1.4520166201    1.2604268722   -2.5162698263
C       -0.7098366437   -1.0541709981   -0.4076728890
H       -0.6752627184   -1.8760535408    0.2515998946
13   
From optimize.out: Frame 4 / 18, Energy=    -286.7572147449
C        1.5154816099    0.2921559483   -1.7803927101
C        0.7664580958   -0.9830634591   -1.5589246583
C       -0.6177274819   -0.7053562508   -2.0143276149
C       -1.1514577374    0.3562565773   -0.6157745397
C       -0.5928846664    0.7524147954   -2.0946312464
N        0.7117466687    1.2754182424   -2.0535036741
H        2.5893479122    0.3225913799   -1.9512865300
H        1.1231241728   -2.0095984147   -1.5258746214
H       -1.1168025546   -1.2112430964   -2.8656537772
H       -2.1471283399    0.7004580875   -0.3565831185
H       -1.4502182422    1.2780121597   -2.5091459870
C       -0.6922475098   -1.0262284033   -0.4553856964
H       -0.6554897531   -1.8526093858    0.2152462017
13   
From optimize.out: Frame 5 / 18, Energy=    -286.7798007994
C        1.4952866814    0.2741449346   -1.7783178593
C        0.7614862327   -0.9893450748   -1.5691538750
C       -0.6159145162   -0.7371034261   -2.0304003101
C       -1.1469167864    0.3775635975   -0.6048929928
C       -0.6092551207    0.7520775594   -2.0778845282
N        0.7113239603    1.2701664980   -2.0502471486
H        2.5729263109    0.3242041450   -1.9139467438
H        1.1343325736   -2.0066726154   -1.5277831689
H       -1.1081597510   -1.2623795549   -2.8641159796
H       -2.1371167741    0.7239811056   -0.3267000813
H       -1.4512045264    1.2901416981   -2.5022258018
C       -0.6797310694   -0.9997390522   -0.5012096498
H       -0.6448550408   -1.8278316343    0.1806401670
13   
From optimize.out: Frame 6 / 18, Energy=    -286.7978675367
C        1.4794032275    0.2622107802   -1.7783387557
C        0.7563366934   -0.9972900887   -1.5795153030
C       -0.6161407872   -0.7681036292   -2.0515973854
C       -1.1387856091    0.3980917728   -0.5925742910
C       -0.6261928959    0.7491763452   -2.0603721213
N        0.7087547020    1.2649859087   -2.0503178421
H        2.5602968299    0.3308150202   -1.8736168711
H        1.1462563807   -2.0061332716   -1.5287894657
H       -1.1024821647   -1.3114706900   -2.8700293425
H       -2.1212342237    0.7473546097   -0.2909090139
H       -1.4523506605    1.2989845370   -2.4993642686
C       -0.6701209259   -0.9760164726   -0.5415476193
H       -0.6415383926   -1.8033966413    0.1507343072
13   
From optimize.out: Frame 7 / 18, Energy=    -286.8115066420
C        1.4658748135    0.2555903233   -1.7797566342
C        0.7497359588   -1.0046132752   -1.5880430266
C       -0.6191500107   -0.7961265942   -2.0766846651
C       -1.1255446432    0.4163427984   -0.5793811760
C       -0.6426561113    0.7454750172   -2.0439886123
N        0.7040437833    1.2606691169   -2.0551667637
H        2.5489465374    0.3402249840   -1.8297112636
H        1.1582450743   -2.0049501456   -1.5274885245
H       -1.1025768224   -1.3557161315   -2.8806923530
H       -2.0986196784    0.7673982484   -0.2508021391
H       -1.4513766356    1.3047635368   -2.5047601653
C       -0.6610340332   -0.9567885723   -0.5748461603
H       -0.6436860586   -1.7830611258    0.1250835114
13   
From optimize.out: Frame 8 / 18, Energy=    -286.8212546052
C        1.4540517774    0.2535320596   -1.7822134944
C        0.7412054057   -1.0098271437   -1.5924872831
C       -0.6242248110   -0.8193057299   -2.1024633380
C       -1.1075912225    0.4320196629   -0.5658920847
C       -0.6581718010    0.7422475979   -2.0302733436
N        0.6974947845    1.2577427347   -2.0636174493
H        2.5376425987    0.3506178623   -1.7851439632
H        1.1690671191   -2.0016484902   -1.5236763073
H       -1.1078430264   -1.3935827262   -2.8923659149
H       -2.0703400403    0.7826281872   -0.2082299745
H       -1.4475186599    1.3069405474   -2.5200689642
C       -0.6504944088   -0.9426237269   -0.6013576458
H       -0.6510755416   -1.7695326546    0.1015517906
13   
From optimize.out: Frame 9 / 18, Energy=    -286.8278076020
C        1.4444387431    0.2547866326   -1.7856059697
C        0.7316247670   -1.0125224285   -1.5912243806
C       -0.6296806073   -0.8363564264   -2.1255282993
C       -1.0873642808    0.4451859708   -0.5531719379
C       -0.6725645872    0.7400862225   -2.0202446605
N        0.6899579022    1.2560255140   -2.0736239306
H        2.5268825876    0.3609143099   -1.7450610979
H        1.1782615873   -1.9964227417   -1.5191445547
H       -1.1154953812   -1.4247636953   -2.9013543963
H       -2.0398272863    0.7919695401   -0.1659522539
H       -1.4412520384    1.3062318089   -2.5428435283
C       -0.6371701688   -0.9329045883   -0.6213907412
H       -0.6656090631   -1.7630219383    0.0789077786
13   
From optimize.out: Frame 10 / 18, Energy=    -286.8319094626
C        1.4378942071    0.2578591954   -1.7892437363
C        0.7229009805   -1.0132699050   -1.5842802188
C       -0.6339227328   -0.8469577975   -2.1433496980
C       -1.0683737635    0.4556634750   -0.5430155597
C       -0.6853194141    0.7387019800   -2.0146588917
N        0.6828108207    1.2548402699   -2.0833049449
H        2.5182321736    0.3708140194   -1.7143077902
H        1.1862582201   -1.9906805039   -1.5175061366
H       -1.1226005418   -1.4498697445   -2.9049222996
H       -2.0116926488    0.7948047584   -0.1280163063
H       -1.4340441775    1.3049076914   -2.5672016989
C       -0.6206651873   -0.9264606318   -0.6344576750
H       -0.6892757622   -1.7611446261    0.0580269836
13   
From optimize.out: Frame 11 / 18, Energy=    -286.8343489065
C        1.4342374768    0.2614873779   -1.7916587435
C        0.7164243869   -1.0132848618   -1.5737179091
C       -0.6365098266   -0.8519851036   -2.1554513272
C       -1.0529709470    0.4634709673   -0.5368640422
C       -0.6960103258    0.7374177855   -2.0133847069
N        0.6770903261    1.2535925799   -2.0915028910
H        2.5124486150    0.3800703180   -1.6936103325
H        1.1937195818   -1.9858313257   -1.5216217424
H       -1.1277952657   -1.4701137597   -2.9024091267
H       -1.9887308400    0.7919475632   -0.0972826360
H       -1.4275520244    1.3049028102   -2.5882492160
C       -0.6017160276   -0.9222499600   -0.6408580789
H       -0.7204329557   -1.7602162108    0.0403727800
13   
From optimize.out: Frame 12 / 18, Energy=    -286.8357281060
C        1.4323918469    0.2648966750   -1.7922497808
C        0.7123012774   -1.0136866434   -1.5617850116
C       -0.6379156460   -0.8523010330   -2.1630796570
C       -1.0414280568    0.4691264813   -0.5348936032
C       -0.7049526370    0.7359214898   -2.0153695910
N        0.6729240016    1.2520776680   -2.0979002364
H        2.5088797586    0.3883686303   -1.6800146327
H        1.2011963568   -1.9822781650   -1.5320275486
H       -1.1312756697   -1.4866522334   -2.8944809122
H       -1.9708515159    0.7847421966   -0.0734400103
H       -1.4221910233    1.3065162588   -2.6054386755
C       -0.5815472652   -0.9197641129   -0.6419717726
H       -0.7553292534   -1.7577590317    0.0264134595
13   
From optimize.out: Frame 13 / 18, Energy=    -286.8363403087
C        1.4312816657    0.2678666661   -1.7905732383
C        0.7101407494   -1.0152119377   -1.5499882495
C       -0.6386810473   -0.8475939670   -2.1674794304
C       -1.0335143496    0.4731362104   -0.5373941879
C       -0.7126634785    0.7340026408   -2.0199342041
N        0.6701999419    1.2504648335   -2.1020719976
H        2.5065878015    0.3952913363   -1.6707265939
H        1.2091813577   -1.9797135463   -1.5492606221
H       -1.1338280145   -1.5002357082   -2.8808778300
H       -1.9571587675    0.7739086494   -0.0553336475
H       -1.4171487210    1.3094044666   -2.6205386902
C       -0.5614936431   -0.9190119802   -0.6387387995
H       -0.7907013207   -1.7530994834    0.0166795188
13   
From optimize.out: Frame 14 / 18, Energy=    -286.8364461019
C        1.4306222236    0.2685219563   -1.7882977223
C        0.7098009787   -1.0163315063   -1.5478088140
C       -0.6388389804   -0.8427630033   -2.1679005110
C       -1.0336723988    0.4734894421   -0.5412762627
C       -0.7142811604    0.7330798214   -2.0225123341
N        0.6703655992    1.2504662859   -2.1009749577
H        2.5061718236    0.3954313902   -1.6701605032
H        1.2117478755   -1.9792202837   -1.5563967608
H       -1.1351312957   -1.5020164092   -2.8741687199
H       -1.9557836911    0.7695528846   -0.0534258010
H       -1.4148133249    1.3111351025   -2.6248751303
C       -0.5579023719   -0.9198721079   -0.6363095702
H       -0.7960831036   -1.7522653923    0.0178691150
13   
From optimize.out: Frame 15 / 18, Energy=    -286.8364891706
C        1.4302755101    0.2687485094   -1.7858395797
C        0.7094678730   -1.0163736086   -1.5474545560
C       -0.6384260486   -0.8384513027   -2.1678782294
C       -1.0361400234    0.4724941358   -0.5453192689
C       -0.7148684447    0.7316919287   -2.0238270880
N        0.6712472059    1.2512449839   -2.0978519955
H        2.5068037456    0.3928866159   -1.6735654029
H        1.2125541422   -1.9783806723   -1.5585044363
H       -1.1362399892   -1.5005156870   -2.8702778237
H       -1.9573348864    0.7671820169   -0.0547669983
H       -1.4131905745    1.3118477839   -2.6264473959
C       -0.5576558733   -0.9206263845   -0.6350080419
H       -0.7942904629   -1.7525401389    0.0205028441
13   
From optimize.out: Frame 16 / 18, Energy=    -286.8364947400
C        1.4306176316    0.2687857786   -1.7855405514
C        0.7096097389   -1.0160920537   -1.5477722624
C       -0.6381128886   -0.8377373250   -2.1676554453
C       -1.0371741093    0.4717758484   -0.5460384718
C       -0.7149801029    0.7307665691   -2.0240628175
N        0.6716592585    1.2513865788   -2.0980255485
H        2.5071697374    0.3925274831   -1.6729205383
H        1.2120234358   -1.9784532841   -1.5587026853
H       -1.1372913792   -1.4986251017   -2.8701957860
H       -1.9576972736    0.7680107370   -0.0552448377
H       -1.4133747041    1.3109146423   -2.6265971701
C       -0.5581559383   -0.9209343778   -0.6348382205
H       -0.7920912323   -1.7531173145    0.0213563625
13   
From optimize.out: Frame 17 / 18, Energy=    -286.8364975756
C        1.4307332632    0.2689577096   -1.7851984635
C        0.7097630743   -1.0157662712   -1.5475668159
C       -0.6374964511   -0.8378278863   -2.1678192928
C       -1.0378948110    0.4711849405   -0.5462966798
C       -0.7152721673    0.7296013299   -2.0238549113
N        0.6718261493    1.2518157324   -2.0973561336
H        2.5074392357    0.3925241028   -1.6738956404
H        1.2115789958   -1.9784760817   -1.5573154210
H       -1.1378187008   -1.4970284495   -2.8710608911
H       -1.9572278171    0.7696717466   -0.0548252707
H       -1.4135794238    1.3095295411   -2.6267141861
C       -0.5586298114   -0.9212221376   -0.6352958257
H       -0.7912193620   -1.7537560963    0.0209615596
