13   
From optimize.out: Frame 1 / 18, Energy=    -286.6557927704
C        0.0575070000    0.0208720000   -0.0000000000
C       -0.1975080000   -0.0078590000   -0.0000000000
C       -0.1482220000   -0.0733480000   -0.0000000000
C       -0.1839230000    0.6326630000   -0.0000000000
C        0.0250060000    0.0432650000   -0.0000000000
N       -0.3473420000    0.0082870000   -0.0000000000
H        0.1731660000    0.0068450000   -0.0000000000
H        0.1458750000    0.0033070000   -0.0000000000
H        0.1502710000    0.0084500000   -0.0000000000
H        0.1545210000   -0.0270220000   -0.0000000000
H        0.1685780000   -0.0024660000   -0.0000000000
C       -0.1665890000    0.4129180000   -0.0000000000
H        0.1686590000   -0.0259120000    0.0000000000
13   
From optimize.out: Frame 2 / 18, Energy=    -286.6980225546
C        0.0637890000    0.0194170000   -0.0000000000
C       -0.1918730000   -0.0010650000   -0.0000000000
C       -0.1497250000   -0.0648660000   -0.0000000000
C       -0.1858550000    0.6847730000   -0.0000000000
C        0.0087280000    0.0468810000   -0.0000000000
N       -0.3412130000    0.0052190000   -0.0000000000
H        0.1630860000    0.0056070000   -0.0000000000
H        0.1502570000    0.0030940000   -0.0000000000
H        0.1538500000    0.0122020000   -0.0000000000
H        0.1515520000   -0.0301680000   -0.0000000000
H        0.1654830000   -0.0035620000   -0.0000000000
C       -0.1622240000    0.3451840000   -0.0000000000
H        0.1741460000   -0.0227170000    0.0000000000
13   
From optimize.out: Frame 3 / 18, Energy=    -286.7302530169
C        0.0723830000    0.0076340000   -0.0000000000
C       -0.1892870000    0.0181570000   -0.0000000000
C       -0.1470000000   -0.0418960000   -0.0000000000
C       -0.1845370000    0.7602410000   -0.0000000000
C       -0.0050030000    0.0457160000   -0.0000000000
N       -0.3416730000    0.0046260000   -0.0000000000
H        0.1567220000    0.0051640000   -0.0000000000
H        0.1512710000    0.0023510000   -0.0000000000
H        0.1519760000    0.0191420000   -0.0000000000
H        0.1493770000   -0.0353080000   -0.0000000000
H        0.1624390000   -0.0044350000   -0.0000000000
C       -0.1513870000    0.2356430000   -0.0000000000
H        0.1747210000   -0.0170360000    0.0000000000
13   
From optimize.out: Frame 4 / 18, Energy=    -286.7572147449
C        0.0807250000   -0.0079590000   -0.0000000000
C       -0.1900480000    0.0414190000   -0.0000000000
C       -0.1432100000   -0.0065460000   -0.0000000000
C       -0.1763450000    0.8302650000   -0.0000000000
C       -0.0185040000    0.0346930000   -0.0000000000
N       -0.3437810000    0.0117970000   -0.0000000000
H        0.1524350000    0.0048750000   -0.0000000000
H        0.1513850000    0.0013560000   -0.0000000000
H        0.1479250000    0.0235940000   -0.0000000000
H        0.1476150000   -0.0399420000   -0.0000000000
H        0.1588610000   -0.0040850000   -0.0000000000
C       -0.1407600000    0.1213950000   -0.0000000000
H        0.1737010000   -0.0108620000    0.0000000000
13   
From optimize.out: Frame 5 / 18, Energy=    -286.7798007994
C        0.0873940000   -0.0166720000   -0.0000000000
C       -0.1920530000    0.0593050000   -0.0000000000
C       -0.1389970000    0.0273240000   -0.0000000000
C       -0.1606640000    0.8762540000   -0.0000000000
C       -0.0324860000    0.0168200000   -0.0000000000
N       -0.3461980000    0.0218650000   -0.0000000000
H        0.1491510000    0.0045720000   -0.0000000000
H        0.1512770000    0.0005710000   -0.0000000000
H        0.1453740000    0.0237140000   -0.0000000000
H        0.1464200000   -0.0424480000   -0.0000000000
H        0.1551650000   -0.0024900000   -0.0000000000
C       -0.1354370000    0.0374900000   -0.0000000000
H        0.1710540000   -0.0063030000    0.0000000000
13   
From optimize.out: Frame 6 / 18, Energy=    -286.7978675367
C        0.0926270000   -0.0182910000   -0.0000000000
C       -0.1940690000    0.0697530000   -0.0000000000
C       -0.1334920000    0.0522690000   -0.0000000000
C       -0.1406160000    0.9029320000   -0.0000000000
C       -0.0472840000   -0.0011880000   -0.0000000000
N       -0.3475630000    0.0287680000   -0.0000000000
H        0.1465520000    0.0043180000   -0.0000000000
H        0.1511390000    0.0001310000   -0.0000000000
H        0.1445620000    0.0216040000   -0.0000000000
H        0.1456080000   -0.0432640000   -0.0000000000
H        0.1515130000   -0.0004280000   -0.0000000000
C       -0.1360860000   -0.0130430000   -0.0000000000
H        0.1671090000   -0.0035610000    0.0000000000
13   
From optimize.out: Frame 7 / 18, Energy=    -286.8115066420
C        0.0968600000   -0.0159900000   -0.0000000000
C       -0.1956400000    0.0736350000   -0.0000000000
C       -0.1270440000    0.0692790000   -0.0000000000
C       -0.1202000000    0.9184410000   -0.0000000000
C       -0.0618000000   -0.0157330000   -0.0000000000
N       -0.3475550000    0.0311280000   -0.0000000000
H        0.1446420000    0.0041620000   -0.0000000000
H        0.1508880000   -0.0000330000   -0.0000000000
H        0.1446870000    0.0191610000   -0.0000000000
H        0.1449020000   -0.0429640000   -0.0000000000
H        0.1481170000    0.0014860000   -0.0000000000
C       -0.1404910000   -0.0405290000   -0.0000000000
H        0.1626360000   -0.0020450000    0.0000000000
13   
From optimize.out: Frame 8 / 18, Energy=    -286.8212546052
C        0.1000030000   -0.0119330000   -0.0000000000
C       -0.1965030000    0.0720720000   -0.0000000000
C       -0.1207740000    0.0808330000   -0.0000000000
C       -0.1024780000    0.9284110000   -0.0000000000
C       -0.0745390000   -0.0261790000   -0.0000000000
N       -0.3465640000    0.0297760000   -0.0000000000
H        0.1434280000    0.0040850000   -0.0000000000
H        0.1504620000    0.0000200000   -0.0000000000
H        0.1451860000    0.0170450000   -0.0000000000
H        0.1441440000   -0.0419250000   -0.0000000000
H        0.1453180000    0.0029710000   -0.0000000000
C       -0.1459800000   -0.0539450000   -0.0000000000
H        0.1582970000   -0.0012310000    0.0000000000
13   
From optimize.out: Frame 9 / 18, Energy=    -286.8278076020
C        0.1017150000   -0.0072960000   -0.0000000000
C       -0.1965720000    0.0664360000   -0.0000000000
C       -0.1156510000    0.0887260000   -0.0000000000
C       -0.0889520000    0.9360100000   -0.0000000000
C       -0.0844410000   -0.0331300000   -0.0000000000
N       -0.3450480000    0.0260690000   -0.0000000000
H        0.1428850000    0.0040430000   -0.0000000000
H        0.1498970000    0.0002520000   -0.0000000000
H        0.1458230000    0.0152710000   -0.0000000000
H        0.1433060000   -0.0405290000   -0.0000000000
H        0.1433990000    0.0039790000   -0.0000000000
C       -0.1508880000   -0.0590580000   -0.0000000000
H        0.1545290000   -0.0007730000    0.0000000000
13   
From optimize.out: Frame 10 / 18, Energy=    -286.8319094626
C        0.1018350000   -0.0030630000   -0.0000000000
C       -0.1959440000    0.0586090000   -0.0000000000
C       -0.1121670000    0.0943930000   -0.0000000000
C       -0.0798750000    0.9423190000   -0.0000000000
C       -0.0911690000   -0.0374370000   -0.0000000000
N       -0.3432230000    0.0216760000   -0.0000000000
H        0.1428960000    0.0040150000   -0.0000000000
H        0.1493090000    0.0005900000   -0.0000000000
H        0.1465470000    0.0137050000   -0.0000000000
H        0.1424170000   -0.0392260000   -0.0000000000
H        0.1423680000    0.0045720000   -0.0000000000
C       -0.1546580000   -0.0596920000   -0.0000000000
H        0.1516620000   -0.0004620000    0.0000000000
13   
From optimize.out: Frame 11 / 18, Energy=    -286.8343489065
C        0.1006930000    0.0002450000   -0.0000000000
C       -0.1948120000    0.0504120000   -0.0000000000
C       -0.1102470000    0.0990230000   -0.0000000000
C       -0.0744980000    0.9473800000   -0.0000000000
C       -0.0952660000   -0.0399940000   -0.0000000000
N       -0.3411690000    0.0178280000   -0.0000000000
H        0.1432310000    0.0039840000   -0.0000000000
H        0.1488490000    0.0009340000   -0.0000000000
H        0.1473610000    0.0122420000   -0.0000000000
H        0.1415050000   -0.0383560000   -0.0000000000
H        0.1419310000    0.0048640000   -0.0000000000
C       -0.1574350000   -0.0583720000   -0.0000000000
H        0.1498590000   -0.0001900000    0.0000000000
13   
From optimize.out: Frame 12 / 18, Energy=    -286.8357281060
C        0.0988080000    0.0027140000   -0.0000000000
C       -0.1934470000    0.0428250000   -0.0000000000
C       -0.1095050000    0.1032520000   -0.0000000000
C       -0.0717860000    0.9510360000   -0.0000000000
C       -0.0975460000   -0.0415040000   -0.0000000000
N       -0.3389970000    0.0148870000   -0.0000000000
H        0.1436720000    0.0039470000   -0.0000000000
H        0.1486070000    0.0012190000   -0.0000000000
H        0.1482510000    0.0108240000   -0.0000000000
H        0.1405810000   -0.0380030000   -0.0000000000
H        0.1417820000    0.0049790000   -0.0000000000
C       -0.1594830000   -0.0562430000   -0.0000000000
H        0.1490620000    0.0000670000    0.0000000000
13   
From optimize.out: Frame 13 / 18, Energy=    -286.8363403087
C        0.0965730000    0.0046180000   -0.0000000000
C       -0.1921660000    0.0362540000   -0.0000000000
C       -0.1093590000    0.1072530000   -0.0000000000
C       -0.0710850000    0.9529650000   -0.0000000000
C       -0.0985960000   -0.0423450000   -0.0000000000
N       -0.3368070000    0.0128210000   -0.0000000000
H        0.1440550000    0.0039130000   -0.0000000000
H        0.1486210000    0.0014200000   -0.0000000000
H        0.1492060000    0.0094040000   -0.0000000000
H        0.1396260000   -0.0381620000   -0.0000000000
H        0.1417890000    0.0050180000   -0.0000000000
C       -0.1610240000   -0.0534520000   -0.0000000000
H        0.1491670000    0.0002910000    0.0000000000
13   
From optimize.out: Frame 14 / 18, Energy=    -286.8364461019
C        0.0961260000    0.0052410000   -0.0000000000
C       -0.1920330000    0.0350390000   -0.0000000000
C       -0.1088780000    0.1081210000   -0.0000000000
C       -0.0713840000    0.9524060000   -0.0000000000
C       -0.0988090000   -0.0423600000   -0.0000000000
N       -0.3363800000    0.0124420000   -0.0000000000
H        0.1439650000    0.0039060000   -0.0000000000
H        0.1487050000    0.0014490000   -0.0000000000
H        0.1494950000    0.0089910000   -0.0000000000
H        0.1392980000   -0.0384620000   -0.0000000000
H        0.1419090000    0.0050590000   -0.0000000000
C       -0.1615310000   -0.0521300000   -0.0000000000
H        0.1495170000    0.0002970000    0.0000000000
13   
From optimize.out: Frame 15 / 18, Energy=    -286.8364891706
C        0.0962460000    0.0057570000   -0.0000000000
C       -0.1920480000    0.0349050000   -0.0000000000
C       -0.1079880000    0.1084810000   -0.0000000000
C       -0.0715940000    0.9514410000   -0.0000000000
C       -0.0991960000   -0.0423920000   -0.0000000000
N       -0.3366360000    0.0123970000   -0.0000000000
H        0.1438040000    0.0039160000   -0.0000000000
H        0.1487140000    0.0014430000   -0.0000000000
H        0.1496430000    0.0087640000   -0.0000000000
H        0.1391030000   -0.0388020000   -0.0000000000
H        0.1420150000    0.0051260000   -0.0000000000
C       -0.1618090000   -0.0513000000   -0.0000000000
H        0.1497460000    0.0002640000    0.0000000000
13   
From optimize.out: Frame 16 / 18, Energy=    -286.8364947400
C        0.0963070000    0.0058160000   -0.0000000000
C       -0.1920730000    0.0351880000   -0.0000000000
C       -0.1076130000    0.1083950000   -0.0000000000
C       -0.0716390000    0.9512290000   -0.0000000000
C       -0.0993390000   -0.0424310000   -0.0000000000
N       -0.3369280000    0.0125160000   -0.0000000000
H        0.1438170000    0.0039370000   -0.0000000000
H        0.1487160000    0.0014370000   -0.0000000000
H        0.1496510000    0.0087390000   -0.0000000000
H        0.1391530000   -0.0389370000   -0.0000000000
H        0.1420100000    0.0051580000   -0.0000000000
C       -0.1618240000   -0.0513000000   -0.0000000000
H        0.1497620000    0.0002550000    0.0000000000
13   
From optimize.out: Frame 17 / 18, Energy=    -286.8364975756
C        0.0963710000    0.0060010000   -0.0000000000
C       -0.1921030000    0.0354490000   -0.0000000000
C       -0.1072230000    0.1082680000   -0.0000000000
C       -0.0715590000    0.9513170000   -0.0000000000
C       -0.0996210000   -0.0426120000   -0.0000000000
N       -0.3371390000    0.0125780000   -0.0000000000
H        0.1437990000    0.0039530000   -0.0000000000
H        0.1487190000    0.0014310000   -0.0000000000
H        0.1496440000    0.0086830000   -0.0000000000
H        0.1391990000   -0.0390310000   -0.0000000000
H        0.1419760000    0.0052090000   -0.0000000000
C       -0.1617670000   -0.0515140000   -0.0000000000
H        0.1497030000    0.0002660000    0.0000000000
