13   
From optimize.out: Frame 50 / 51, Energy=    -286.9243426875
C        1.3465104195    0.8469828365   -0.5700229709
C        0.2498509821   -1.4175871674   -0.2288799240
C       -0.9303211124   -1.0644071882    0.3542008989
C       -1.3755064533    0.2694998004    0.6674314811
C       -0.7119144328    1.4632636173    0.4570171237
N        0.4898041816    1.7747225393   -0.0831427828
H        2.2547772053    1.3025389338   -0.9692946358
H        0.4268808946   -2.4788071002   -0.3925520185
H       -1.6168568507   -1.8669579562    0.6148219268
H       -2.3541047705    0.3526943603    1.1339956277
H       -1.2519685905    2.3527968545    0.7876220679
C        1.3016303249   -0.5320265781   -0.6593694333
H        2.1712182022   -1.0027129518   -1.1118273608
13   
From optimize.out: Frame 49 / 51, Energy=    -286.9243392299
C        1.3469911464    0.8471304345   -0.5685691540
C        0.2505999173   -1.4178026098   -0.2280257509
C       -0.9298143247   -1.0649709792    0.3553912853
C       -1.3762990498    0.2694427121    0.6665355355
C       -0.7118419249    1.4630570460    0.4569432106
N        0.4910047757    1.7746511361   -0.0810718045
H        2.2545758466    1.3024246168   -0.9693356732
H        0.4272633358   -2.4791956657   -0.3921129906
H       -1.6167943412   -1.8673430543    0.6153603927
H       -2.3553726003    0.3537835432    1.1331239274
H       -1.2520972742    2.3528832003    0.7864842648
C        1.3015080354   -0.5319118696   -0.6598333489
H        2.1702764580   -1.0021485103   -1.1148898942
13   
From optimize.out: Frame 48 / 51, Energy=    -286.9243334484
C        1.3480848687    0.8472053808   -0.5673659917
C        0.2512630038   -1.4178102511   -0.2269364498
C       -0.9294777639   -1.0654872920    0.3566174334
C       -1.3777581854    0.2694110631    0.6656291506
C       -0.7118614600    1.4627391024    0.4567171356
N        0.4921238296    1.7740445604   -0.0790723819
H        2.2555124199    1.3022076852   -0.9693923527
H        0.4271447489   -2.4792548901   -0.3917599653
H       -1.6161311711   -1.8687545528    0.6162928328
H       -2.3572377154    0.3551527869    1.1323605279
H       -1.2522331464    2.3531464483    0.7854271920
C        1.3014465312   -0.5316142308   -0.6602673714
H        2.1691240402   -1.0009858102   -1.1182497595
13   
From optimize.out: Frame 47 / 51, Energy=    -286.9243268777
C        1.3491896849    0.8472216558   -0.5669486238
C        0.2514525450   -1.4174837667   -0.2261206579
C       -0.9294518511   -1.0656316085    0.3574821982
C       -1.3792774313    0.2694217330    0.6651373966
C       -0.7121460782    1.4625441475    0.4563880285
N        0.4926482414    1.7733050112   -0.0778113076
H        2.2571332432    1.3018113322   -0.9694636058
H        0.4262273203   -2.4788414125   -0.3919967845
H       -1.6145031265   -1.8707583796    0.6173188160
H       -2.3588035776    0.3562428492    1.1318571757
H       -1.2523243936    2.3535192329    0.7848539386
C        1.3013808047   -0.5313927288   -0.6604014184
H        2.1684746189   -0.9999580656   -1.1202951558
13   
From optimize.out: Frame 46 / 51, Energy=    -286.9243183794
C        1.3502745974    0.8469166141   -0.5672373101
C        0.2512170236   -1.4168994061   -0.2249886210
C       -0.9298545967   -1.0653792528    0.3578454372
C       -1.3804884528    0.2694775233    0.6652078164
C       -0.7124655624    1.4623249463    0.4560485458
N        0.4924441719    1.7726338004   -0.0773033813
H        2.2586454658    1.3013610082   -0.9705368405
H        0.4255910248   -2.4778503980   -0.3924416987
H       -1.6128775280   -1.8730651450    0.6169083714
H       -2.3596035155    0.3574421595    1.1317884491
H       -1.2523949401    2.3535439123    0.7850930683
C        1.3017811791   -0.5311085781   -0.6594743972
H        2.1677311329   -0.9993971841   -1.1209094394
13   
From optimize.out: Frame 45 / 51, Energy=    -286.9243033293
C        1.3511106382    0.8468707545   -0.5674268590
C        0.2506787141   -1.4158708328   -0.2236477659
C       -0.9301921326   -1.0647907690    0.3591287153
C       -1.3809616709    0.2695871198    0.6660471443
C       -0.7129193230    1.4625102968    0.4557898373
N        0.4922780122    1.7723186463   -0.0755708639
H        2.2597781751    1.3006470513   -0.9715618724
H        0.4251595647   -2.4761750312   -0.3946644674
H       -1.6095941941   -1.8757376730    0.6168351578
H       -2.3598783636    0.3589912905    1.1301359531
H       -1.2532978871    2.3533331770    0.7844474795
C        1.3017977538   -0.5310258481   -0.6580261385
H        2.1660407130   -1.0006581823   -1.1214863202
13   
From optimize.out: Frame 44 / 51, Energy=    -286.9242776647
C        1.3516319740    0.8463109396   -0.5667930622
C        0.2501173274   -1.4151719064   -0.2216284914
C       -0.9306935082   -1.0643954350    0.3604348383
C       -1.3796923419    0.2697276545    0.6677914254
C       -0.7123913977    1.4625276971    0.4562846373
N        0.4923696264    1.7725711195   -0.0733152618
H        2.2581082959    1.3007374119   -0.9750517969
H        0.4273529980   -2.4742810041   -0.3975834541
H       -1.6086076793   -1.8769098321    0.6144354783
H       -2.3591575701    0.3613552378    1.1280889000
H       -1.2552147554    2.3520256423    0.7834489772
C        1.3028717974   -0.5306442363   -0.6546069354
H        2.1633052335   -1.0038532888   -1.1215052548
13   
From optimize.out: Frame 43 / 51, Energy=    -286.9242436742
C        1.3517999730    0.8467773345   -0.5643583588
C        0.2502895391   -1.4149338090   -0.2206556364
C       -0.9299317655   -1.0647718473    0.3634837282
C       -1.3772719725    0.2698504566    0.6695767264
C       -0.7112638343    1.4629082134    0.4574899162
N        0.4946044379    1.7730541295   -0.0682230065
H        2.2555997041    1.3013025853   -0.9755940388
H        0.4299826780   -2.4732886191   -0.4018078701
H       -1.6072557509   -1.8769169726    0.6162307773
H       -2.3592474879    0.3636002095    1.1228739340
H       -1.2586592671    2.3510344631    0.7789349687
C        1.3024356527   -0.5306250381   -0.6532137211
H        2.1589180933   -1.0079911059   -1.1247374191
13   
From optimize.out: Frame 42 / 51, Energy=    -286.9241906073
C        1.3524011613    0.8466517219   -0.5601604559
C        0.2507977952   -1.4156241325   -0.2205438152
C       -0.9290891647   -1.0662431707    0.3658366363
C       -1.3737923523    0.2698123997    0.6719482478
C       -0.7088044135    1.4625451022    0.4604470768
N        0.4987365685    1.7733053884   -0.0624699981
H        2.2512878804    1.3033661613   -0.9777426762
H        0.4328904799   -2.4731216699   -0.4061178871
H       -1.6086195108   -1.8753079923    0.6195020610
H       -2.3604975005    0.3665817986    1.1171480862
H       -1.2636306693    2.3496265418    0.7725083692
C        1.3032230929   -0.5305020164   -0.6512191299
H        2.1550966329   -1.0110901322   -1.1291365149
13   
From optimize.out: Frame 41 / 51, Energy=    -286.9240969545
C        1.3540161719    0.8475549425   -0.5537970677
C        0.2525614030   -1.4162037645   -0.2221088658
C       -0.9265278437   -1.0685838559    0.3695445795
C       -1.3702827699    0.2693362387    0.6743794789
C       -0.7060523135    1.4618624122    0.4648526420
N        0.5066497911    1.7722602375   -0.0522934063
H        2.2500170319    1.3045485938   -0.9733135208
H        0.4328007039   -2.4737513426   -0.4096487114
H       -1.6067533141   -1.8748556139    0.6321622778
H       -2.3649316615    0.3699558186    1.1056598438
H       -1.2709860848    2.3491231651    0.7601021012
C        1.3013782458   -0.5309354857   -0.6538072095
H        2.1481106396   -1.0103113458   -1.1417321418
13   
From optimize.out: Frame 40 / 51, Energy=    -286.9239840559
C        1.3561907594    0.8480501517   -0.5500171673
C        0.2535379691   -1.4164347925   -0.2236533455
C       -0.9255180447   -1.0703927261    0.3705615913
C       -1.3684813910    0.2682803928    0.6778250803
C       -0.7043864013    1.4600631082    0.4697565808
N        0.5130848327    1.7707663965   -0.0453547829
H        2.2517427392    1.3050565356   -0.9721786339
H        0.4275337038   -2.4742530240   -0.4096818491
H       -1.6053473735   -1.8755830838    0.6425397839
H       -2.3701740783    0.3728679095    1.0967633139
H       -1.2770370285    2.3482940536    0.7511696330
C        1.3020409126   -0.5319064694   -0.6555645508
H        2.1468134004   -1.0048084522   -1.1521656539
13   
From optimize.out: Frame 39 / 51, Energy=    -286.9238885964
C        1.3581679321    0.8479170233   -0.5464976391
C        0.2547120800   -1.4146567074   -0.2237939098
C       -0.9230423872   -1.0705837122    0.3736453269
C       -1.3685370321    0.2673707964    0.6788469825
C       -0.7046613391    1.4580139447    0.4716921634
N        0.5187029154    1.7672302842   -0.0357320133
H        2.2588319774    1.3011504847   -0.9627735275
H        0.4234857091   -2.4730846566   -0.4043163392
H       -1.5995819827   -1.8770788302    0.6551867994
H       -2.3752920214    0.3734778219    1.0846423247
H       -1.2805755028    2.3477516998    0.7418714056
C        1.2983438066   -0.5317837327   -0.6630782331
H        2.1394458447   -0.9957244157   -1.1696933405
13   
From optimize.out: Frame 38 / 51, Energy=    -286.9237701139
C        1.3595957641    0.8507582671   -0.5488617790
C        0.2544022723   -1.4135800531   -0.2211226292
C       -0.9221675398   -1.0710165539    0.3795005398
C       -1.3685076254    0.2663958820    0.6843109343
C       -0.7058656980    1.4554826529    0.4744169096
N        0.5223902484    1.7665211004   -0.0293371409
H        2.2650941527    1.3015295930   -0.9649238357
H        0.4159875001   -2.4726578955   -0.4004633886
H       -1.6019268270   -1.8782489960    0.6579581563
H       -2.3797146406    0.3723554374    1.0746641724
H       -1.2824722267    2.3456172064    0.7386839868
C        1.3003765137   -0.5331269250   -0.6668008894
H        2.1428081062   -0.9900297157   -1.1780250362
13   
From optimize.out: Frame 37 / 51, Energy=    -286.9236015947
C        1.3606206357    0.8506663125   -0.5448431235
C        0.2542101558   -1.4101882304   -0.2183138289
C       -0.9169032445   -1.0700027987    0.3930002959
C       -1.3699353942    0.2663939063    0.6846180174
C       -0.7089371114    1.4525884512    0.4729937279
N        0.5294183560    1.7609095005   -0.0109369954
H        2.2764273303    1.2961179810   -0.9504758573
H        0.4156945966   -2.4692663555   -0.3934853734
H       -1.5952284078   -1.8755714580    0.6733596077
H       -2.3867187703    0.3675482614    1.0539197179
H       -1.2835233545    2.3444210962    0.7268640201
C        1.2931109949   -0.5314824202   -0.6822162693
H        2.1317642134   -0.9821342464   -1.2044839391
13   
From optimize.out: Frame 36 / 51, Energy=    -286.9233541294
C        1.3603585609    0.8537024834   -0.5430073204
C        0.2547606256   -1.4088518723   -0.2135060280
C       -0.9101754986   -1.0700905843    0.4121321085
C       -1.3691645942    0.2674635969    0.6858222942
C       -0.7106985468    1.4515802415    0.4711100286
N        0.5364912561    1.7590359756    0.0065793517
H        2.2813804038    1.2971300488   -0.9407907327
H        0.4211272071   -2.4677936359   -0.3943201553
H       -1.5972046914   -1.8715423959    0.6829205608
H       -2.3919158066    0.3609027248    1.0344215752
H       -1.2837208198    2.3442383776    0.7168478193
C        1.2862184632   -0.5302102162   -0.6959450949
H        2.1225434407   -0.9855647441   -1.2222644072
13   
From optimize.out: Frame 35 / 51, Energy=    -286.9231330254
C        1.3601321732    0.8529610755   -0.5367304561
C        0.2547873721   -1.4084981686   -0.2136046617
C       -0.9041669205   -1.0697562255    0.4265955544
C       -1.3698511731    0.2689178410    0.6827894929
C       -0.7121675705    1.4519078471    0.4682127708
N        0.5429597009    1.7554268382    0.0227958726
H        2.2840754004    1.2966812474   -0.9265960540
H        0.4294189845   -2.4663822402   -0.3987761620
H       -1.5919261759   -1.8652286195    0.6988528990
H       -2.3977259868    0.3555912313    1.0197604386
H       -1.2844350907    2.3463113275    0.7050131076
C        1.2775869717   -0.5283256181   -0.7092010759
H        2.1113123147   -0.9896065360   -1.2391117261
13   
From optimize.out: Frame 34 / 51, Energy=    -286.9228774849
C        1.3605927961    0.8526140477   -0.5317869847
C        0.2556543653   -1.4097172192   -0.2149536076
C       -0.8976493315   -1.0704117568    0.4392202313
C       -1.3691631657    0.2707427802    0.6795557305
C       -0.7113750216    1.4536293187    0.4663347708
N        0.5494431103    1.7543153382    0.0337349062
H        2.2811623369    1.3012535741   -0.9165728775
H        0.4400520341   -2.4661089664   -0.4104762575
H       -1.5915730214   -1.8614704088    0.7122924826
H       -2.4020014456    0.3509627223    1.0105216539
H       -1.2852047955    2.3505796308    0.6947438581
C        1.2694591283   -0.5270719611   -0.7180099912
H        2.1006030102   -0.9993170999   -1.2446039149
13   
From optimize.out: Frame 33 / 51, Energy=    -286.9225838900
C        1.3633088315    0.8505283257   -0.5239137251
C        0.2526619380   -1.4109920304   -0.2244309893
C       -0.8913747439   -1.0709668078    0.4491561328
C       -1.3715283579    0.2719118790    0.6739490021
C       -0.7122344564    1.4556606809    0.4633669534
N        0.5570277572    1.7511814428    0.0448967569
H        2.2819640732    1.3046631200   -0.9014329032
H        0.4436093742   -2.4651934060   -0.4277082082
H       -1.5790779764   -1.8587021287    0.7396709539
H       -2.4089397417    0.3464442288    1.0028584572
H       -1.2872534603    2.3569962997    0.6801411915
C        1.2606323037   -0.5263131621   -0.7274419657
H        2.0912044587   -1.0052184420   -1.2491116564
13   
From optimize.out: Frame 32 / 51, Energy=    -286.9222447379
C        1.3683435328    0.8483554996   -0.5165798347
C        0.2471577209   -1.4102117310   -0.2348296256
C       -0.8849602842   -1.0728983123    0.4557475824
C       -1.3726213467    0.2720941218    0.6692465376
C       -0.7127160036    1.4565443004    0.4614025934
N        0.5648899718    1.7502101840    0.0513712525
H        2.2847519822    1.3123448174   -0.8943905507
H        0.4372792661   -2.4623127048   -0.4463911525
H       -1.5684747007   -1.8635051871    0.7664554035
H       -2.4126351425    0.3403899939    0.9969491155
H       -1.2882573445    2.3631322536    0.6667519368
C        1.2527152599   -0.5263542518   -0.7317984804
H        2.0845270885   -1.0077889836   -1.2439347778
13   
From optimize.out: Frame 31 / 51, Energy=    -286.9218602726
C        1.3733587678    0.8508566294   -0.5074200749
C        0.2380778638   -1.4045237186   -0.2524529548
C       -0.8775273673   -1.0734189840    0.4644085378
C       -1.3779533108    0.2715405504    0.6587993132
C       -0.7189120211    1.4570724932    0.4520422132
N        0.5728256487    1.7437173177    0.0658333796
H        2.3001248494    1.2962141468   -0.8498260139
H        0.4249287655   -2.4562380012   -0.4596895958
H       -1.5295856776   -1.8713264359    0.8200183019
H       -2.4202095314    0.3370446040    0.9830030461
H       -1.2917761075    2.3705062708    0.6430884366
C        1.2385856544   -0.5221424818   -0.7520575151
H        2.0680624662   -0.9993023908   -1.2657470737
13   
From optimize.out: Frame 30 / 51, Energy=    -286.9213063216
C        1.3785071335    0.8499967097   -0.4904233561
C        0.2287817511   -1.4017926273   -0.2680853010
C       -0.8738478220   -1.0751227151    0.4686470782
C       -1.3835814916    0.2725052534    0.6482521033
C       -0.7260940787    1.4580464133    0.4460735001
N        0.5796778383    1.7389335298    0.0835543432
H        2.3218768632    1.2941105628   -0.8160546734
H        0.4030566985   -2.4568582704   -0.4705091406
H       -1.4902516546   -1.8790751743    0.8762007543
H       -2.4255512539    0.3315724350    0.9664785462
H       -1.2944044629    2.3774763119    0.6170520029
C        1.2256335182   -0.5219922231   -0.7724209499
H        2.0561969611   -0.9878002056   -1.2887649072
13   
From optimize.out: Frame 29 / 51, Energy=    -286.9207127555
C        1.3795412372    0.8487349687   -0.4750445704
C        0.2265297140   -1.3954568003   -0.2764864376
C       -0.8722573234   -1.0739595323    0.4723301897
C       -1.3901229718    0.2735217063    0.6351869470
C       -0.7336996130    1.4587032300    0.4382568099
N        0.5833014450    1.7299351741    0.1035512493
H        2.3430759653    1.2720182332   -0.7645275630
H        0.3961125512   -2.4520544248   -0.4648517473
H       -1.4493129025   -1.8835086409    0.9256245674
H       -2.4311578248    0.3301296142    0.9474811875
H       -1.2964801076    2.3824284001    0.5935748513
C        1.2097279666   -0.5178375708   -0.8014049466
H        2.0347418638   -0.9726543577   -1.3336905372
13   
From optimize.out: Frame 28 / 51, Energy=    -286.9201618010
C        1.3775620426    0.8467900480   -0.4622821434
C        0.2289353773   -1.3957508652   -0.2782156550
C       -0.8741916953   -1.0715126370    0.4727804087
C       -1.3955077728    0.2767935250    0.6264510797
C       -0.7397044871    1.4605619048    0.4357739108
N        0.5837645467    1.7245848315    0.1193815649
H        2.3572007076    1.2613603877   -0.7278211007
H        0.3954763180   -2.4567256039   -0.4586948396
H       -1.4230447598   -1.8832924607    0.9581149144
H       -2.4353123394    0.3317482308    0.9343049179
H       -1.2985309908    2.3871023261    0.5770387804
C        1.1999471636   -0.5167366166   -0.8250260189
H        2.0234058895   -0.9649230703   -1.3718058193
13   
From optimize.out: Frame 27 / 51, Energy=    -286.9197326088
C        1.3743065916    0.8407096285   -0.4526414004
C        0.2370849477   -1.3954798499   -0.2733383057
C       -0.8748697377   -1.0666080913    0.4716359125
C       -1.4004615267    0.2793565075    0.6184311715
C       -0.7425471122    1.4616829417    0.4351996407
N        0.5839773831    1.7169434715    0.1338317475
H        2.3643293856    1.2453708709   -0.6963257592
H        0.4103323638   -2.4565738317   -0.4443765093
H       -1.4066076366   -1.8780862113    0.9741435174
H       -2.4400980823    0.3341717875    0.9227468343
H       -1.2992960239    2.3903736869    0.5668124995
C        1.1891935195   -0.5141858123   -0.8458628540
H        2.0046559281   -0.9576750980   -1.4102564948
13   
From optimize.out: Frame 26 / 51, Energy=    -286.9192373931
C        1.3670458273    0.8385536876   -0.4512386826
C        0.2460557934   -1.4011206730   -0.2687354489
C       -0.8724403121   -1.0587984628    0.4679145064
C       -1.4043891554    0.2841146478    0.6176775760
C       -0.7451082075    1.4651016115    0.4392717703
N        0.5829128748    1.7139006448    0.1439678014
H        2.3631474813    1.2365848486   -0.6785685662
H        0.4215896265   -2.4704764120   -0.4399264441
H       -1.3932272858   -1.8699293499    0.9787181070
H       -2.4472831746    0.3402171206    0.9169965213
H       -1.3027927332    2.3964997259    0.5632706969
C        1.1820844035   -0.5160687481   -0.8579542399
H        2.0024048617   -0.9585786412   -1.4313935977
13   
From optimize.out: Frame 25 / 51, Energy=    -286.9182600220
C        1.3632292282    0.8232492533   -0.4460772725
C        0.2534718570   -1.4093458284   -0.2665782446
C       -0.8653765925   -1.0452097444    0.4622184595
C       -1.4157649539    0.2881113364    0.6134691906
C       -0.7485423980    1.4643450724    0.4425899714
N        0.5865669876    1.6964395507    0.1647705183
H        2.3660279399    1.2187101474   -0.6539279572
H        0.4536530149   -2.4797899856   -0.4209929682
H       -1.3736776699   -1.8440334249    0.9864150490
H       -2.4667444763    0.3474880729    0.9083424328
H       -1.3066825428    2.3996749444    0.5568411180
C        1.1737149722   -0.5150954148   -0.8747649429
H        1.9801246336   -0.9445439796   -1.4723053541
13   
From optimize.out: Frame 24 / 51, Energy=    -286.9171027143
C        1.3612380137    0.8212066480   -0.4462603301
C        0.2520120106   -1.4134467291   -0.2768707811
C       -0.8496515834   -1.0349007739    0.4608853500
C       -1.4216657633    0.2894368698    0.6120159795
C       -0.7513167396    1.4636912805    0.4388383204
N        0.5910505587    1.6847029757    0.1831582819
H        2.3731439386    1.2012860817   -0.6276842908
H        0.4671981230   -2.4909356478   -0.4047520370
H       -1.3477512303   -1.8269327581    0.9968962236
H       -2.4811757136    0.3552356589    0.8992168720
H       -1.3139835275    2.3986089956    0.5501655810
C        1.1610440071   -0.5170890133   -0.8822809982
H        1.9598579059   -0.9308635880   -1.5033281711
13   
From optimize.out: Frame 23 / 51, Energy=    -286.9157172470
C        1.3703820343    0.8136662357   -0.4357658732
C        0.2344544776   -1.4147725118   -0.3005331606
C       -0.8410461135   -1.0324663698    0.4650852077
C       -1.4315563871    0.2878962621    0.6044910522
C       -0.7563608380    1.4550507098    0.4263428100
N        0.5983502354    1.6650954963    0.2016165866
H        2.3922988063    1.1908785580   -0.5997806069
H        0.4773451860   -2.4866002062   -0.3829793721
H       -1.3267607812   -1.8062616725    1.0252326281
H       -2.4945317199    0.3597713231    0.8944468624
H       -1.3194116643    2.3878629008    0.5357864357
C        1.1589206949   -0.5154290246   -0.8889370421
H        1.9379160695   -0.9046917007   -1.5450055278
13   
From optimize.out: Frame 22 / 51, Energy=    -286.9143750484
C        1.3797139511    0.8201403724   -0.4289092868
C        0.2291353111   -1.4076332767   -0.3097800052
C       -0.8305038548   -1.0344467381    0.4727060417
C       -1.4329432108    0.2837846865    0.5910678803
C       -0.7565424170    1.4500022639    0.4096380247
N        0.6043135984    1.6536454427    0.2182428956
H        2.4138939489    1.1657503963   -0.5444958258
H        0.4977686069   -2.4733764569   -0.3491804771
H       -1.3109584175   -1.8055072000    1.0492824611
H       -2.4949565266    0.3629697360    0.8790918514
H       -1.3221851149    2.3774437503    0.5200368047
C        1.1433523149   -0.5077151132   -0.9081795231
H        1.8799118103   -0.8850578634   -1.5995208415
13   
From optimize.out: Frame 21 / 51, Energy=    -286.9121761857
C        1.3963517811    0.8162434982   -0.4035268941
C        0.2177188233   -1.3986982771   -0.3270732862
C       -0.8359432073   -1.0424859567    0.4841203894
C       -1.4390928085    0.2802108110    0.5701478840
C       -0.7575646124    1.4405823934    0.3890124353
N        0.6084118708    1.6384188873    0.2350596924
H        2.4386719577    1.1599039859   -0.4833471180
H        0.5255757492   -2.4519094127   -0.3083252101
H       -1.3148661653   -1.8026651545    1.0890513819
H       -2.4870180809    0.3683662181    0.8715239744
H       -1.3243248046    2.3610839116    0.4935239209
C        1.1351113743   -0.5039647926   -0.9299941274
H        1.8369681225   -0.8650861120   -1.6801730425
13   
From optimize.out: Frame 20 / 51, Energy=    -286.9099481961
C        1.4057771917    0.8140062724   -0.3914725270
C        0.2246395846   -1.3840984099   -0.3170537299
C       -0.8411232370   -1.0471212681    0.4929420119
C       -1.4407850019    0.2760777666    0.5488852670
C       -0.7553788720    1.4345325417    0.3745737619
N        0.6111086006    1.6258188714    0.2463384472
H        2.4541521922    1.1274715600   -0.4125140031
H        0.5693702924   -2.4239183716   -0.2682235827
H       -1.3199676727   -1.8107632533    1.1109593027
H       -2.4791011264    0.3712966358    0.8568834828
H       -1.3204479818    2.3536876956    0.4759945024
C        1.1214799834   -0.4875522474   -0.9644102146
H        1.7702760471   -0.8494377932   -1.7529027187
13   
From optimize.out: Frame 19 / 51, Energy=    -286.9066106666
C        1.4149583996    0.8062172855   -0.3609319500
C        0.2383024563   -1.3809911630   -0.2997861944
C       -0.8476765284   -1.0502007978    0.5030599934
C       -1.4293787922    0.2679656586    0.5254310439
C       -0.7462871579    1.4300789383    0.3621342010
N        0.6127406113    1.6268815443    0.2685469221
H        2.4686103150    1.1248006377   -0.3587797698
H        0.6014379952   -2.4150033410   -0.2175905673
H       -1.3324676497   -1.8143596988    1.1230739722
H       -2.4610288001    0.3700197465    0.8322418820
H       -1.3205787244    2.3464287200    0.4530557543
C        1.0982515377   -0.4700690513   -0.9928881421
H        1.7031163375   -0.8417684788   -1.8375671452
13   
From optimize.out: Frame 18 / 51, Energy=    -286.9036992250
C        1.4126387264    0.7760963964   -0.3426514873
C        0.2653835049   -1.3558590017   -0.2671744316
C       -0.8481179963   -1.0462162153    0.4998451827
C       -1.4290125724    0.2643287160    0.5055932111
C       -0.7402828725    1.4256940926    0.3635865863
N        0.6178871156    1.6100005075    0.2862858489
H        2.4685813981    1.0843128422   -0.3323596615
H        0.6561373725   -2.3692171463   -0.1707812303
H       -1.3352900312   -1.8121303282    1.1087548295
H       -2.4586901604    0.3600341043    0.8092106141
H       -1.3099234481    2.3467091730    0.4489982025
C        1.0690707612   -0.4588387360   -1.0189169268
H        1.6316182023   -0.8249144044   -1.8903907377
13   
From optimize.out: Frame 17 / 51, Energy=    -286.8981848410
C        1.4053444947    0.7926644166   -0.3123307478
C        0.2710787036   -1.3388326811   -0.2420013973
C       -0.8285970992   -1.0412931498    0.4971362806
C       -1.4077345426    0.2448364479    0.4814269346
C       -0.7361736394    1.4270039937    0.3525533254
N        0.6278961152    1.6172940576    0.3099221137
H        2.4531614548    1.0056224252   -0.3058071870
H        0.6559300242   -2.3394792446   -0.1261368786
H       -1.3007899775   -1.8039271041    1.1008954026
H       -2.4504400754    0.3419194546    0.7747258427
H       -1.3135159214    2.3432083370    0.4475541913
C        1.0384089936   -0.4262933357   -1.0320589952
H        1.5854314694   -0.8227236171   -1.9458788850
13   
From optimize.out: Frame 16 / 51, Energy=    -286.8917432981
C        1.4068092338    0.7668912355   -0.2672912532
C        0.2809020666   -1.3637702315   -0.1955029690
C       -0.8228734642   -1.0486175816    0.4898882796
C       -1.3913152250    0.2407384792    0.4694217592
C       -0.7224925281    1.4230280092    0.3586733487
N        0.6417317272    1.6203508511    0.3373023255
H        2.4705955868    1.0621374490   -0.3343565341
H        0.6745137174   -2.3549513044   -0.0795961381
H       -1.3272521367   -1.7826626579    1.0770478279
H       -2.4386293887    0.3246250082    0.7434702555
H       -1.3095177723    2.3373167692    0.4343434295
C        1.0232499325   -0.4112483776   -1.0457034130
H        1.5142782506   -0.8138376483   -1.9876969183
13   
From optimize.out: Frame 15 / 51, Energy=    -286.8722059834
C        1.4268082759    0.7912614121   -0.2520120391
C        0.2675984267   -1.4142176047   -0.1609192577
C       -0.8236152917   -1.0623758960    0.4933566068
C       -1.3781658873    0.2304497239    0.4523576937
C       -0.7152787513    1.4164880710    0.3505365128
N        0.6544409821    1.6273834151    0.3522189822
H        2.4688315991    1.0355321190   -0.3220739160
H        0.6727189931   -2.3879738739   -0.0604318303
H       -1.3428107093   -1.7597982022    1.0909465559
H       -2.4345675047    0.3108534110    0.7188662182
H       -1.3045345902    2.3255357399    0.4246428612
C        1.0587029217   -0.3294586264   -1.0726367304
H        1.4498715357   -0.7836796890   -2.0148516575
13   
From optimize.out: Frame 14 / 51, Energy=    -286.8702422075
C        1.4172799497    0.7952158991   -0.2899427073
C        0.2449108753   -1.3973069122   -0.1750195870
C       -0.8334315722   -1.0618318036    0.5191265415
C       -1.3839684309    0.2183418361    0.4556942194
C       -0.7239682301    1.4117655255    0.3225684117
N        0.6494954465    1.6078997491    0.3227923196
H        2.5158700454    1.0240044788   -0.2299261462
H        0.6512897792   -2.3765286401   -0.0880382820
H       -1.3113189731   -1.8001049628    1.1406258407
H       -2.4441144747    0.3344338748    0.7321667515
H       -1.3028014016    2.3263127234    0.4138071477
C        1.0701567927   -0.3141613585   -1.0988256443
H        1.4506001938   -0.7680404096   -2.0250288652
13   
From optimize.out: Frame 13 / 51, Energy=    -286.8682085675
C        1.4269966107    0.8180890909   -0.3088966213
C        0.2592482316   -1.4171250884   -0.1596703939
C       -0.8639041436   -1.0705325642    0.5117021065
C       -1.4062170485    0.2370646780    0.4601869943
C       -0.7269481489    1.4196052323    0.3364301895
N        0.6353362640    1.6120187940    0.2974009480
H        2.4960095682    1.0520616094   -0.1916942784
H        0.7273630671   -2.3974328227   -0.1101255635
H       -1.3722115482   -1.8000785924    1.1429679146
H       -2.4436443884    0.3594493200    0.7693686577
H       -1.3026877064    2.3390895060    0.4162662292
C        1.1082018158   -0.3375834994   -1.1305802313
H        1.4624574265   -0.8146256635   -2.0333559514
13   
From optimize.out: Frame 12 / 51, Energy=    -286.8152814834
C        1.4558874909    0.8424639227   -0.3005442651
C        0.2897352768   -1.4978939900   -0.0580249033
C       -0.8479047344   -1.0950686778    0.5217446725
C       -1.3667275700    0.2269989482    0.4271876408
C       -0.6931545420    1.4120870675    0.3245025419
N        0.6588339652    1.6270295747    0.3364721917
H        2.5231141852    1.0238761155   -0.1139942271
H        0.7879085132   -2.4599202259   -0.0429445959
H       -1.4164097460   -1.7985129054    1.1412243445
H       -2.4165413401    0.3423550565    0.6898171925
H       -1.2851987764    2.3239105554    0.3853595743
C        1.1048893121   -0.1886163296   -1.2030955002
H        1.2055679656   -0.7587091118   -2.1077046665
13   