13   
From optimize.out: Frame 2 / 3, Energy=    -286.9243457448
C        1.3472515847    0.8471269015   -0.5704831078
C        0.2493269033   -1.4171693927   -0.2298456718
C       -0.9303587591   -1.0642376942    0.3544671919
C       -1.3751082017    0.2694510511    0.6690993065
C       -0.7124542785    1.4634158877    0.4565457979
N        0.4890174313    1.7744295363   -0.0849378111
H        2.2578093568    1.3015884455   -0.9674658055
H        0.4258924868   -2.4781684505   -0.3950965960
H       -1.6167315406   -1.8670413326    0.6160883127
H       -2.3535799602    0.3520229829    1.1361447548
H       -1.2541165101    2.3528849344    0.7859345114
C        1.3014963144   -0.5317091505   -0.6595939709
H        2.1715551728   -1.0025937188   -1.1108569119
13   
From optimize.out: Frame 1 / 3, Energy=    -286.9243426791
C        1.3465104194    0.8469828365   -0.5700229710
C        0.2498509819   -1.4175871674   -0.2288799245
C       -0.9303211124   -1.0644071882    0.3542008988
C       -1.3755064531    0.2694998003    0.6674314816
C       -0.7119144325    1.4632636172    0.4570171244
N        0.4898041818    1.7747225393   -0.0831427824
H        2.2547772051    1.3025389338   -0.9692946361
H        0.4268808942   -2.4788071001   -0.3925520194
H       -1.6168568507   -1.8669579562    0.6148219267
H       -2.3541047701    0.3526943602    1.1339956286
H       -1.2519685900    2.3527968544    0.7876220691
C        1.3016303246   -0.5320265780   -0.6593694339
H        2.1712182017   -1.0027129517   -1.1118273618
13   
From optimize.out: Frame 50 / 51, Energy=    -286.9243426875
C        1.3465104194    0.8469828365   -0.5700229710
C        0.2498509819   -1.4175871674   -0.2288799245
C       -0.9303211124   -1.0644071882    0.3542008988
C       -1.3755064531    0.2694998003    0.6674314816
C       -0.7119144325    1.4632636172    0.4570171244
N        0.4898041818    1.7747225393   -0.0831427824
H        2.2547772051    1.3025389338   -0.9692946361
H        0.4268808942   -2.4788071001   -0.3925520194
H       -1.6168568507   -1.8669579562    0.6148219267
H       -2.3541047701    0.3526943602    1.1339956286
H       -1.2519685900    2.3527968544    0.7876220691
C        1.3016303246   -0.5320265780   -0.6593694339
H        2.1712182017   -1.0027129517   -1.1118273618
13   
From optimize.out: Frame 49 / 51, Energy=    -286.9243392299
C        1.3590858617    0.8497443532   -0.5480206193
C        0.2545110736   -1.4139640272   -0.2220778978
C       -0.9224795997   -1.0708618707    0.3774127846
C       -1.3685162731    0.2667439063    0.6823655143
C       -0.7054337597    1.4563855554    0.4734485230
N        0.5210763663    1.7667736736   -0.0316171851
H        2.2628592153    1.3013937084   -0.9641605162
H        0.4186591152   -2.4728099577   -0.4018419079
H       -1.6010904238   -1.8778310981    0.6569709986
H       -2.3781342094    0.3727564012    1.0782295293
H       -1.2817919442    2.3463787100    0.7398269947
C        1.2996494171   -0.5326480376   -0.6654767720
H        2.1416051607   -0.9920613168   -1.1750594462
13   
From optimize.out: Frame 48 / 51, Energy=    -286.9243334484
C        1.3603829116    0.8527685863   -0.5339993861
C        0.2552658540   -1.4091745240   -0.2143574134
C       -0.9005461934   -1.0701201660    0.4336091112
C       -1.3694626023    0.2699303217    0.6810086339
C       -0.7117226071    1.4528629012    0.4671792544
N        0.5465586210    1.7548097652    0.0288631780
H        2.2824503171    1.2992188279   -0.9210545067
H        0.4353148188   -2.4662302815   -0.4052762538
H       -1.5917240266   -1.8631432190    0.7063245051
H       -2.4000885788    0.3530224086    1.0146572875
H       -1.2848544707    2.3486796889    0.6993295588
C        1.2730692662   -0.5276295661   -0.7141026181
H        2.1053566902   -0.9949947432   -1.2421813509
13   
From optimize.out: Frame 47 / 51, Energy=    -286.9243268777
C        1.3715144642    0.8499431582   -0.5107951480
C        0.2413942071   -1.4066034586   -0.2460146793
C       -0.8802364495   -1.0732295666    0.4612564242
C       -1.3759905919    0.2717415274    0.6626470775
C       -0.7166376849    1.4568783840    0.4554816044
N        0.5699240567    1.7460919536    0.0605360490
H        2.2944855695    1.3021154870   -0.8661663522
H        0.4294375321   -2.4584587741   -0.4548382885
H       -1.5437919750   -1.8684678159    0.8004563807
H       -2.4174204458    0.3382657566    0.9881506434
H       -1.2904773802    2.3678080394    0.6517712449
C        1.2437388520   -0.5236812369   -0.7446733210
H        2.0740598457   -1.0024034540   -1.2578116350
13   
From optimize.out: Frame 46 / 51, Energy=    -286.9243183794
C        1.3788663705    0.8495459360   -0.4849384320
C        0.2279681022   -1.3995197338   -0.2711073428
C       -0.8732661583   -1.0747071261    0.4699853508
C       -1.3859122388    0.2728676128    0.6436002168
C       -0.7288113866    1.4582805251    0.4432916637
N        0.5809790220    1.7357065341    0.0907166382
H        2.3294599525    1.2861909050   -0.7976278279
H        0.4005560281   -2.4551341554   -0.4684967551
H       -1.4755492825   -1.8806679251    0.8939538294
H       -2.4275393157    0.3310517440    0.9597239926
H       -1.2951350378    2.3792501371    0.6086701526
C        1.2199113889   -0.5204998315   -0.7828449765
H        2.0484725557   -0.9823646222   -1.3049265097
13   
From optimize.out: Frame 45 / 51, Energy=    -286.9243033293
C        1.3764400087    0.8447254652   -0.4590398503
C        0.2317009454   -1.3956571341   -0.2765698804
C       -0.8744070132   -1.0698475082    0.4724122176
C       -1.3971745993    0.2776608374    0.6237658975
C       -0.7406601897    1.4609403634    0.4356073207
N        0.5838386137    1.7219856677    0.1242874561
H        2.3596027661    1.2559274746   -0.7171721363
H        0.4005191326   -2.4566714218   -0.4538475195
H       -1.4174226102   -1.8815275993    0.9636007580
H       -2.4369129511    0.3325654822    0.9304473950
H       -1.2987769666    2.3882109464    0.5736098361
C        1.1962650453   -0.5158637059   -0.8321518477
H        2.0169878182   -0.9624488677   -1.3849496467
13   
From optimize.out: Frame 44 / 51, Energy=    -286.9242776647
C        1.3634285861    0.8241359642   -0.4464190521
C        0.2530393712   -1.4088702954   -0.2667259894
C       -0.8657611427   -1.0459967832    0.4625691671
C       -1.4150884911    0.2878720220    0.6137692953
C       -0.7483317555    1.4643821255    0.4424433928
N        0.5863590937    1.6974419620    0.1635699547
H        2.3658335356    1.2197491699   -0.6554235632
H        0.4518022485   -2.4792498955   -0.4221222708
H       -1.3747563293   -1.8455335779    0.9860089502
H       -2.4655923670    0.3470550482    0.9089396663
H       -1.3064437278    2.3994836414    0.5572853747
C        1.1741624871   -0.5151395050   -0.8738510924
H        1.9813484910   -0.9453298763   -1.4700438332
13   
From optimize.out: Frame 43 / 51, Energy=    -286.9242436742
C        1.3706679114    0.8138881210   -0.4355887765
C        0.2342675182   -1.4145323808   -0.3008725676
C       -0.8406773636   -1.0325405443    0.4653557936
C       -1.4315747165    0.2877489752    0.6041203487
C       -0.7563489674    1.4548765109    0.4258540144
N        0.5985535880    1.6647163630    0.2021648857
H        2.3929798124    1.1900660192   -0.5980522551
H        0.4780015539   -2.4861584573   -0.3819343422
H       -1.3261927769   -1.8062563784    1.0260515750
H       -2.4945052943    0.3598579707    0.8940624321
H       -1.3194809801    2.3875096900    0.5353711180
C        1.1583691312   -0.5151586458   -0.8896312147
H        1.9359405836   -0.9040172435   -1.5469010115
13   
From optimize.out: Frame 42 / 51, Energy=    -286.9241906073
C        1.3864412283    0.8185689189   -0.4186702340
C        0.2244872462   -1.4040012751   -0.3168360574
C       -0.8326833313   -1.0377191351    0.4773642698
C       -1.4354070566    0.2823214341    0.5826628981
C       -0.7569372861    1.4461711425    0.4013369662
N        0.6059865891    1.6474633172    0.2250644935
H        2.4239183790    1.1633912544   -0.5197936803
H        0.5090378631   -2.4646583393   -0.3326757883
H       -1.3124829250   -1.8043757666    1.0654587906
H       -2.4916875494    0.3651395408    0.8761646619
H       -1.3230288773    2.3707935937    0.5093951288
C        1.1399585431   -0.5061744454   -0.9171038360
H        1.8623971768   -0.8769202402   -1.6323676127
13   
From optimize.out: Frame 40 / 51, Energy=    -286.9239840559
C        1.4019483619    0.8149195362   -0.3964107526
C        0.2218317853   -1.3899784150   -0.3211338531
C       -0.8389992902   -1.0452637182    0.4894216220
C       -1.4400665128    0.2777298664    0.5575588375
C       -0.7562389328    1.4369626617    0.3804719585
N        0.6100327702    1.6308963478    0.2417805168
H        2.4478782250    1.1405630302   -0.4412147183
H        0.5517006626   -2.4351973348   -0.2844736814
H       -1.3178325924   -1.8075221672    1.1021803588
H       -2.4822369627    0.3700922598    0.8629579175
H       -1.3219856384    2.3566571798    0.4831933394
C        1.1269143608   -0.4941489753   -0.9506178148
H        1.7970537635   -0.8557102715   -1.7237137302
13   
From optimize.out: Frame 39 / 51, Energy=    -286.9238885964
C        1.4126791374    0.8081364548   -0.3685025876
C        0.2349406617   -1.3817456753   -0.3040544416
C       -0.8460294264   -1.0494590686    0.5006300789
C       -1.4321316678    0.2699362650    0.5312865314
C       -0.7484912428    1.4311597458    0.3652605990
N        0.6123540058    1.6266196843    0.2630908429
H        2.4650375893    1.1254716055   -0.3721032461
H        0.5935809086   -2.4171792621   -0.2300714732
H       -1.3293141217   -1.8135039664    1.1201793371
H       -2.4653905358    0.3703073704    0.8384686192
H       -1.3205220532    2.3481921891    0.4588114368
C        1.1038646838   -0.4743275152   -0.9860089851
H        1.7194220613   -0.8436078273   -1.8169867116
13   
From optimize.out: Frame 38 / 51, Energy=    -286.9237701139
C        1.4128011636    0.7787171767   -0.3443462169
C        0.2630346703   -1.3580255254   -0.2700267565
C       -0.8480255441   -1.0465738807    0.5001870961
C       -1.4290032949    0.2646233547    0.5074328830
C       -0.7407855880    1.4260619457    0.3635372283
N        0.6174497486    1.6114633341    0.2847136580
H        2.4685434137    1.0878406153   -0.3348461079
H        0.6514211009   -2.3731650432   -0.1749025790
H       -1.3349310777   -1.8123467733    1.1100916624
H       -2.4588261390    0.3608637166    0.8114158562
H       -1.3108304778    2.3466670726    0.4494820261
C        1.0715094982   -0.4597889511   -1.0167641456
H        1.6376425261   -0.8263370422   -1.8859746043
13   
From optimize.out: Frame 37 / 51, Energy=    -286.9236015947
C        1.4054071287    0.7908351561   -0.3092169630
C        0.2717912790   -1.3406237573   -0.2386704272
C       -0.8281208571   -1.0418338169    0.4966934862
C       -1.4065152104    0.2445165158    0.4806850549
C       -0.7351859663    1.4267053482    0.3530501683
N        0.6288875229    1.6175283288    0.3118282147
H        2.4543693744    1.0097371162   -0.3080839812
H        0.6573031106   -2.3405806921   -0.1228309177
H       -1.3025625106   -1.8024157390    1.0993039222
H       -2.4495287001    0.3406307372    0.7726894575
H       -1.3132350917    2.3427609418    0.4467050529
C        1.0372353550   -0.4251959422   -1.0331298823
H        1.5801545655   -0.8220641967   -1.9490231853
13   
From optimize.out: Frame 36 / 51, Energy=    -286.9233541294
C        1.4113822405    0.7725258396   -0.2638947560
C        0.2778409002   -1.3753879776   -0.1875594160
C       -0.8229862956   -1.0517988503    0.4907595317
C       -1.3882488488    0.2383482789    0.4656115967
C       -0.7208202101    1.4215110797    0.3568610350
N        0.6446657355    1.6219804843    0.3406817578
H        2.4701449562    1.0560440396   -0.3317428148
H        0.6741280258   -2.3625490434   -0.0752388885
H       -1.3307163945   -1.7774141453    1.0803665660
H       -2.4376339736    0.3214173375    0.7380145473
H       -1.3083660184    2.3345839351    0.4322216798
C        1.0313313135   -0.3923917585   -1.0519978562
H        1.4992785693   -0.8068692196   -1.9940829827
13   
From optimize.out: Frame 35 / 51, Energy=    -286.9231330254
C        1.4230689527    0.7928185739   -0.2668862411
C        0.2587819276   -1.4076394086   -0.1664286251
C       -0.8273711700   -1.0621768660    0.5034478281
C       -1.3803831624    0.2257228609    0.4537819072
C       -0.7186447220    1.4146415402    0.3397333496
N        0.6525278708    1.6198166479    0.3407237488
H        2.4870784044    1.0310846895   -0.2864751453
H        0.6644134757   -2.3835152883   -0.0712317950
H       -1.3304423835   -1.7754889448    1.1103769446
H       -2.4382169649    0.3199859618    0.7242612502
H       -1.3038534016    2.3258191653    0.4205563251
C        1.0630609007   -0.3234943234   -1.0829163312
H        1.4499802725   -0.7775746084   -2.0189432161
13   
From optimize.out: Frame 34 / 51, Energy=    -286.9228774849
C        1.4225558623    0.8077506876   -0.3004529890
C        0.2527555207   -1.4081461194   -0.1666585625
C       -0.8500390016   -1.0666069033    0.5151428926
C       -1.3960975687    0.2285655563    0.4582976940
C       -0.7255818980    1.4160436215    0.3302389323
N        0.6417604573    1.6101587539    0.3088464394
H        2.5049692605    1.0393880178   -0.2092562436
H        0.6929321925   -2.3879572831   -0.1002139404
H       -1.3444976142   -1.8001160192    1.1420308289
H       -2.4437841723    0.3480855854    0.7527757486
H       -1.3027247290    2.3332845051    0.4153053278
C        1.0908626174   -0.3269546806   -1.1163150013
H        1.4568890731   -0.7934957220   -2.0297411268
13   
From optimize.out: Frame 33 / 51, Energy=    -286.9225838900
C        1.4350822026    0.8249678147   -0.3067002015
C        0.2678282522   -1.4398486432   -0.1311157980
C       -0.8593311682   -1.0774527963    0.5146131072
C       -1.3950559056    0.2342111801    0.4510633186
C       -0.7174164485    1.4174775938    0.3331730302
N        0.6419656850    1.6162461733    0.3083418382
H        2.5036056837    1.0441602414   -0.1701030274
H        0.7444168414   -2.4150071957   -0.0913355218
H       -1.3844982158   -1.7996673559    1.1426135340
H       -2.4359362566    0.3546028135    0.7472657456
H       -1.2977457931    2.3347987744    0.4077459178
C        1.1071414680   -0.2956382108   -1.1511159230
H        1.3899436549   -0.7988503892   -2.0544460199
13   
From optimize.out: Frame 32 / 51, Energy=    -286.9222447379
C        1.4484284957    0.8362287725   -0.3028529695
C        0.2819172587   -1.4771649826   -0.0841630238
C       -0.8519351863   -1.0887892280    0.5192563596
C       -1.3768092051    0.2295612288    0.4358275693
C       -0.7018000563    1.4140041660    0.3276701653
N        0.6528280369    1.6231797565    0.3263905007
H        2.5161322552    1.0311361171   -0.1342254272
H        0.7723905018   -2.4438774843   -0.0603137966
H       -1.4049100839   -1.7989458926    1.1418177248
H       -2.4234121555    0.3467060488    0.7105324061
H       -1.2896618788    2.3277863796    0.3934827877
C        1.1055961397   -0.2268117210   -1.1846275874
H        1.2712358778   -0.7730131609   -2.0887947090
13   
From optimize.out: Frame 31 / 51, Energy=    -286.9218602726
C        1.4539010294    0.8328475789   -0.3062553589
C        0.3060020699   -1.4843201579   -0.0374330142
C       -0.8443104849   -1.0926756213    0.5174791612
C       -1.3691689641    0.2289642440    0.4216637062
C       -0.6916071909    1.4115306369    0.3294751611
N        0.6604513857    1.6174030455    0.3411630593
H        2.5192048253    0.9906940211   -0.1010745960
H        0.8201785178   -2.4366304565   -0.0258860665
H       -1.4167918882   -1.8011522940    1.1280425885
H       -2.4202309636    0.3386218717    0.6803993557
H       -1.2781980739    2.3271293742    0.3901296197
C        1.0912837394   -0.1807758264   -1.2166405049
H        1.1692859982   -0.7516364162   -2.1210631114
13   
From optimize.out: Frame 30 / 51, Energy=    -286.9213063216
C        1.4495377614    0.8111759295   -0.3187134644
C        0.3425732894   -1.4537973028    0.0090185028
C       -0.8364000865   -1.0872557318    0.5076822066
C       -1.3747780024    0.2334295109    0.4088391151
C       -0.6881892330    1.4103063710    0.3404085434
N        0.6640285151    1.5957497958    0.3518430177
H        2.5104687072    0.9160036625   -0.0713285986
H        0.8927179213   -2.3842646821    0.0127955861
H       -1.4180181611   -1.8070166143    1.0980547807
H       -2.4287202819    0.3303025158    0.6585116820
H       -1.2625125048    2.3344115136    0.4004035979
C        1.0610227819   -0.1632105757   -1.2467813860
H        1.0882692935   -0.7358343923   -2.1507335834
13   
From optimize.out: Frame 29 / 51, Energy=    -286.9207127555
C        1.4451742905    0.7895041644   -0.3311717516
C        0.3791454797   -1.4232722082    0.0554688287
C       -0.8284895223   -1.0818359680    0.4978857161
C       -1.3803874040    0.2378940337    0.3960149058
C       -0.6847713215    1.4090824218    0.3513414301
N        0.6676059993    1.5740973155    0.3625224855
H        2.5017347147    0.8413147330   -0.0415816186
H        0.9652579124   -2.3318958805    0.0514747879
H       -1.4192440796   -1.8128817377    1.0680685312
H       -2.4372098484    0.3219818680    0.6366251363
H       -1.2468274795    2.3416940685    0.4106762856
C        1.0307602825   -0.1456470987   -1.2769222760
H        1.0072509763   -0.7200357119   -2.1804024608
13   
From optimize.out: Frame 28 / 51, Energy=    -286.9201618010
C        1.4712896818    0.8179746658   -0.3556626083
C        0.3438497233   -1.4822038657    0.0707626928
C       -0.8509043825   -1.1007526100    0.5055355342
C       -1.3815801235    0.2353369209    0.4013619145
C       -0.6849218957    1.4014906547    0.3492485259
N        0.6633571894    1.5807627994    0.3500460516
H        2.5188834108    0.8738256669   -0.0371180896
H        0.9154553171   -2.3987106174    0.0592537352
H       -1.4610261879   -1.8136537017    1.0814908654
H       -2.4348078549    0.3351224847    0.6496641883
H       -1.2499524855    2.3327586912    0.4123614414
C        1.0888316935   -0.0975075585   -1.2970118126
H        1.0615259140   -0.6844435303   -2.1899324390
13   
From optimize.out: Frame 27 / 51, Energy=    -286.9197326088
C        1.4950857407    0.8414877879   -0.3734604580
C        0.3101879208   -1.5404781281    0.0919876676
C       -0.8728165359   -1.1194768232    0.5144084497
C       -1.3812525198    0.2309522736    0.4040862382
C       -0.6825144401    1.3929832603    0.3469346280
N        0.6625672448    1.5831606635    0.3438037425
H        2.5357191703    0.8999897224   -0.0331659878
H        0.8622475434   -2.4673227079    0.0807118246
H       -1.5038233280   -1.8134784376    1.0928199826
H       -2.4320845884    0.3465238673    0.6543353656
H       -1.2501539875    2.3230288689    0.4123794622
C        1.1410348433   -0.0463675678   -1.3219856823
H        1.1158029364   -0.6310027793   -2.2128552328
13   
From optimize.out: Frame 26 / 51, Energy=    -286.9192373931
C        1.5081126612    0.8442781445   -0.3717911431
C        0.2918165347   -1.5833492098    0.1336011558
C       -0.8887696977   -1.1339749397    0.5238362468
C       -1.3775954948    0.2228283630    0.3971240962
C       -0.6728230488    1.3830373485    0.3460309750
N        0.6720834703    1.5699872735    0.3575229418
H        2.5477735716    0.8930506245   -0.0266960714
H        0.8187716220   -2.5224554332    0.1429274382
H       -1.5430969860   -1.8115876104    1.0919987883
H       -2.4301802116    0.3500666013    0.6316245292
H       -1.2397783861    2.3136857887    0.4093210433
C        1.1642786962    0.0080044458   -1.3613651310
H        1.1494072688   -0.5335713968   -2.2741348691
13   
From optimize.out: Frame 25 / 51, Energy=    -286.9182600220
C        1.5211393886    0.8470683981   -0.3701222024
C        0.2734442430   -1.6262209276    0.1752135908
C       -0.9047228865   -1.1484730759    0.5332639629
C       -1.3739383681    0.2147044812    0.3901622405
C       -0.6631317941    1.3730913207    0.3451272502
N        0.6815993024    1.5568135848    0.3712415317
H        2.5598277001    0.8861114855   -0.0202271008
H        0.7752944554   -2.5775888808    0.2051413518
H       -1.5823700741   -1.8096962692    1.0911778642
H       -2.4282753075    0.3536096613    0.6089145336
H       -1.2294029564    2.3043425843    0.4062626207
C        1.1875233251    0.0623769484   -1.4007434452
H        1.1830129720   -0.4361393108   -2.3354121979
13   
From optimize.out: Frame 23 / 51, Energy=    -286.9157172470
C        1.5341659324    0.8498585484   -0.3684536247
C        0.2550710877   -1.6690932719    0.2168249960
C       -0.9206761014   -1.1629712325    0.5426915987
C       -1.3702811470    0.2065806302    0.3832006580
C       -0.6534406703    1.3631451796    0.3442234546
N        0.6911147629    1.5436395988    0.3849595313
H        2.5718815689    0.8791722977   -0.0137590477
H        0.7318161030   -2.6327230426    0.2673536147
H       -1.6216426157   -1.8078044278    1.0903572123
H       -2.4263699037    0.3571530454    0.5862053522
H       -1.2190276903    2.2949992600    0.4032041974
C        1.2107686919    0.1167499368   -1.4401206574
H        1.2166199816   -0.3387065220   -2.3966872853
13   
From optimize.out: Frame 22 / 51, Energy=    -286.9143750484
C        1.5471923017    0.8526485950   -0.3667853996
C        0.2366971082   -1.7119662342    0.2584353932
C       -0.9366293412   -1.1774694104    0.5521191545
C       -1.3666238387    0.1984568117    0.3762393364
C       -0.6437496717    1.3531989278    0.3433195891
N        0.7006298723    1.5304653164    0.3986769587
H        2.5839351910    0.8722330537   -0.0072918859
H        0.6883366214   -2.6878579118    0.3295642730
H       -1.6609146329   -1.8059120990    1.0895368348
H       -2.4244640265    0.3606967523    0.5634969600
H       -1.2086525802    2.2856558203    0.4001457764
C        1.2340147603    0.1711234083   -1.4794967978
H        1.2502282364   -0.2412730300   -2.4579601929
13   
From optimize.out: Frame 21 / 51, Energy=    -286.9121761857
C        1.5602185050    0.8554385375   -0.3651175171
C        0.2183223421   -1.7548398070    0.3000448021
C       -0.9525826049   -1.1919676102    0.5615466306
C       -1.3629664500    0.1903330276    0.3692782641
C       -0.6340587931    1.3432525675    0.3424156548
N        0.7101446502    1.5172907383    0.4123938309
H        2.5959885782    0.8652937462   -0.0008255906
H        0.6448560643   -2.7429934823    0.3917733693
H       -1.7001861465   -1.8040192949    1.0887167341
H       -2.4225577009    0.3642407810    0.5407893337
H       -1.1982776188    2.2763122691    0.3970873606
C        1.2572614959    0.2254973611   -1.5188718944
H        1.2838376784   -0.1438388339   -2.5192309780
13   
From optimize.out: Frame 20 / 51, Energy=    -286.9099481961
C        1.5707392059    0.8433815247   -0.3691223546
C        0.2008022591   -1.7757466804    0.3330724380
C       -0.9704099250   -1.2011056078    0.5674289761
C       -1.3699657517    0.1846076154    0.3593938080
C       -0.6285329799    1.3295999785    0.3402248093
N        0.7158873185    1.4871770168    0.4209666633
H        2.5947062726    0.8120386996    0.0150211869
H        0.6193272738   -2.7661880414    0.4426612324
H       -1.7279209578   -1.8002093450    1.0963656095
H       -2.4287062423    0.3684980300    0.5263737148
H       -1.1817704573    2.2689472327    0.3974120729
C        1.2835744146    0.2825206778   -1.5568464455
H        1.3222695696   -0.0335211009   -2.5729517110
13   
From optimize.out: Frame 19 / 51, Energy=    -286.9066106666
C        1.5801614777    0.8248149880   -0.3756143753
C        0.1836571463   -1.7870223571    0.3623375345
C       -0.9890588997   -1.2078935252    0.5717569052
C       -1.3816374594    0.1799337800    0.3482275359
C       -0.6248332333    1.3143224471    0.3374697313
N        0.7199763370    1.4496363920    0.4272841107
H        2.5875772482    0.7384764635    0.0349806503
H        0.6016697010   -2.7753782648    0.4885855593
H       -1.7505976805   -1.7955591262    1.1077275735
H       -2.4383865488    0.3730679300    0.5155935787
H       -1.1625745527    2.2624497424    0.3992202058
C        1.3112313191    0.3407058208   -1.5942069030
H        1.3628151453    0.0824457095   -2.6233621070
13   
From optimize.out: Frame 18 / 51, Energy=    -286.9036992250
C        1.5895838175    0.8062485281   -0.3821064996
C        0.1665120555   -1.7982983145    0.3916024419
C       -1.0077078573   -1.2146815573    0.5760847335
C       -1.3933091426    0.1752599776    0.3370612704
C       -0.6211334094    1.2990449350    0.3347146440
N        0.7240655135    1.4120957020    0.4336013824
H        2.5804484891    0.6649140298    0.0549396173
H        0.5840121324   -2.7845688963    0.5345096418
H       -1.7732744233   -1.7909091055    1.1190894916
H       -2.4480668568    0.3776378719    0.5048135431
H       -1.1433785859    2.2559522977    0.4010284563
C        1.3388879962    0.3988913901   -1.6315669751
H        1.4033602713    0.1984131414   -2.6737717474
13   
From optimize.out: Frame 17 / 51, Energy=    -286.8981848410
C        1.5990062248    0.7876821450   -0.3885987307
C        0.1493669861   -1.8095745584    0.4208671542
C       -1.0263567988   -1.2214697043    0.5804124582
C       -1.4049808019    0.1705862114    0.3258950125
C       -0.6174335073    1.2837674421    0.3319595479
N        0.7281548485    1.3745549436    0.4399184741
H        2.5733199937    0.5913513921    0.0748980748
H        0.5663545674   -2.7937599457    0.5804334715
H       -1.7959511865   -1.7862592850    1.1304513622
H       -2.4577471659    0.3822078595    0.4940336116
H       -1.1241825543    2.2494548976    0.4028368287
C        1.3665444458    0.4570773943   -1.6689266521
H        1.4439049484    0.3143812079   -2.7241806129
13   
From optimize.out: Frame 16 / 51, Energy=    -286.8917432981
C        1.6061410098    0.7544795017   -0.3987397073
C        0.1244579194   -1.8165501811    0.4345638854
C       -1.0505551060   -1.2260856823    0.5824130082
C       -1.4240793685    0.1684359963    0.3172115789
C       -0.6164300950    1.2658652235    0.3292050931
N        0.7290345161    1.3276882967    0.4387759673
H        2.5639624897    0.5197926390    0.0776543578
H        0.5458587808   -2.7964557821    0.6064796706
H       -1.8165489240   -1.7779409493    1.1495389439
H       -2.4727703707    0.3887364117    0.4959170602
H       -1.1009767606    2.2418524297    0.4087640532
C        1.4060252648    0.5128172457   -1.6934114453
H        1.5058806442    0.4373648505   -2.7483724660
13   
From optimize.out: Frame 15 / 51, Energy=    -286.8722059834
C        1.6129321756    0.7190777657   -0.4094292307
C        0.0983822084   -1.8228798096    0.4459211305
C       -1.0755872538   -1.2303753715    0.5840637185
C       -1.4442938357    0.1666650047    0.3089012363
C       -0.6158317405    1.2475686358    0.3264507363
N        0.7294320904    1.2794203284    0.4365122889
H        2.5542702378    0.4485348670    0.0778252053
H        0.5249364178   -2.7981759960    0.6295387588
H       -1.8368343462   -1.7690716819    1.1697872932
H       -2.4885963640    0.3955592099    0.4997034439
H       -1.0771683690    2.2340839066    0.4153104242
C        1.4472826342    0.5681899631   -1.7159611528
H        1.5710761450    0.5614031779   -2.7686238524
13   
From optimize.out: Frame 14 / 51, Energy=    -286.8702422075
C        1.6197234612    0.6836761390   -0.4201190950
C        0.0723064349   -1.8292096832    0.4572780244
C       -1.1006194190   -1.2346651689    0.5857142345
C       -1.4645082611    0.1648940718    0.3005909319
C       -0.6152332640    1.2292720631    0.3236963821
N        0.7298298684    1.2311522962    0.4342482406
H        2.5445781891    0.3772769464    0.0779952306
H        0.5040139260   -2.7998966053    0.6525974061
H       -1.8571198472   -1.7602027449    1.1900355609
H       -2.5044223392    0.4023819744    0.5034900435
H       -1.0533598507    2.2263153699    0.4218570978
C        1.4885398445    0.6235631751   -1.7385102124
H        1.6362712571    0.6854421664   -2.7888738449
13   
From optimize.out: Frame 13 / 51, Energy=    -286.8682085675
C        1.6265920475    0.6494665550   -0.4314563757
C        0.0467342781   -1.8340340288    0.4666469510
C       -1.1253375670   -1.2382726765    0.5863293432
C       -1.4853817285    0.1639990675    0.2921915279
C       -0.6151023181    1.2114541826    0.3214027387
N        0.7295778031    1.1832706144    0.4315000095
H        2.5313624988    0.3015305924    0.0761419611
H        0.4846320807   -2.7996746050    0.6730992342
H       -1.8759409430   -1.7509201153    1.2099273283
H       -2.5207811513    0.4090295743    0.5083330283
H       -1.0294985062    2.2187250917    0.4300816999
C        1.5303921130    0.6783732634   -1.7589802905
H        1.7027513930    0.8070524843   -2.8052171559
13   
From optimize.out: Frame 12 / 51, Energy=    -286.8152814834
C        1.6339828928    0.6233188023   -0.4471702591
C        0.0245688547   -1.8286742099    0.4625725741
C       -1.1479316395   -1.2372650084    0.5799427649
C       -1.5107129628    0.1690277607    0.2831891818
C       -0.6181342879    1.1968738287    0.3222250340
N        0.7249294787    1.1380024977    0.4254793745
H        2.4943140099    0.1954273319    0.0606095442
H        0.4756713912   -2.7863110626    0.6763109762
H       -1.8848569563   -1.7388373665    1.2274085369
H       -2.5407440404    0.4144923886    0.5203194415
H       -1.0052808159    2.2123407778    0.4496529301
C        1.5762696620    0.7293717165   -1.7653933970
H        1.7779244137    0.9122325430   -2.7951467020
13   