13   
From optimize.out: Frame 2 / 3, Energy=    -286.9243457448
C        1.3472515847    0.8471269015   -0.5704831078
C        0.2493269033   -1.4171693927   -0.2298456718
C       -0.9303587591   -1.0642376942    0.3544671919
C       -1.3751082017    0.2694510511    0.6690993065
C       -0.7124542785    1.4634158877    0.4565457979
N        0.4890174313    1.7744295363   -0.0849378111
H        2.2578093568    1.3015884455   -0.9674658055
H        0.4258924868   -2.4781684505   -0.3950965960
H       -1.6167315406   -1.8670413326    0.6160883127
H       -2.3535799602    0.3520229829    1.1361447548
H       -1.2541165101    2.3528849344    0.7859345114
C        1.3014963144   -0.5317091505   -0.6595939709
H        2.1715551728   -1.0025937188   -1.1108569119
13   
From optimize.out: Frame 1 / 3, Energy=    -286.9243426791
C        1.3593379396    0.8503321043   -0.5452956325
C        0.2546577630   -1.4130332009   -0.2205774436
C       -0.9182169046   -1.0707177225    0.3883343808
C       -1.3687001895    0.2673631770    0.6821018085
C       -0.7066559793    1.4557009376    0.4722301085
N        0.5260287700    1.7644485221   -0.0198629986
H        2.2666666902    1.3009710265   -0.9557829859
H        0.4218961038   -2.4715312163   -0.4025093633
H       -1.5992700912   -1.8749765506    0.6665627121
H       -2.3824009786    0.3689211559    1.0658744450
H       -1.2823871375    2.3468258987    0.7319564332
C        1.2944836404   -0.5316727120   -0.6749270668
H        2.1345603736   -0.9926314199   -1.1881043974
13   
From optimize.out: Frame 50 / 51, Energy=    -286.9243426875
C        1.3633363696    0.8520189349   -0.5278427658
C        0.2515853857   -1.4084923610   -0.2227568172
C       -0.8951575493   -1.0709451618    0.4409445819
C       -1.3711946287    0.2704108764    0.6761368889
C       -0.7130266908    1.4539283015    0.4640755977
N        0.5527580107    1.7524967284    0.0372667222
H        2.2856435476    1.2999873785   -0.9064914115
H        0.4337554389   -2.4641683211   -0.4184262064
H       -1.5790065462   -1.8645559575    0.7312998659
H       -2.4046871234    0.3491071280    1.0076244626
H       -1.2863463584    2.3537548821    0.6867112397
C        1.2652872299   -0.5265819832   -0.7222137317
H        2.0970529145   -0.9969604453   -1.2463284263
13   
From optimize.out: Frame 49 / 51, Energy=    -286.9243392299
C        1.3738665203    0.8498160770   -0.5025229469
C        0.2370988651   -1.4043372004   -0.2540424412
C       -0.8780064815   -1.0737022743    0.4640490231
C       -1.3791647714    0.2721017899    0.6565535171
C       -0.7205323523    1.4573269635    0.4515817418
N        0.5734608127    1.7427694018    0.0701915637
H        2.3056747371    1.2970208205   -0.8442391881
H        0.4201976267   -2.4573951466   -0.4592079688
H       -1.5219594548   -1.8723709317    0.8303685202
H       -2.4206577218    0.3359578161    0.9790562568
H       -1.2919674797    2.3714686487    0.6379821426
C        1.2361158590   -0.5226634269   -0.7568853749
H        2.0658738407   -0.9959925376   -1.2728848453
13   
From optimize.out: Frame 48 / 51, Energy=    -286.9243334484
C        1.3780571836    0.8479383184   -0.4763013059
C        0.2292129981   -1.3982315644   -0.2729290884
C       -0.8736466312   -1.0730864531    0.4707947061
C       -1.3896682139    0.2744661438    0.6369855102
C       -0.7327629392    1.4591675759    0.4407289504
N        0.5819326902    1.7311306522    0.1019124400
H        2.3395125216    1.2760981104   -0.7707960129
H        0.4005437235   -2.4556468307   -0.4636112638
H       -1.4561641515   -1.8809546248    0.9171809432
H       -2.4306654047    0.3315565727    0.9499603048
H       -1.2963496139    2.3822385494    0.5969776059
C        1.2120253798   -0.5189536927   -0.7992887211
H        2.0379724576   -0.9757227572   -1.3316140686
13   
From optimize.out: Frame 46 / 51, Energy=    -286.9243183794
C        1.3718017191    0.8373857553   -0.4545408098
C        0.2393076308   -1.4003673392   -0.2730607470
C       -0.8713249481   -1.0613452427    0.4689033838
C       -1.4035605127    0.2813009030    0.6202023259
C       -0.7433949363    1.4621672769    0.4380442319
N        0.5847371101    1.7132363697    0.1382908137
H        2.3618239001    1.2430306947   -0.6951601110
H        0.4188004497   -2.4647201573   -0.4425381573
H       -1.4022130076   -1.8686965123    0.9715887919
H       -2.4471365400    0.3377306978    0.9227803568
H       -1.3015100005    2.3922294174    0.5677905201
C        1.1883859633   -0.5156055440   -0.8470167228
H        2.0042831720   -0.9563463190   -1.4152838762
13   
From optimize.out: Frame 45 / 51, Energy=    -286.9243033293
C        1.3663032038    0.8200667133   -0.4421185269
C        0.2455853755   -1.4111186169   -0.2802850369
C       -0.8558007844   -1.0406535309    0.4636756909
C       -1.4216349015    0.2878231621    0.6099378565
C       -0.7515152592    1.4606076015    0.4358560220
N        0.5912013279    1.6844471620    0.1788953704
H        2.3766128780    1.2079624763   -0.6326423553
H        0.4622055641   -2.4819931723   -0.4061643018
H       -1.3554725371   -1.8299372445    1.0019092214
H       -2.4770732174    0.3521388793    0.9030321600
H       -1.3116206074    2.3947289812    0.5485835819
C        1.1678912039   -0.5151471055   -0.8801171208
H        1.9633177538   -0.9289253057   -1.5005625614
13   
From optimize.out: Frame 44 / 51, Energy=    -286.9242776647
C        1.3773781433    0.8158794104   -0.4283913466
C        0.2301068276   -1.4100522730   -0.3076637022
C       -0.8372765690   -1.0347436031    0.4704643995
C       -1.4332050578    0.2854400088    0.5949919917
C       -0.7565992480    1.4511731021    0.4154240536
N        0.6017157105    1.6573766299    0.2119067604
H        2.4061415942    1.1787181297   -0.5647597533
H        0.4912049170   -2.4770119488   -0.3609789326
H       -1.3203603774   -1.8054563348    1.0428160612
H       -2.4933065787    0.3621048386    0.8864484224
H       -1.3209903147    2.3803983841    0.5243204994
C        1.1505369603   -0.5113366172   -0.9013185256
H        1.9046539929   -0.8924897268   -1.5832599278
13   
From optimize.out: Frame 43 / 51, Energy=    -286.9242436742
C        1.3932869457    0.8169578770   -0.4088436521
C        0.2233149770   -1.3978107992   -0.3187333452
C       -0.8354715493   -1.0410497366    0.4826870604
C       -1.4374640016    0.2802944590    0.5715805596
C       -0.7566289938    1.4421060033    0.3921259831
N        0.6077728001    1.6401497290    0.2324438825
H        2.4344955970    1.1533135976   -0.4851045251
H        0.5278716125   -2.4516526017   -0.3113966784
H       -1.3148445678   -1.8057647640    1.0816697476
H       -2.4875155311    0.3673259484    0.8703344652
H       -1.3225683332    2.3645529888    0.4978281913
C        1.1342001104   -0.5008657293   -0.9318987835
H        1.8335509341   -0.8675569720   -1.6726929055
13   
From optimize.out: Frame 42 / 51, Energy=    -286.9241906073
C        1.4068604339    0.8118145430   -0.3836356352
C        0.2278324462   -1.3862098327   -0.3133156577
C       -0.8422173741   -1.0471841631    0.4945523554
C       -1.4364342935    0.2741623021    0.5455325436
C       -0.7526923847    1.4343063447    0.3735088743
N        0.6110953287    1.6289386814    0.2515354369
H        2.4557330192    1.1336548468   -0.4095785583
H        0.5708715777   -2.4269494620   -0.2595707686
H       -1.3230883262   -1.8102603690    1.1104194910
H       -2.4745254173    0.3701907279    0.8517478052
H       -1.3213156742    2.3527822833    0.4720323881
C        1.1163632432   -0.4850755919   -0.9668183195
H        1.7615174209   -0.8501703105   -1.7664099552
13   
From optimize.out: Frame 40 / 51, Energy=    -286.9239840559
C        1.4127375196    0.7940610986   -0.3569452162
C        0.2483819561   -1.3703970094   -0.2877742396
C       -0.8469844487   -1.0480786796    0.5004181383
C       -1.4306349294    0.2673943568    0.5198739945
C       -0.7448045502    1.4287207548    0.3644360697
N        0.6147920124    1.6193682818    0.2734360602
H        2.4667149156    1.1074674386   -0.3542779449
H        0.6212539639   -2.3961211040   -0.2036764735
H       -1.3320014975   -1.8129503191    1.1153529911
H       -2.4622498665    0.3657891497    0.8255254982
H       -1.3158852169    2.3474625126    0.4543478745
C        1.0883846723   -0.4673716861   -1.0007234808
H        1.6802954693   -0.8353447948   -1.8499932715
13   
From optimize.out: Frame 39 / 51, Energy=    -286.9238885964
C        1.4089388648    0.7850470436   -0.3259963340
C        0.2676087140   -1.3489356538   -0.2536476733
C       -0.8376282645   -1.0440978926    0.4983621973
C       -1.4172565690    0.2541204804    0.4934610658
C       -0.7378606069    1.4263980291    0.3580592775
N        0.6234243081    1.6146314043    0.2988770371
H        2.4611395570    1.0470429922   -0.3208668218
H        0.6544935883   -2.3561444987   -0.1477027732
H       -1.3180232488   -1.8071592645    1.1044566504
H       -2.4539695907    0.3502949523    0.7911869927
H       -1.3120865359    2.3446266922    0.4480314649
C        1.0536062852   -0.4417191775   -1.0253128427
H        1.6076134982   -0.8241051071   -1.9189082408
13   
From optimize.out: Frame 38 / 51, Energy=    -286.9237701139
C        1.4089719326    0.7799116579   -0.2821773383
C        0.2754005359   -1.3613643948   -0.2081771514
C       -0.8250575329   -1.0477790429    0.4931532371
C       -1.3956173394    0.2408364918    0.4716920980
C       -0.7266152306    1.4236064022    0.3553237647
N        0.6383009424    1.6201845237    0.3290424906
H        2.4637812243    1.0373642313   -0.3221990481
H        0.6673410020   -2.3536872024   -0.0944370973
H       -1.3193593637   -1.7874995698    1.0880057300
H       -2.4424322023    0.3291678550    0.7520021031
H       -1.3103301600    2.3378824682    0.4380641460
C        1.0337129523   -0.4056246796   -1.0443866804
H        1.5319032396   -0.8129987406   -1.9759062541
13   
From optimize.out: Frame 37 / 51, Energy=    -286.9236015947
C        1.4212052286    0.7895824150   -0.2664091777
C        0.2618213339   -1.4024961512   -0.1697984321
C       -0.8266718975   -1.0605218447    0.5014243776
C       -1.3816375331    0.2277362839    0.4556684324
C       -0.7189916553    1.4157370516    0.3424647662
N        0.6512740664    1.6201617230    0.3407170524
H        2.4843779635    1.0350650512   -0.2936941513
H        0.6659626916   -2.3801717222   -0.0718708213
H       -1.3304860811   -1.7757959638    1.1055910764
H       -2.4381239930    0.3202142287    0.7264545404
H       -1.3045730456    2.3272169162    0.4224166432
C        1.0580008638   -0.3344816573   -1.0779856454
H        1.4578420578   -0.7822463305   -2.0149786609
13   
From optimize.out: Frame 36 / 51, Energy=    -286.9233541294
C        1.4252713022    0.8114829887   -0.3018072497
C        0.2560229632   -1.4150185416   -0.1589536591
C       -0.8520533425   -1.0689580585    0.5150280466
C       -1.3958717586    0.2297894055    0.4567294377
C       -0.7238118050    1.4163544757    0.3308749813
N        0.6418049462    1.6114783749    0.3087370527
H        2.5046736665    1.0404225328   -0.2007686724
H        0.7040929519   -2.3938211196   -0.0982892911
H       -1.3531688803   -1.8000187587    1.1421571468
H       -2.4420829137    0.3494983796    0.7515812990
H       -1.3016454033    2.3336127659    0.4136666111
C        1.0943915205   -0.3201659466   -1.1238590891
H        1.4423767530   -0.7946564981   -2.0350966138
13   
From optimize.out: Frame 34 / 51, Energy=    -286.9228774849
C        1.4407904293    0.8297841409   -0.3050547354
C        0.2738541384   -1.4558088897   -0.1110340360
C       -0.8561678973   -1.0823014027    0.5165990323
C       -1.3872517683    0.2322223900    0.4445469690
C       -0.7107372974    1.4159920042    0.3308194478
N        0.6466115269    1.6192116757    0.3160612744
H        2.5089633145    1.0385898067   -0.1547581315
H        0.7563812120   -2.4273550553   -0.0780674899
H       -1.3932283981   -1.7993587851    1.1422731654
H       -2.4305796824    0.3512253570    0.7315548489
H       -1.2942882926    2.3317995641    0.4016455587
C        1.1064805291   -0.2662010324   -1.1654489050
H        1.3391721857   -0.7877997733   -2.0691369985
13   
From optimize.out: Frame 33 / 51, Energy=    -286.9225838900
C        1.4510523927    0.8346076032   -0.3044843015
C        0.2934651206   -1.4805956500   -0.0617575461
C       -0.8482793969   -1.0906526237    0.5184042524
C       -1.3731459649    0.2292749946    0.4290364704
C       -0.6969129180    1.4128181915    0.3285356005
N        0.6564831778    1.6204100166    0.3334734488
H        2.5176054499    1.0117454839   -0.1183307117
H        0.7953032582   -2.4404027767   -0.0438068508
H       -1.4106070119   -1.8000037883    1.1352130074
H       -2.4218868803    0.3428299561    0.6960846156
H       -1.2841653675    2.3274713674    0.3918750557
C        1.0987338222   -0.2047390483   -1.1999767113
H        1.2223543182   -0.7627637263   -2.1042663293
13   
From optimize.out: Frame 32 / 51, Energy=    -286.9222447379
C        1.4515622793    0.8212313839   -0.3129330132
C        0.3256045658   -1.4679596386   -0.0125345917
C       -0.8400704416   -1.0897705127    0.5122279072
C       -1.3721754581    0.2313576664    0.4147896124
C       -0.6897751354    1.4108744196    0.3353355504
N        0.6623687586    1.6057967128    0.3468876111
H        2.5145221890    0.9506593307   -0.0851304793
H        0.8590602773   -2.4085619400   -0.0051523599
H       -1.4174491813   -1.8042956214    1.1119688593
H       -2.4247813130    0.3341626236    0.6686673697
H       -1.2697904706    2.3310326651    0.3956365626
C        1.0750635995   -0.1713606972   -1.2327962828
H        1.1258603305   -0.7431663922   -2.1369667458
13   
From optimize.out: Frame 31 / 51, Energy=    -286.9218602726
C        1.4472163568    0.7996463613   -0.3253413819
C        0.3620300139   -1.4375576860    0.0337304817
C       -0.8321915973   -1.0843723701    0.5024703881
C       -1.3777622530    0.2358046760    0.4020165238
C       -0.6863708743    1.4096552194    0.3462249346
N        0.6659317680    1.5842304872    0.3575245878
H        2.5058221469    0.8762684999   -0.0555029455
H        0.9313098299   -2.3564040225    0.0333732591
H       -1.4186703604   -1.8101369112    1.0821018342
H       -2.4332368054    0.3258758585    0.6468678486
H       -1.2541679344    2.3382858964    0.4058687574
C        1.0449228680   -0.1538666526   -1.2628166026
H        1.0451668414   -0.7274293564   -2.1665176852
13   
From optimize.out: Frame 30 / 51, Energy=    -286.9213063216
C        1.4602741948    0.8059657921   -0.3453323510
C        0.3587374935   -1.4573464589    0.0643117322
C       -0.8414497816   -1.0927735596    0.5023088366
C       -1.3810770337    0.2364155125    0.3991065432
C       -0.6848583834    1.4046928664    0.3501313141
N        0.6651493398    1.5779512945    0.3553086185
H        2.5116500810    0.8601125365   -0.0390008087
H        0.9364620802   -2.3705281232    0.0559725708
H       -1.4434024708   -1.8133280868    1.0758293172
H       -2.4358210171    0.3295797651    0.6441643087
H       -1.2486343562    2.3365276385    0.4116506417
C        1.0643371392   -0.1178128440   -1.2885380346
H        1.0386327143   -0.6994563328   -2.1859126888
13   
From optimize.out: Frame 29 / 51, Energy=    -286.9207127555
C        1.4869089033    0.8334081737   -0.3673447342
C        0.3217548398   -1.5204538388    0.0846943100
C       -0.8652870489   -1.1130427811    0.5113595252
C       -1.3813650915    0.2324589327    0.4031501020
C       -0.6833416936    1.3959065839    0.3477297331
N        0.6628386867    1.5823367059    0.3459487341
H        2.5299340414    0.8909991905   -0.0345240150
H        0.8805308782   -2.4437461187    0.0733383638
H       -1.4891173106   -1.8135386621    1.0889270544
H       -2.4330203613    0.3426061071    0.6527302486
H       -1.2500847471    2.3263722450    0.4123732699
C        1.1230967188   -0.0639403679   -1.3134041238
H        1.0971521847   -0.6493661702   -2.2049784681
13   
From optimize.out: Frame 28 / 51, Energy=    -286.9201618010
C        1.5039150421    0.8433790177   -0.3723290406
C        0.2977362823   -1.5695350108    0.1201921868
C       -0.8836291660   -1.1293032622    0.5207983606
C       -1.3787738852    0.2254461024    0.3993674829
C       -0.6759458720    1.3862421850    0.3463221560
N        0.6690170901    1.5742320890    0.3531022521
H        2.5438893240    0.8952865858   -0.0287808500
H        0.8327807164   -2.5046902076    0.1228799182
H       -1.5304419723   -1.8121968850    1.0922633989
H       -2.4307938523    0.3489250384    0.6389425627
H       -1.2431216799    2.3166963768    0.4103065469
C        1.1567889106   -0.0095156584   -1.3486760287
H        1.1385790621   -0.5649663711   -2.2543889458
13   
From optimize.out: Frame 27 / 51, Energy=    -286.9197326088
C        1.5169082663    0.8461621149   -0.3706642796
C        0.2794116215   -1.6122960579    0.1616977402
C       -0.8995412403   -1.1437640354    0.5302018109
C       -1.3751262144    0.2173431437    0.3924234733
C       -0.6662795443    1.3763218220    0.3454207829
N        0.6785085300    1.5610924406    0.3667856903
H        2.5559124810    0.8883653398   -0.0223282429
H        0.7894159767   -2.5596813625    0.1849340757
H       -1.5696140508   -1.8103105828    1.0914445029
H       -2.4288940264    0.3524588642    0.6162908121
H       -1.2327729288    2.3073772866    0.4072560060
C        1.1799733960    0.0447165874   -1.3879532441
H        1.1720977333   -0.4677855608   -2.3155091275
13   
From optimize.out: Frame 26 / 51, Energy=    -286.9192373931
C        1.5298852371    0.8489416680   -0.3690019415
C        0.2611087506   -1.6550048501    0.2031509355
C       -0.9154336631   -1.1582069457    0.5395935524
C       -1.3714829584    0.2092502356    0.3854883265
C       -0.6566253023    1.3664136137    0.3445204538
N        0.6879878562    1.5479687456    0.3804516144
H        2.5679205075    0.8814526070   -0.0158845359
H        0.7461036671   -2.6146052247    0.2469098388
H       -1.6087371369   -1.8084261120    1.0906268894
H       -2.4269960447    0.3559886423    0.5936678909
H       -1.2224371406    2.2980696005    0.4042092359
C        1.2031299556    0.0988822505   -1.4271807824
H        1.2055762718   -0.3707242306   -2.3765514776
13   
From optimize.out: Frame 25 / 51, Energy=    -286.9182600220
C        1.5428463134    0.8517177516   -0.3673419696
C        0.2428272199   -1.6976625256    0.2445529142
C       -0.9313068609   -1.1726323826    0.5489738385
C       -1.3678440267    0.2011671617    0.3785618425
C       -0.6469828800    1.3565172963    0.3436211458
N        0.6974553458    1.5348606529    0.3941004127
H        2.5799137404    0.8745481940   -0.0094495254
H        0.7028426831   -2.6694632625    0.3088089278
H       -1.6478123077   -1.8065434368    1.0898105373
H       -2.4250998844    0.3595144652    0.5710731621
H       -1.2121140287    2.2887730726    0.4011661576
C        1.2262591733    0.1529827842   -1.4663597340
H        1.2390155126   -0.2737797710   -2.4375177096
13   
From optimize.out: Frame 22 / 51, Energy=    -286.9143750484
C        1.5557919047    0.8544904516   -0.3656843015
C        0.2245665058   -1.7402703914    0.2859049781
C       -0.9471613229   -1.1870407920    0.5583429597
C       -1.3642093139    0.1930936743    0.3716437949
C       -0.6373519742    1.3466325671    0.3427228322
N        0.7069113121    1.5217677598    0.4077325256
H        2.5918925630    0.8676518808   -0.0030229849
H        0.6596317470   -2.7242571608    0.3706333027
H       -1.6868407925   -1.8046625128    1.0889954229
H       -2.4232055137    0.3630364394    0.5485059018
H       -1.2018032668    2.2794874204    0.3981266799
C        1.2493617262    0.2070198546   -1.5054913406
H        1.2724164252   -0.1769491910   -2.4984097710
13   
From optimize.out: Frame 21 / 51, Energy=    -286.9121761857
C        1.5673823243    0.8472286035   -0.3678445153
C        0.2063924612   -1.7690758416    0.3225341796
C       -0.9647216915   -1.1981899108    0.5655520728
C       -1.3677324568    0.1864344453    0.3625476805
C       -0.6302961230    1.3339561640    0.3409238510
N        0.7140549826    1.4967855210    0.4182312958
H        2.5951154229    0.8290309979    0.0099648929
H        0.6274728459   -2.7587872617    0.4264242407
H       -1.7190715019   -1.8014250008    1.0939250526
H       -2.4267444029    0.3671396528    0.5309733633
H       -1.1870374626    2.2712972240    0.3973084657
C        1.2751786476    0.2643260227   -1.5447297553
H        1.3100069541   -0.0687206162   -2.5558108243
13   
From optimize.out: Frame 20 / 51, Energy=    -286.9099481961
C        1.5772329233    0.8305856890   -0.3735965779
C        0.1889860517   -1.7835177424    0.3532415936
C       -0.9832625761   -1.2057837596    0.5704117332
C       -1.3780097535    0.1813864637    0.3516981464
C       -0.6259831587    1.3190708860    0.3383260424
N        0.7187054213    1.4613044657    0.4253205728
H        2.5897930340    0.7613404834    0.0287770111
H        0.6071578851   -2.7725218338    0.4743117310
H       -1.7435494848   -1.7970044696    1.1041961396
H       -2.4353777942    0.3716475506    0.5189441735
H       -1.1685408687    2.2644692398    0.3986582165
C        1.3026352234    0.3226211847   -1.5825948274
H        1.3502130970    0.0464018424   -2.6076939550
13   
From optimize.out: Frame 19 / 51, Energy=    -286.9066106666
C        1.5866165594    0.8120954280   -0.3800620172
C        0.1719113416   -1.7947473201    0.3823864155
C       -1.0018349774   -1.2125438884    0.5747218254
C       -1.3896335273    0.1767318389    0.3405777209
C       -0.6222985481    1.3038560883    0.3355822687
N        0.7227777609    1.4239179158    0.4316119641
H        2.5826934589    0.6880801148    0.0486541928
H        0.5895728067   -2.7816746072    0.5200473525
H       -1.7661331240   -1.7923734776    1.1155114267
H       -2.4450183601    0.3761987180    0.5082083631
H       -1.1494237284    2.2579984556    0.4004590069
C        1.3301784293    0.3805677461   -1.6198016411
H        1.3905919086    0.1618929877   -2.6578968782
13   
From optimize.out: Frame 18 / 51, Energy=    -286.9036992250
C        1.5959936538    0.7936182657   -0.3865230077
C        0.1548486785   -1.8059692711    0.4115105194
C       -1.0203942821   -1.2192993699    0.5790287801
C       -1.4012490908    0.1720805272    0.3294651346
C       -0.6186164553    1.2886520253    0.3328404186
N        0.7268473894    1.3865576300    0.4378987474
H        2.5755991457    0.6148711426    0.0685168743
H        0.5720001171   -2.7908213454    0.5657505149
H       -1.7887008780   -1.7877459448    1.1268186980
H       -2.4546521375    0.3807467242    0.4974802158
H       -1.1303199888    2.2515322732    0.4022586484
C        1.3577020114    0.4384739246   -1.6569818618
H        1.4309418367    0.2773034184   -2.7080636821
13   
From optimize.out: Frame 17 / 51, Energy=    -286.8981848410
C        1.6038613128    0.7650883659   -0.3954994760
C        0.1324168311   -1.8143213394    0.4301875241
C       -1.0428232952   -1.2246107912    0.5817737951
C       -1.4179770200    0.1691230302    0.3199860980
C       -0.6167507040    1.2715853165    0.3300851928
N        0.7287534459    1.3426630651    0.4391410196
H        2.5669523869    0.5426569961    0.0767736740
H        0.5524075671   -2.7955944121    0.5981574239
H       -1.8099675624   -1.7805988128    1.1434401053
H       -2.4679701764    0.3866504174    0.4953152632
H       -1.1083914448    2.2442815601    0.4068701943
C        1.3934104062    0.4950073229   -1.6855880969
H        1.4860782527    0.3980692814   -2.7406427174
13   
From optimize.out: Frame 16 / 51, Energy=    -286.8917432981
C        1.6107495982    0.7304553450   -0.4059937805
C        0.1067625452   -1.8208455633    0.4422710847
C       -1.0675423023   -1.2289967307    0.5835332053
C       -1.4377972135    0.1672341744    0.3115720539
C       -0.6160240426    1.2534488807    0.3273359446
N        0.7293043161    1.2949329190    0.4372398007
H        2.5573851801    0.4714360307    0.0777702976
H        0.5316605469   -2.7976231454    0.6221279187
H       -1.8303149202   -1.7719221295    1.1632797818
H       -2.4835101306    0.3933664664    0.4984865578
H       -1.0848200238    2.2365805917    0.4132065202
C        1.4340231434    0.5503940143   -1.7087140200
H        1.5501233030    0.5215391467   -2.7621153649
13   
From optimize.out: Frame 15 / 51, Energy=    -286.8722059834
C        1.6175117771    0.6952052100   -0.4166377803
C        0.0807984018   -1.8271482649    0.4535794815
C       -1.0924673188   -1.2332681320    0.5851767192
C       -1.4579251301    0.1654708027    0.3032973072
C       -0.6154281669    1.2352306166    0.3245933788
N        0.7297003261    1.2468715052    0.4349855619
H        2.5477345502    0.4004831576    0.0779398593
H        0.5108276494   -2.7993362631    0.6450880116
H       -1.8505135694   -1.7630910474    1.1834414087
H       -2.4992683729    0.4001600387    0.5022568805
H       -1.0611134519    2.2288453105    0.4197250753
C        1.4751038148    0.6055300576   -1.7311667728
H        1.6150394905    0.6450470083   -2.7822791309
13   
From optimize.out: Frame 14 / 51, Energy=    -286.8702422075
C        1.6243639479    0.6605637961   -0.4277786772
C        0.0550296257   -1.8324690602    0.4636077665
C       -1.1173192512   -1.2371024377    0.5861298082
C       -1.4786105879    0.1642893978    0.2949162091
C       -0.6151447956    1.2172341218    0.3221467733
N        0.7296595705    1.1988029450    0.4323915077
H        2.5356495343    0.3261019393    0.0767431428
H        0.4909193542   -2.7997466196    0.6664486497
H       -1.8698355710   -1.7539313059    1.2034746413
H       -2.5154745191    0.4068731605    0.5067620133
H       -1.0372388836    2.2211873008    0.4274137227
C        1.5168156628    0.6605934282   -1.7523400054
H        1.6811859131    0.7676033340   -2.7999155520
13   
From optimize.out: Frame 13 / 51, Energy=    -286.8682085675
C        1.6315704607    0.6318536415   -0.4420411197
C        0.0318038292   -1.8304236984    0.4639024839
C       -1.1405567504   -1.2375939195    0.5820273960
C       -1.5024446418    0.1673863543    0.2861276208
C       -0.6171446283    1.2016329748    0.3219566301
N        0.7264467296    1.1527783793    0.4274445587
H        2.5064069381    0.2300602994    0.0656794514
H        0.4785962332   -2.7906730315    0.6752626375
H       -1.8819466971   -1.7427812740    1.2217025282
H       -2.5342279910    0.4127092816    0.5164069787
H       -1.0131856671    2.2144246698    0.4432647213
C        1.5612948567    0.7127254065   -1.7633001069
H        1.7533873282    0.8779009161   -2.7984337801
13   
From optimize.out: Frame 11 / 51, Energy=    -286.7966291999
C        1.6389293543    0.6058197344   -0.4576866371
C        0.0097349103   -1.8250873504    0.4598459811
C       -1.1630524574   -1.2365908730    0.5756686948
C       -1.5276657377    0.1723928494    0.2771643796
C       -0.6201633705    1.1871160069    0.3227752582
N        0.7218189413    1.1077072167    0.4214501030
H        2.4695205343    0.1244184101    0.0502148027
H        0.4696746010   -2.7773675905    0.6784606476
H       -1.8908239257   -1.7307511398    1.2391078212
H       -2.5541041322    0.4181480520    0.5283411704
H       -0.9890734440    2.2080683543    0.4627506279
C        1.6069723557    0.7635023474   -1.7696854591
H        1.8282323705    0.9826239824   -2.7884073904
13   
From optimize.out: Frame 9 / 51, Energy=    -286.7631364478
C        1.6457653645    0.5785933872   -0.4740229726
C       -0.0129004472   -1.8197314865    0.4544719700
C       -1.1858523298   -1.2353726916    0.5688785733
C       -1.5535846369    0.1781252358    0.2683757890
C       -0.6234824732    1.1727443044    0.3237993756
N        0.7166625521    1.0623356226    0.4147671649
H        2.4323742210    0.0201687998    0.0323146957
H        0.4601869437   -2.7640921595    0.6799068112
H       -1.8991523185   -1.7183520116    1.2565152761
H       -2.5744111286    0.4237554638    0.5412338217
H       -0.9645039819    2.2014417297    0.4834881634
C        1.6536456498    0.8135392081   -1.7746569710
H        1.9052525849    1.0868445978   -2.7750716973
13   
From optimize.out: Frame 8 / 51, Energy=    -286.7149721109
C        1.6495456640    0.5454577333   -0.4937685701
C       -0.0381035817   -1.8143990974    0.4419584984
C       -1.2097684841   -1.2329956611    0.5598744617
C       -1.5827142824    0.1877243503    0.2607683935
C       -0.6283774954    1.1595293481    0.3259328943
N        0.7087141294    1.0164258691    0.4044496545
H        2.3947042344   -0.0738222497    0.0014141271
H        0.4478092305   -2.7513103632    0.6716475180
H       -1.9042462662   -1.7042222637    1.2735040115
H       -2.5965939604    0.4301570563    0.5590982577
H       -0.9380168845    2.1934853477    0.5106225900
C        1.7046655295    0.8582542373   -1.7717019441
H        1.9923821670    1.1857156930   -2.7437998924
13   
From optimize.out: Frame 7 / 51, Energy=    -286.7061958580
C        1.6519482019    0.5096487101   -0.5150567333
C       -0.0644705704   -1.8090763228    0.4262208283
C       -1.2341932928   -1.2300953803    0.5498694238
C       -1.6132988721    0.1990700461    0.2536923148
C       -0.6339846100    1.1468335265    0.3285674160
N        0.6995044796    0.9702636048    0.3924898603
H        2.3567906377   -0.1632042575   -0.0353593475
H        0.4341249213   -2.7387486790    0.6590071328
H       -1.9078818782   -1.6893086735    1.2903074764
H       -2.6196279941    0.4369181631    0.5792098380
H       -0.9106590371    2.1849274126    0.5406492449
C        1.7576571103    0.9005776142   -1.7651694864
H        2.0840909038    1.2821942358   -2.7044279683
13   