13   
From optimize.out: Frame 50 / 51, Energy=    -286.9243426875
C        1.3465104195    0.8469828365   -0.5700229709
C        0.2498509821   -1.4175871674   -0.2288799240
C       -0.9303211124   -1.0644071882    0.3542008989
C       -1.3755064533    0.2694998004    0.6674314811
C       -0.7119144328    1.4632636173    0.4570171237
N        0.4898041816    1.7747225393   -0.0831427828
H        2.2547772053    1.3025389338   -0.9692946358
H        0.4268808946   -2.4788071002   -0.3925520185
H       -1.6168568507   -1.8669579562    0.6148219268
H       -2.3541047705    0.3526943603    1.1339956277
H       -1.2519685905    2.3527968545    0.7876220679
C        1.3016303249   -0.5320265781   -0.6593694333
H        2.1712182022   -1.0027129518   -1.1118273608
13   
From optimize.out: Frame 49 / 51, Energy=    -286.9243392299
C        1.3590864520    0.8497447867   -0.5480184831
C        0.2545127816   -1.4139640990   -0.2220754832
C       -0.9224796005   -1.0708621579    0.3774119675
C       -1.3685181148    0.2667436369    0.6823619260
C       -0.7054360995    1.4563855725    0.4734449843
N        0.5210749654    1.7667740684   -0.0316182115
H        2.2628604156    1.3013943639   -0.9641568142
H        0.4186621342   -2.4728101225   -0.4018377479
H       -1.6010904138   -1.8778315943    0.6569696048
H       -2.3781370788    0.3727557954    1.0782234099
H       -1.2817956595    2.3463785867    0.7398209488
C        1.2996514409   -0.5326478042   -0.6654730065
H        2.1416087772   -0.9920610326   -1.1750530949
13   
From optimize.out: Frame 48 / 51, Energy=    -286.9243334484
C        1.3603877942    0.8527684937   -0.5339870951
C        0.2552685067   -1.4091746762   -0.2143532542
C       -0.9005500087   -1.0701200102    0.4336015719
C       -1.3694693659    0.2699305842    0.6809949285
C       -0.7117277484    1.4528631713    0.4671705817
N        0.5465576448    1.7548100154    0.0288664485
H        2.2824588066    1.2992186431   -0.9210337295
H        0.4353197558   -2.4662305879   -0.4052690864
H       -1.5917301941   -1.8631430144    0.7063111458
H       -2.4000986367    0.3530226575    1.0146334095
H       -1.2848622355    2.3486800065    0.6993142258
C        1.2730764552   -0.5276299058   -0.7140895506
H        2.1053692261   -0.9949953773   -1.2421595958
13   
From optimize.out: Frame 47 / 51, Energy=    -286.9243268777
C        1.3715246120    0.8499419242   -0.5107699531
C        0.2413985202   -1.4066039204   -0.2460078070
C       -0.8802457100   -1.0732285656    0.4612410808
C       -1.3760033219    0.2717430008    0.6626200388
C       -0.7166460333    1.4568793242    0.4554654617
N        0.5699234382    1.7460918681    0.0605443365
H        2.2945027334    1.3021134043   -0.8661240144
H        0.4294455512   -2.4584596225   -0.4548261315
H       -1.5438080473   -1.8684660736    0.8004294492
H       -2.4174394500    0.3382680693    0.9881033582
H       -1.2904892367    2.3678094687    0.6517425765
C        1.2437530888   -0.5236827969   -0.7446484455
H        2.0740838554   -1.0024060805   -1.2577699503
13   
From optimize.out: Frame 46 / 51, Energy=    -286.9243183794
C        1.3788779701    0.8495442407   -0.4849084185
C        0.2279741552   -1.3995205564   -0.2710980060
C       -0.8732774584   -1.0747055898    0.4699678671
C       -1.3859273111    0.2728697604    0.6435668490
C       -0.7288214753    1.4582819523    0.4432703816
N        0.5809772884    1.7357066580    0.0907253703
H        2.3294790060    1.2861881025   -0.7975766997
H        0.4005664798   -2.4551355786   -0.4684803607
H       -1.4755707385   -1.8806650457    0.8939244712
H       -2.4275618085    0.3310550296    0.9596659636
H       -1.2951488033    2.3792521646    0.6086329360
C        1.2199296787   -0.5205023364   -0.7828148091
H        2.0485030167   -0.9823688011   -1.3048755449
13   
From optimize.out: Frame 45 / 51, Energy=    -286.9243033293
C        1.3764546696    0.8447217349   -0.4590027520
C        0.2317075320   -1.3956586767   -0.2765565777
C       -0.8744223380   -1.0698443087    0.4723910973
C       -1.3971928398    0.2776653482    0.6237230309
C       -0.7406714333    1.4609432362    0.4355785673
N        0.5838369450    1.7219855494    0.1242969334
H        2.3596255960    1.2559213999   -0.7171076576
H        0.4005297447   -2.4566739771   -0.4538243219
H       -1.4174535144   -1.8815215050    0.9635671977
H       -2.4369402558    0.3325726269    0.9303733247
H       -1.2987912242    2.3882151109    0.5735602127
C        1.1962892082   -0.5158689360   -0.8321138686
H        2.0170279099   -0.9624576029   -1.3848851860
13   
From optimize.out: Frame 44 / 51, Energy=    -286.9242776647
C        1.3634483438    0.8241278993   -0.4463735952
C        0.2530460918   -1.4088736123   -0.2667020923
C       -0.8657821292   -1.0459898891    0.4625454764
C       -1.4151118556    0.2878818817    0.6137107990
C       -0.7483452370    1.4643885063    0.4423994695
N        0.5863572006    1.6974420132    0.1635762092
H        2.3658625693    1.2197363556   -0.6553426043
H        0.4518122171   -2.4792552821   -0.4220799619
H       -1.3748000370   -1.8455201412    0.9859731582
H       -2.4656271795    0.3470706388    0.9088392745
H       -1.3064592241    2.3994926513    0.5572102479
C        1.1741954714   -0.5151512950   -0.8737998202
H        1.9814037684   -0.9453497265   -1.4699565608
13   
From optimize.out: Frame 43 / 51, Energy=    -286.9242436742
C        1.3706886647    0.8138789645   -0.4355405779
C        0.2342796992   -1.4145379291   -0.3008369957
C       -0.8406997134   -1.0325314412    0.4653356150
C       -1.4316019557    0.2877611629    0.6040499903
C       -0.7563668044    1.4548848267    0.4257939201
N        0.5985461810    1.6647192676    0.2021628980
H        2.3930083847    1.1900528908   -0.5979640461
H        0.4780162638   -2.4861656971   -0.3818687998
H       -1.3262415433   -1.8062368818    1.0260228633
H       -2.4945456783    0.3598764173    0.8939423237
H       -1.3195027950    2.3875205458    0.5352689305
C        1.1584091452   -0.5151755591   -0.8895693162
H        1.9360101515   -0.9040465673   -1.5467968052
13   
From optimize.out: Frame 42 / 51, Energy=    -286.9241906073
C        1.3864654465    0.8185590527   -0.4186093193
C        0.2245025936   -1.4040075269   -0.3167974773
C       -0.8327110996   -1.0377089873    0.4773378907
C       -1.4354386673    0.2823344371    0.5825787167
C       -0.7569572155    1.4461797575    0.4012683291
N        0.6059766439    1.6474666310    0.2250670143
H        2.4239486624    1.1633779707   -0.5196821800
H        0.5090525180   -2.4646653058   -0.3326017437
H       -1.3125441496   -1.8043539211    1.0654203641
H       -2.4917351702    0.3651595843    0.8760208687
H       -1.3230533835    2.3708050615    0.5092780931
C        1.1400082085   -0.5061932637   -0.9170317112
H        1.8624856128   -0.8769534899   -1.6322488455
13   
From optimize.out: Frame 40 / 51, Energy=    -286.9239840559
C        1.4019769462    0.8149083028   -0.3963327454
C        0.2218491924   -1.3899849523   -0.3210935299
C       -0.8390346930   -1.0452523499    0.4893852086
C       -1.4401027239    0.2777441750    0.5574581736
C       -0.7562601440    1.4369717905    0.3803953123
N        0.6100213020    1.6308990908    0.2417909491
H        2.4479106931    1.1405480386   -0.4410733133
H        0.5517127046   -2.4352041216   -0.2843922182
H       -1.3179107882   -1.8074981686    1.1021262152
H       -2.4822931752    0.3701151163    0.8627864047
H       -1.3220110839    2.3566697870    0.4830622150
C        1.1269760444   -0.4941696462   -0.9505339406
H        1.7971657254   -0.8557470624   -1.7235787311
13   
From optimize.out: Frame 39 / 51, Energy=    -286.9238885964
C        1.4127108357    0.8081240331   -0.3684082974
C        0.2349577789   -1.3817518185   -0.3040132951
C       -0.8460722796   -1.0494469275    0.5005831069
C       -1.4321710376    0.2699515064    0.5311726486
C       -0.7485128137    1.4311691825    0.3651794113
N        0.6123410943    1.6266214014    0.2631102771
H        2.4650709598    1.1254544807   -0.3719339351
H        0.5935878067   -2.4171857446   -0.2299855530
H       -1.3294076495   -1.8134792873    1.1201082955
H       -2.4654529139    0.3703323296    0.8382741573
H       -1.3205467186    2.3482057206    0.4586711705
C        1.1039378720   -0.4743489458   -0.9859167322
H        1.7195570656   -0.8436459306   -1.8168412543
13   
From optimize.out: Frame 38 / 51, Energy=    -286.9237701139
C        1.4128391680    0.7786991250   -0.3442310915
C        0.2630434471   -1.3580306572   -0.2699923952
C       -0.8480798493   -1.0465605208    0.5001229726
C       -1.4290442173    0.2646429821    0.5073073867
C       -0.7408016994    1.4260729846    0.3634610866
N        0.6174424091    1.6114591881    0.2847530384
H        2.4685838968    1.0878113692   -0.3346426078
H        0.6514108309   -2.3731735050   -0.1748259981
H       -1.3350461509   -1.8123229668    1.1099921383
H       -2.4588922409    0.3608969579    0.8112007327
H       -1.3108441643    2.3466849392    0.4493488132
C        1.0715922553   -0.4598091411   -1.0166677945
H        1.6377963149   -0.8263707553   -1.8858262816
13   
From optimize.out: Frame 37 / 51, Energy=    -286.9236015947
C        1.4054499290    0.7908092213   -0.3090887321
C        0.2717858052   -1.3406277264   -0.2386543652
C       -0.8281851027   -1.0418203743    0.4966145577
C       -1.4065526535    0.2445414694    0.4805627826
C       -0.7351888509    1.4267177959    0.3529938546
N        0.6288920250    1.6175140905    0.3118929856
H        2.4544163919    1.0096904681   -0.3078622152
H        0.6572677085   -2.3405929485   -0.1227868008
H       -1.3026947666   -1.8023964548    1.0991788156
H       -2.4495899231    0.3406745724    0.7724760150
H       -1.3132281282    2.3427842524    0.4466032592
C        1.0373178198   -0.4252103753   -1.0330411425
H        1.5803097456   -0.8220839907   -1.9488890147
13   
From optimize.out: Frame 36 / 51, Energy=    -286.9233541294
C        1.4114164664    0.7725054579   -0.2637713400
C        0.2778372717   -1.3753919271   -0.1875358274
C       -0.8230443610   -1.0517871211    0.4906872874
C       -1.3882859771    0.2383682313    0.4654906650
C       -0.7208306711    1.4215213862    0.3567988442
N        0.6446595921    1.6219709616    0.3407387154
H        2.4701892122    1.0560083084   -0.3315269547
H        0.6741002620   -2.3625588016   -0.0751812055
H       -1.3308364064   -1.7773953124    1.0802497148
H       -2.4376936416    0.3214524087    0.7378021580
H       -1.3083697834    2.3346027422    0.4321086838
C        1.0314173320   -0.3924062551   -1.0519081130
H        1.4994407044   -0.8068900790   -1.9939526278
13   
From optimize.out: Frame 35 / 51, Energy=    -286.9231330254
C        1.4231040086    0.7927987731   -0.2667581061
C        0.2587783302   -1.4076433413   -0.1664009539
C       -0.8274315052   -1.0621643726    0.5033750220
C       -1.3804217056    0.2257426166    0.4536548138
C       -0.7186569052    1.4146521167    0.3396635303
N        0.6525183374    1.6198088730    0.3407789639
H        2.4871184396    1.0310505909   -0.2862502079
H        0.6643880926   -2.3835243824   -0.0711642166
H       -1.3305678653   -1.7754680076    1.1102600585
H       -2.4382790201    0.3200206394    0.7240369828
H       -1.3038607894    2.3258378029    0.4204303291
C        1.0631557710   -0.3235116039   -1.0828180295
H        1.4501548115   -0.7775997048   -2.0188081864
13   
From optimize.out: Frame 34 / 51, Energy=    -286.9228774849
C        1.4225964668    0.8077310745   -0.3003134312
C        0.2527556278   -1.4081505213   -0.1666212032
C       -0.8501047842   -1.0665924660    0.5150642266
C       -1.3961418676    0.2285861278    0.4581524625
C       -0.7255987068    1.4160550583    0.3301529492
N        0.6417481827    1.6101535040    0.3088993102
H        2.5050032911    1.0393560709   -0.2090073984
H        0.6929136395   -2.3879664628   -0.1001234428
H       -1.3446366344   -1.8000905341    1.1419073175
H       -2.4438572648    0.3481211943    0.7525219509
H       -1.3027391928    2.3333036006    0.4151526458
C        1.0909733076   -0.3269768940   -1.1162003172
H        1.4570879349   -0.7935297522   -2.0295850699
13   
From optimize.out: Frame 33 / 51, Energy=    -286.9225838900
C        1.4351264206    0.8249480980   -0.3065462925
C        0.2678271978   -1.4398532233   -0.1310676473
C       -0.8594019562   -1.0774369554    0.5145280554
C       -1.3951048236    0.2342322108    0.4509010718
C       -0.7174387258    1.4174896425    0.3330737840
N        0.6419484491    1.6162427842    0.3083954828
H        2.5036367289    1.0441302931   -0.1698297090
H        0.7444003802   -2.4150165970   -0.0912210339
H       -1.3846487930   -1.7996380126    1.1424772790
H       -2.4360176691    0.3546390437    0.7469831059
H       -1.2977663722    2.3348181933    0.4075691861
C        1.1072696869   -0.2956645694   -1.1509858179
H        1.3901694764   -0.7988909078   -2.0542774645
13   
From optimize.out: Frame 32 / 51, Energy=    -286.9222447379
C        1.4484742419    0.8362094682   -0.3026874360
C        0.2819124603   -1.4771691118   -0.0841066050
C       -0.8520100992   -1.0887728392    0.5191678025
C       -1.3768603638    0.2295817619    0.4356551025
C       -0.7018258049    1.4140161893    0.3275631140
N        0.6528045778    1.6231778868    0.3264467147
H        2.5161592821    1.0311083660   -0.1339316543
H        0.7723728681   -2.4438862848   -0.0601828812
H       -1.4050687194   -1.7989146525    1.1416717355
H       -2.4234958407    0.3467413552    0.7102296828
H       -1.2896863445    2.3278053948    0.3932900605
C        1.1057392833   -0.2268405270   -1.1844884611
H        1.2714844590   -0.7730570068   -2.0886271747
13   
From optimize.out: Frame 31 / 51, Energy=    -286.9218602726
C        1.4539539504    0.8328231712   -0.3060704385
C        0.3059853523   -1.4843250161   -0.0373769877
C       -0.8443953216   -1.0926579457    0.5173780487
C       -1.3692217249    0.2289886029    0.4214791172
C       -0.6916304023    1.4115441419    0.3293685615
N        0.6604296160    1.6173969093    0.3412342854
H        2.5192327363    0.9906561582   -0.1007495213
H        0.8201463385   -2.4366427107   -0.0257517914
H       -1.4169683367   -1.8011199563    1.1278725807
H       -2.4203165476    0.3386642603    0.6800737464
H       -1.2782159689    2.3271520780    0.3899355114
C        1.0914430119   -0.1808043196   -1.2164933898
H        1.1695572965   -0.7516753736   -2.1208997225
13   
From optimize.out: Frame 30 / 51, Energy=    -286.9213063216
C        1.4496051027    0.8111395487   -0.3184997040
C        0.3425344227   -1.4538061807    0.0090635422
C       -0.8365020796   -1.0872358161    0.5075567996
C       -1.3748314862    0.2334636608    0.4086397168
C       -0.6882023634    1.4103230139    0.3403130330
N        0.6640184948    1.5957314738    0.3519450108
H        2.5105027246    0.9159390559   -0.0709600177
H        0.8926544658   -2.3842877821    0.0129176301
H       -1.4182246982   -1.8069836389    1.0978422861
H       -2.4288076050    0.3303630578    0.6581591469
H       -1.2625104959    2.3344427910    0.4002275405
C        1.0612000894   -0.1632338349   -1.2466274286
H        1.0885634283   -0.7358553490   -2.1505775556
13   
From optimize.out: Frame 29 / 51, Energy=    -286.9207127555
C        1.4452562549    0.7894559261   -0.3309289695
C        0.3790834932   -1.4232873454    0.0555040721
C       -0.8286088377   -1.0818136865    0.4977355504
C       -1.3804412475    0.2379387186    0.3958003163
C       -0.6847743246    1.4091018859    0.3512575045
N        0.6676073737    1.5740660383    0.3626557362
H        2.5017727130    0.8412219535   -0.0411705141
H        0.9651625931   -2.3319328536    0.0515870517
H       -1.4194810598   -1.8128473216    1.0678119914
H       -2.4372986624    0.3220618553    0.6362445475
H       -1.2468050229    2.3417335040    0.4105195695
C        1.0309571669   -0.1456633502   -1.2767614674
H        1.0075695601   -0.7200353245   -2.1802553887
13   
From optimize.out: Frame 28 / 51, Energy=    -286.9201618010
C        1.4713650846    0.8179353804   -0.3554409569
C        0.3437988754   -1.4822133396    0.0708112972
C       -0.8510098921   -1.1007304609    0.5054061427
C       -1.3816337539    0.2353736821    0.4011556932
C       -0.6849360643    1.4015085924    0.3491487428
N        0.6633477552    1.5807441139    0.3501482955
H        2.5189126685    0.8737573202   -0.0367396289
H        0.9153812906   -2.3987355947    0.0593860944
H       -1.4612372092   -1.8136160777    1.0812688400
H       -2.4348959055    0.3351873802    0.6493006058
H       -1.2499507939    2.3327918555    0.4121789147
C        1.0890230484   -0.0975346616   -1.2968491094
H        1.0618348964   -0.6844681902   -2.1897749311
13   
From optimize.out: Frame 27 / 51, Energy=    -286.9197326088
C        1.4951528232    0.8414569010   -0.3732614392
C        0.3101482852   -1.5404822767    0.0920518154
C       -0.8729082617   -1.1194548405    0.5143006346
C       -1.3813053236    0.2309815959    0.4038889320
C       -0.6825390756    1.3929997121    0.3468200871
N        0.6625463319    1.5831537647    0.3438758048
H        2.5357394060    0.8999453388   -0.0328214241
H        0.8621934248   -2.4673365732    0.0808659533
H       -1.5040084080   -1.8134378095    1.0926326830
H       -2.4321705672    0.3465747354    0.6539887543
H       -1.2501717014    2.3230560295    0.4121727065
C        1.1412199182   -0.0464049637   -1.3218246052
H        1.1161031482   -0.6310516137   -2.2126899026
13   
From optimize.out: Frame 26 / 51, Energy=    -286.9192373931
C        1.5081716485    0.8442523903   -0.3716103047
C        0.2917811602   -1.5833491822    0.1336787213
C       -0.8888522038   -1.1339523337    0.5237451837
C       -1.3776460528    0.2228532899    0.3969346784
C       -0.6728539450    1.3830532294    0.3459074029
N        0.6720530969    1.5699885496    0.3575744299
H        2.5477870009    0.8930217758   -0.0263775746
H        0.8187246006   -2.5224610100    0.1430982706
H       -1.5432628680   -1.8115439128    1.0918368488
H       -2.4302606698    0.3501088938    0.6312914313
H       -1.2398074268    2.3137094869    0.4090990674
C        1.1644605892    0.0079583753   -1.3612098199
H        1.1497050698   -0.5336395523   -2.2739683350
13   
From optimize.out: Frame 25 / 51, Energy=    -286.9182600220
C        1.5211904737    0.8470478796   -0.3699591702
C        0.2734140352   -1.6262160878    0.1753056271
C       -0.9047961458   -1.1484498269    0.5331897328
C       -1.3739867820    0.2147249838    0.3899804248
C       -0.6631688143    1.3731067468    0.3449947187
N        0.6815598618    1.5568233346    0.3712730549
H        2.5598345958    0.8860982129   -0.0199337250
H        0.7752557765   -2.5775854468    0.2053305879
H       -1.5825173280   -1.8096500160    1.0910410146
H       -2.4283507724    0.3536430523    0.6085941082
H       -1.2294431521    2.3043629443    0.4060254283
C        1.1877012602    0.0623217142   -1.4005950346
H        1.1833069913   -0.4362274909   -2.3352467675
13   
From optimize.out: Frame 23 / 51, Energy=    -286.9157172470
C        1.5342092990    0.8498433689   -0.3683080357
C        0.2550469102   -1.6690829934    0.2169325329
C       -0.9207400879   -1.1629473201    0.5426342819
C       -1.3703275112    0.2065966777    0.3830261712
C       -0.6534836836    1.3631602641    0.3440820344
N        0.6910666268    1.5436581195    0.3849716800
H        2.5718821907    0.8791746500   -0.0134898755
H        0.7317869523   -2.6327098836    0.2675629052
H       -1.6217717880   -1.8077561193    1.0902451804
H       -2.4264408749    0.3571772107    0.5858967852
H       -1.2190788775    2.2950164017    0.4029517892
C        1.2109419312    0.1166850532   -1.4399802493
H        1.2169089129   -0.3388154295   -2.3965251999
13   
From optimize.out: Frame 22 / 51, Energy=    -286.9143750484
C        1.5472281242    0.8526388583   -0.3666569012
C        0.2366797852   -1.7119498990    0.2585594387
C       -0.9366840299   -1.1774448132    0.5520788310
C       -1.3666682404    0.1984683716    0.3760719175
C       -0.6437985530    1.3532137815    0.3431693502
N        0.7005733917    1.5304929045    0.3986703050
H        2.5839297856    0.8722510871   -0.0070460259
H        0.6883181282   -2.6878343204    0.3297952226
H       -1.6610262480   -1.8058622226    1.0894493462
H       -2.4245309775    0.3607113692    0.5631994621
H       -1.2087146029    2.2856698591    0.3998781501
C        1.2341826022    0.1710483921   -1.4793654640
H        1.2505108344   -0.2414033681   -2.4578036323
13   
From optimize.out: Frame 21 / 51, Energy=    -286.9121761857
C        1.5602469495    0.8554343476   -0.3650057667
C        0.2183126602   -1.7548168046    0.3001863445
C       -0.9526279720   -1.1919423064    0.5615233801
C       -1.3630089696    0.1903400655    0.3691176639
C       -0.6341134223    1.3432672989    0.3422566660
N        0.7100801567    1.5173276895    0.4123689300
H        2.5959773806    0.8653275242   -0.0006021764
H        0.6448493041   -2.7429587572    0.3920275399
H       -1.7002807080   -1.8039683259    1.0886535120
H       -2.4226210801    0.3642455277    0.5405021391
H       -1.1983503283    2.2763233165    0.3968045110
C        1.2574232732    0.2254117311   -1.5187506788
H        1.2841127560   -0.1439913067   -2.5190820647
13   
From optimize.out: Frame 20 / 51, Energy=    -286.9099481961
C        1.5707671259    0.8433760900   -0.3690159466
C        0.2007908570   -1.7757197541    0.3332228316
C       -0.9704541502   -1.2010776011    0.5674126232
C       -1.3700066153    0.1846150728    0.3592341723
C       -0.6285873739    1.3296161301    0.3400611568
N        0.7158221555    1.4872173265    0.4209350651
H        2.5946936103    0.8120750969    0.0152391629
H        0.6193176423   -2.7661474585    0.4429282278
H       -1.7280134881   -1.8001532317    1.0963119079
H       -2.4287674238    0.3685032064    0.5260877162
H       -1.1818437275    2.2689600064    0.3971211492
C        1.2837367390    0.2824250803   -1.5567299460
H        1.3225446487   -0.0336899641   -2.5728081204
13   
From optimize.out: Frame 19 / 51, Energy=    -286.9066106666
C        1.5801917745    0.8248052358   -0.3755083188
C        0.1836396835   -1.7869926496    0.3624928663
C       -0.9891055912   -1.2078618502    0.5717430492
C       -1.3816767656    0.1799438084    0.3480663619
C       -0.6248848671    1.3143406488    0.3373031956
N        0.7199134998    1.4496773962    0.4272508699
H        2.5875647288    0.7385098684    0.0352008133
H        0.6016504948   -2.7753339981    0.4888605848
H       -1.7506946098   -1.7954957922    1.1076770446
H       -2.4384460109    0.3730781112    0.5153049149
H       -1.1626440356    2.2624662409    0.3989242478
C        1.3113974657    0.3406003214   -1.5940927784
H        1.3630942331    0.0822626590   -2.6232228511
13   
From optimize.out: Frame 18 / 51, Energy=    -286.9036992250
C        1.5896164232    0.8062343816   -0.3820006910
C        0.1664885101   -1.7982655450    0.3917629010
C       -1.0077570322   -1.2146460994    0.5760734752
C       -1.3933469159    0.1752725439    0.3368985514
C       -0.6211823603    1.2990651676    0.3345452343
N        0.7240048441    1.4121374659    0.4335666747
H        2.5804358473    0.6649446399    0.0551624638
H        0.5839833473   -2.7845205378    0.5347929417
H       -1.7733757316   -1.7908383527    1.1190421814
H       -2.4481245980    0.3776530160    0.5045221136
H       -1.1434443438    2.2559724753    0.4007273465
C        1.3390581924    0.3987755625   -1.6314556107
H        1.4036438174    0.1982152821   -2.6736375818
13   
From optimize.out: Frame 17 / 51, Energy=    -286.8981848410
C        1.5990410718    0.7876635273   -0.3884930633
C        0.1493373366   -1.8095384404    0.4210329356
C       -1.0264084732   -1.2214303485    0.5804039012
C       -1.4050170662    0.1706012795    0.3257307410
C       -0.6174798535    1.2837896863    0.3317872731
N        0.7280961884    1.3745975356    0.4398824795
H        2.5733069657    0.5913794113    0.0751241143
H        0.5663161998   -2.7937070775    0.5807252987
H       -1.7960568533   -1.7861809131    1.1304073181
H       -2.4578031851    0.3822279208    0.4937393123
H       -1.1242446519    2.2494787098    0.4025304452
C        1.3667189192    0.4569508036   -1.6688184431
H        1.4441934018    0.3141679052   -2.7240523125
13   
From optimize.out: Frame 16 / 51, Energy=    -286.8917432981
C        1.6061779273    0.7544559915   -0.3986354712
C        0.1244247341   -1.8165112254    0.4347361937
C       -1.0506081553   -1.2260421323    0.5824089946
C       -1.4241141943    0.1684536561    0.3170458101
C       -0.6164739891    1.2658896716    0.3290288432
N        0.7289785563    1.3277319074    0.4387369771
H        2.5639505499    0.5198176671    0.0778807154
H        0.5458143202   -2.7963987685    0.6067824951
H       -1.8166581902   -1.7778531679    1.1495020354
H       -2.4728257052    0.3887622680    0.4956207878
H       -1.1010360182    2.2418803977    0.4084509319
C        1.4062011896    0.5126789123   -1.6933072501
H        1.5061689751    0.4371348223   -2.7482510629
13   
From optimize.out: Frame 15 / 51, Energy=    -286.8722059834
C        1.6129710278    0.7190492048   -0.4093263193
C        0.0983459295   -1.8228378924    0.4461004483
C       -1.0756414947   -1.2303274899    0.5840646925
C       -1.4443272714    0.1666852253    0.3087339470
C       -0.6158733118    1.2475953045    0.3262703430
N        0.7293787558    1.2794650360    0.4364703676
H        2.5542594335    0.4485569586    0.0780521525
H        0.5248865048   -2.7981145687    0.6298533270
H       -1.8369470267   -1.7689739367    1.1697581694
H       -2.4886511839    0.3955910334    0.4994051484
H       -1.0772250165    2.2341161209    0.4149900813
C        1.4474597193    0.5680393243   -1.7158616560
H        1.5713639344    0.5611556799   -2.7685107018
13   
From optimize.out: Frame 14 / 51, Energy=    -286.8702422075
C        1.6197641283    0.6836424180   -0.4200171674
C        0.0722671248   -1.8291645595    0.4574647029
C       -1.1006748340   -1.2346128475    0.5857203905
C       -1.4645403485    0.1649167945    0.3004220839
C       -0.6152726345    1.2293009375    0.3235118427
N        0.7297789553    1.2311981646    0.4342037581
H        2.5445683171    0.3772962501    0.0782235897
H        0.5039586894   -2.7998303689    0.6529241588
H       -1.8572358632   -1.7600947055    1.1900143034
H       -2.5044766627    0.4024197987    0.5031895091
H       -1.0534140148    2.2263518440    0.4215292308
C        1.4887182490    0.6233997364   -1.7384160619
H        1.6365588937    0.6851765376   -2.7887703407
13   
From optimize.out: Frame 13 / 51, Energy=    -286.8682085675
C        1.6266349297    0.6494267818   -0.4313545637
C        0.0466909491   -1.8339861021    0.4668396096
C       -1.1253948859   -1.2382156783    0.5863397006
C       -1.4854124003    0.1640249575    0.2920210211
C       -0.6151388504    1.2114854216    0.3212150164
N        0.7295299470    1.1833167798    0.4314543207
H        2.5313537905    0.3015452617    0.0763730268
H        0.4845699971   -2.7996043410    0.6734360980
H       -1.8760614019   -1.7508012886    1.2099125075
H       -2.5208348468    0.4090747872    0.5080302813
H       -1.0295490066    2.2187663303    0.4297479377
C        1.5305722910    0.6781972745   -1.7588913797
H        1.7030394876    0.8067698156   -2.8051235764
13   
From optimize.out: Frame 12 / 51, Energy=    -286.8152814834
C        1.6340312652    0.6232675540   -0.4470649217
C        0.0245143296   -1.8286276578    0.4627594595
C       -1.1479960017   -1.2372022043    0.5799493480
C       -1.5107414620    0.1690620079    0.2830166514
C       -0.6181629223    1.1969086398    0.3220407454
N        0.7248899873    1.1380426536    0.4254392517
H        2.4943084976    0.1954240341    0.0608465626
H        0.4755912436   -2.7862446585    0.6766408341
H       -1.8849898502   -1.7387065047    1.2273898340
H       -2.5407960118    0.4145544263    0.5200161481
H       -1.0053187231    2.2123898908    0.4493264176
C        1.5764541104    0.7291877854   -1.7653046779
H        1.7782155372    0.9119440334   -2.7950556528
13   
From optimize.out: Frame 11 / 51, Energy=    -286.7966291999
C        1.6414276007    0.5971083262   -0.4627752797
C        0.0023377102   -1.8232692136    0.4586793094
C       -1.1705971175   -1.2361887303    0.5735589954
C       -1.5360705238    0.1740990583    0.2740122817
C       -0.6211869942    1.1823318581    0.3228664743
N        0.7202500277    1.0927685274    0.4194241828
H        2.4572632048    0.0893028064    0.0453200984
H        0.4666124902   -2.7728849759    0.6798455703
H       -1.8939182984   -1.7266117208    1.2448671605
H       -2.5607571767    0.4200340654    0.5320020148
H       -0.9810884395    2.2060134513    0.4689048975
C        1.6223359298    0.7801782964   -1.7717179761
H        1.8533915868    1.0171182512   -2.7849877293
13   
From optimize.out: Frame 9 / 51, Energy=    -286.7631364478
C        1.6479981219    0.5693192874   -0.4794272756
C       -0.0205553788   -1.8179126738    0.4526532474
C       -1.1935202635   -1.2348591196    0.5665615608
C       -1.5622943893    0.1801924815    0.2653222710
C       -0.6246426752    1.1680577539    0.3239946462
N        0.7148462216    1.0473104989    0.4124143138
H        2.4200446390   -0.0141145058    0.0262414164
H        0.4568409391   -2.7596484362    0.6804122019
H       -1.9019729717   -1.7140359830    1.2622463447
H       -2.5812454371    0.4257341655    0.5453517410
H       -0.9563166143    2.1992698003    0.4902403807
C        1.6694378738    0.8297628150   -1.7759800464
H        1.9313799345    1.1209239160   -2.7700308020
13   