
Running Job 1 of 1 optimize.in
qchem optimize.in_47156.0 ./optimize.d/ 1
/home/leeping/opt/qchem/5.0.2-openmp/exe/qcprog.exe_s optimize.in_47156.0 ./optimize.d/
Check license passed

                  Welcome to Q-Chem
     A Quantum Leap Into The Future Of Chemistry


 Q-Chem 5.0, Q-Chem, Inc., Pleasanton, CA (2017)

 Yihan Shao,  Zhengting Gan,  E. Epifanovsky,  A. T. B. Gilbert,  M. Wormit,  
 J. Kussmann,  A. W. Lange,  A. Behn,  Jia Deng,  Xintian Feng,  D. Ghosh,  
 M. Goldey,  P. R. Horn,  L. D. Jacobson,  I. Kaliman,  T. Kus,  A. Landau,  
 Jie Liu,  E. I. Proynov,  R. M. Richard,  R. P. Steele,  E. J. Sundstrom,  
 H. L. Woodcock III,  P. M. Zimmerman,  D. Zuev,  B. Albrecht,  E. Alguire,  
 S. A. Baeppler,  D. Barton,  Z. Benda,  Y. A. Bernard,  E. J. Berquist,  
 K. B. Bravaya,  H. Burton,  D. Casanova,  Chun-Min Chang,  Yunqing Chen,  
 A. Chien,  K. D. Closser,  M. P. Coons,  S. Dasgupta,  A. L. Dempwolff,  
 M. Diedenhofen,  Hainam Do,  R. G. Edgar,  Po-Tung Fang,  S. Fatehi,  
 Qingguo Feng,  J. Fosso-Tande,  Qinghui Ge,  A. Ghysels,  G. Gidofalvi,  
 J. Gomes,  J. Gonthier,  A. Gunina,  M. W. D. Hanson-Heine,  
 P. H. P. Harbach,  A. W. Hauser,  J. E. Herr,  E. G. Hohenstein,  
 Z. C. Holden,  Kerwin Hui,  T.-C. Jagau,  Hyunjun Ji,  B. Kaduk,  
 K. Khistyaev,  Jaehoon Kim,  P. Klunzinger,  K. Koh,  D. Kosenkov,  
 L. Koulias,  T. Kowalczyk,  C. M. Krauter,  A. Kunitsa,  Ka Un Lao,  
 A. Laurent,  K. V. Lawler,  Joonho Lee,  D. Lefrancois,  S. Lehtola,  
 D. S. Levine,  Yi-Pei Li,  You-Sheng Lin,  Fenglai Liu,  E. Livshits,  
 A. Luenser,  P. Manohar,  E. Mansoor,  S. F. Manzer,  Shan-Ping Mao,  
 Yuezhi Mao,  N. Mardirossian,  A. V. Marenich,  T. Markovich,  
 L. A. Martinez-Martinez,  S. A. Maurer,  N. J. Mayhall,  S. C. McKenzie,  
 J.-M. Mewes,  A. F. Morrison,  J. W. Mullinax,  K. Nanda,  
 T. S. Nguyen-Beck,  R. Olivares-Amaya,  J. A. Parkhill,  T. M. Perrine,  
 F. Plasser,  S. Prager,  A. Prociuk,  E. Ramos,  D. R. Rehn,  F. Rob,  
 M. Schneider,  N. Sergueev,  S. M. Sharada,  S. Sharma,  D. W. Small,  
 T. Stauch,  T. Stein,  Yu-Chuan Su,  A. J. W. Thom,  A. Tkatchenko,  
 T. Tsuchimochi,  L. Vogt,  O. Vydrov,  M. A. Watson,  J. Wenzel,  
 M. de Wergifosse,  T. A. Wesolowski,  A. White,  J. Witte,  A. Yamada,  
 Jun Yang,  K. Yao,  S. Yeganeh,  S. R. Yost,  Zhi-Qiang You,  A. Zech,  
 Igor Ying Zhang,  Xing Zhang,  Yan Zhao,  Ying Zhu,  B. R. Brooks,  
 G. K. L. Chan,  C. J. Cramer,  M. S. Gordon,  W. J. Hehre,  A. Klamt,  
 M. W. Schmidt,  C. D. Sherrill,  D. G. Truhlar,  A. Aspuru-Guzik,  R. Baer,  
 A. T. Bell,  N. A. Besley,  Jeng-Da Chai,  R. A. DiStasio Jr.,  A. Dreuw,  
 B. D. Dunietz,  T. R. Furlani,  Chao-Ping Hsu,  Yousung Jung,  Jing Kong,  
 D. S. Lambrecht,  WanZhen Liang,  C. Ochsenfeld,  V. A. Rassolov,  
 L. V. Slipchenko,  J. E. Subotnik,  T. Van Voorhis,  J. M. Herbert,  
 A. I. Krylov,  P. M. W. Gill,  M. Head-Gordon

 Contributors to earlier versions of Q-Chem not listed above: 
 R. D. Adamson,  B. Austin,  J. Baker,  G. J. O. Beran,  K. Brandhorst,  
 S. T. Brown,  E. F. C. Byrd,  A. K. Chakraborty,  C.-L. Cheng,  
 Siu Hung Chien,  D. M. Chipman,  D. L. Crittenden,  H. Dachsel,  
 R. J. Doerksen,  A. D. Dutoi,  L. Fusti-Molnar,  W. A. Goddard III,  
 A. Golubeva-Zadorozhnaya,  S. R. Gwaltney,  G. Hawkins,  A. Heyden,  
 S. Hirata,  G. Kedziora,  F. J. Keil,  C. Kelley,  Jihan Kim,  R. A. King,  
 R. Z. Khaliullin,  P. P. Korambath,  W. Kurlancheek,  A. M. Lee,  M. S. Lee,  
 S. V. Levchenko,  Ching Yeh Lin,  D. Liotard,  R. C. Lochan,  I. Lotan,  
 P. E. Maslen,  N. Nair,  D. P. O'Neill,  D. Neuhauser,  E. Neuscamman,  
 C. M. Oana,  R. Olson,  B. Peters,  R. Peverati,  P. A. Pieniazek,  
 Y. M. Rhee,  J. Ritchie,  M. A. Rohrdanz,  E. Rosta,  N. J. Russ,  
 H. F. Schaefer III,  N. E. Schultz,  N. Shenvi,  A. C. Simmonett,  A. Sodt,  
 D. Stuck,  K. S. Thanthiriwatte,  V. Vanovschi,  Tao Wang,  A. Warshel,  
 C. F. Williams,  Q. Wu,  X. Xu,  W. Zhang

 Please cite Q-Chem as follows:
 Y. Shao et al., Mol. Phys. 113, 184-215 (2015)
 DOI: 10.1080/00268976.2014.952696

 Q-Chem 5.0.2 for Intel X86 EM64T Linux

 Parts of Q-Chem use Armadillo 5.200.1 (Boston Tea Smuggler).
 http://arma.sourceforge.net/

 Q-Chem begins on Tue Mar  1 14:59:19 2022  

Host: 
0

     Scratch files written to ./optimize.d//
 Dec517 15110_ 26548  26544 5633   
Processing $rem in /home/leeping/opt/qchem/5.0.2-openmp/config/preferences.
 MEM_STATIC 2000
 MEM_TOTAL  8000
 SYMMETRY   OFF
 SYM_IGNORE TRUE 

Checking the input file for inconsistencies... 	...done.

--------------------------------------------------------------
User input:
--------------------------------------------------------------
$molecule
0 2
C        1.6064845043    0.3444833159   -1.7149379120
C        0.7408506054   -0.9723608192   -1.4565941339
C       -0.5965185002   -0.6321443548   -1.9749461388
C       -1.1200826837    0.3139962003   -0.6148061925
C       -0.5492321324    0.7454675640   -2.1437673055
N        0.6295271429    1.2720877831   -1.9736791638
H        2.6380532528    0.2298532222   -2.0721182564
H        1.0142282797   -2.0396508558   -1.5689005711
H       -1.2368238782   -0.8640042586   -2.8103030259
H       -2.0881102061    0.7567263215   -0.3991699452
H       -1.4048674740    1.2826541289   -2.5933574982
C       -0.6985728928   -1.1280076529   -0.2558592515
H       -0.6198539958   -1.8347840831    0.5572819768
$end

$rem
method                b3lyp
basis                 6-31g(d)
unrestricted          true
symmetry              off
sym_ignore            true
incdft                false
incfock               0
scf_convergence       8
thresh                14
jobtype               opt
scf_guess             read
scf_algorithm         diis
max_scf_cycles        100
geom_opt_tol_gradient 600
geom_opt_tol_displacement 2400
geom_opt_tol_energy   200
geom_opt_max_cycles   100
$end

--------------------------------------------------------------
 ----------------------------------------------------------------
             Standard Nuclear Orientation (Angstroms)
    I     Atom           X                Y                Z
 ----------------------------------------------------------------
    1      C       1.6064845043     0.3444833159    -1.7149379120
    2      C       0.7408506054    -0.9723608192    -1.4565941339
    3      C      -0.5965185002    -0.6321443548    -1.9749461388
    4      C      -1.1200826837     0.3139962003    -0.6148061925
    5      C      -0.5492321324     0.7454675640    -2.1437673055
    6      N       0.6295271429     1.2720877831    -1.9736791638
    7      H       2.6380532528     0.2298532222    -2.0721182564
    8      H       1.0142282797    -2.0396508558    -1.5689005711
    9      H      -1.2368238782    -0.8640042586    -2.8103030259
   10      H      -2.0881102061     0.7567263215    -0.3991699452
   11      H      -1.4048674740     1.2826541289    -2.5933574982
   12      C      -0.6985728928    -1.1280076529    -0.2558592515
   13      H      -0.6198539958    -1.8347840831     0.5572819768
 ----------------------------------------------------------------
 Nuclear Repulsion Energy =   276.8975872555 hartrees
 There are       25 alpha and       24 beta electrons
 Requested basis set is 6-31G(d)
 There are 40 shells and 117 basis functions

 Total QAlloc Memory Limit   8000 MB
 Mega-Array Size      1956 MB
 MEM_STATIC part      2000 MB
 A cutoff of  1.0D-14 yielded    808 shell pairs
 There are      7080 function pairs
 
 -------------------------------------------------------
 OpenMP Integral Computing Module                       
 Release: version 1.0, May 2013, Q-Chem Inc. Pittsburgh 
 -------------------------------------------------------
 Integral Job Info:
 Integral job number is                      11
 Integral operator is                         1
 short-range coefficients                     0
 long-range coefficients              100000000
 Omega coefficients                           0
 if combine SR and LR in K                    0
 Integral screening is                        0
 Integral computing path is                   2
 max size of driver memory is            800000
 size of driver memory is                593474
 size of scratch memory is              2361544
 max col of scratch BK array               1296
 max len of scratch array in speh3          155
 max len of scratch index in speh4           18
 max int batch size is                      520
 min int batch size is                       52
 fixed nKL is                                52
 max L of basis functions is                  2
 order of int derivative is                   0
 number of shells is                         40
 number of basis is                         117
 number of cartesian basis is               117
 number of contracted shell pairs           808
 number of primitive shell pairs           3563
 maxK2 (contraction) of shell pair           36
 max number of K2 of shell pair               1
 max number of CS2 of shell pair             86
 max number of PS2 of shell pair            408
 mem total for path MDJ                  535308
 -------------------------------------------------------
 Smallest overlap matrix eigenvalue = 1.56E-03

 Scale SEOQF with 1.000000e-01/1.000000e-01/1.000000e-01

 Standard Electronic Orientation quadrupole field applied
 Nucleus-field energy     =    -0.0000000094 hartrees
 Guess MOs from SCF MO coefficient file
 Reading MOs from coefficient file
 Reading MOs from coefficient file
 An unrestricted hybrid HF-DFT SCF calculation will be
 performed using Pulay DIIS extrapolation
 Exchange:     0.2000 Hartree-Fock + 0.0800 Slater + 0.7200 B88
 Correlation:  0.1900 VWN1RPA + 0.8100 LYP
 Using SG-1 standard quadrature grid
 SCF converges when DIIS error is below 1.0E-08
Using Q-Chem read-in guess as SCF_GUESS READ specified.

 using 4 threads for integral computing
 -------------------------------------------------------
 OpenMP Integral computing Module                
 Release: version 1.0, May 2013, Q-Chem Inc. Pittsburgh 
 -------------------------------------------------------
 -------------------------------------------------------
 OpenMP BLAS3 based DFT computing Module                
 Release: version 1.0, May 2013, Q-Chem Inc. Pittsburgh 
 -------------------------------------------------------
 ---------------------------------------
  Cycle       Energy         DIIS Error
 ---------------------------------------
    1    -286.6359586858      7.05E-10
    2    -286.6359586858      1.05E-09 Convergence criterion met
 ---------------------------------------
 <S^2> = 0.7711
 SCF time:  CPU 5.34 s  wall 3.50 s
 SCF   energy in the final basis set = -286.63595869
 Total energy in the final basis set = -286.63595869
 
 --------------------------------------------------------------
 
                    Orbital Energies (a.u.)
 --------------------------------------------------------------
 
 Alpha MOs
 -- Occupied --
-14.329 -10.245 -10.242 -10.230 -10.229 -10.222 -10.216  -0.982
 -0.848  -0.742  -0.677  -0.622  -0.571  -0.556  -0.507  -0.473
 -0.448  -0.412  -0.395  -0.380  -0.318  -0.273  -0.259  -0.237
 -0.126
 -- Virtual --
 -0.045   0.032   0.047   0.082   0.113   0.139   0.142   0.154
  0.176   0.194   0.205   0.227   0.262   0.296   0.310   0.415
  0.501   0.516   0.527   0.544   0.551   0.565   0.581   0.598
  0.600   0.622   0.653   0.667   0.693   0.728   0.770   0.791
  0.808   0.825   0.836   0.847   0.872   0.881   0.892   0.935
  0.971   0.997   1.066   1.100   1.107   1.198   1.241   1.269
  1.388   1.466   1.479   1.497   1.562   1.626   1.669   1.716
  1.738   1.769   1.794   1.814   1.834   1.893   1.967   1.996
  2.058   2.115   2.145   2.169   2.227   2.262   2.321   2.373
  2.396   2.455   2.473   2.534   2.559   2.586   2.610   2.666
  2.684   2.718   2.749   2.945   3.016   3.982   4.070   4.163
  4.372   4.412   4.464   4.539
 
 Beta MOs
 -- Occupied --
-14.328 -10.246 -10.243 -10.229 -10.221 -10.221 -10.207  -0.979
 -0.843  -0.739  -0.665  -0.618  -0.565  -0.550  -0.502  -0.469
 -0.447  -0.409  -0.392  -0.376  -0.289  -0.270  -0.254  -0.221
 -- Virtual --
 -0.041  -0.007   0.040   0.058   0.084   0.120   0.140   0.143
  0.156   0.180   0.203   0.207   0.230   0.272   0.297   0.314
  0.417   0.506   0.517   0.530   0.549   0.563   0.574   0.586
  0.602   0.610   0.634   0.665   0.673   0.698   0.732   0.773
  0.793   0.810   0.827   0.840   0.854   0.876   0.884   0.895
  0.940   0.975   1.000   1.068   1.105   1.115   1.205   1.249
  1.275   1.394   1.473   1.487   1.504   1.568   1.629   1.683
  1.721   1.744   1.778   1.799   1.819   1.843   1.911   1.974
  2.005   2.059   2.123   2.158   2.180   2.246   2.270   2.329
  2.387   2.397   2.462   2.479   2.535   2.564   2.591   2.620
  2.667   2.689   2.721   2.755   2.946   3.017   3.986   4.075
  4.174   4.381   4.422   4.466   4.538
 --------------------------------------------------------------
 
          Ground-State Mulliken Net Atomic Charges

     Atom                 Charge (a.u.)    Spin (a.u.)
  --------------------------------------------------------
      1 C                     0.031694      -0.046124
      2 C                    -0.197208      -0.007252
      3 C                    -0.124781      -0.081885
      4 C                    -0.195564       0.545603
      5 C                     0.011847       0.026094
      6 N                    -0.329188       0.041389
      7 H                     0.178742       0.008178
      8 H                     0.150636       0.001267
      9 H                     0.169417      -0.001253
     10 H                     0.149666      -0.019817
     11 H                     0.167690       0.001548
     12 C                    -0.186486       0.547019
     13 H                     0.173536      -0.014766
  --------------------------------------------------------
  Sum of atomic charges =     0.000000
  Sum of spin   charges =     1.000000

 -----------------------------------------------------------------
                    Cartesian Multipole Moments
 -----------------------------------------------------------------
    Charge (ESU x 10^10)
                 0.0000
    Dipole Moment (Debye)
         X      -0.7147      Y      -2.0424      Z      -1.0176
       Tot       2.3912
    Quadrupole Moments (Debye-Ang)
        XX     -36.5823     XY      -3.4242     YY     -43.5961
        XZ       1.4050     YZ       2.2287     ZZ     -37.4710
    Octopole Moments (Debye-Ang^2)
       XXX      11.2833    XXY       5.2973    XYY      -1.8755
       YYY      -5.0436    XXZ      48.0156    XYZ       6.8839
       YYZ      67.3554    XZZ      -5.8289    YZZ      -5.3501
       ZZZ     168.9692
    Hexadecapole Moments (Debye-Ang^3)
      XXXX    -263.0686   XXXY     -19.1782   XXYY     -92.9187
      XYYY     -25.3133   YYYY    -255.2894   XXXZ       8.7958
      XXYZ       7.2153   XYYZ      16.1663   YYYZ      42.4630
      XXZZ    -137.2134   XYZZ     -15.2457   YYZZ    -168.3771
      XZZZ      52.4809   YZZZ      44.7079   ZZZZ    -667.9013
 -----------------------------------------------------------------
 Calculating analytic gradient of the SCF energy
 Gradient of SCF Energy
            1           2           3           4           5           6
    1   0.1111426  -0.0018705   0.0119443   0.0130500   0.0621353  -0.1605378
    2   0.0314947   0.0190681   0.0538271   0.0326287  -0.0427959  -0.0249284
    3   0.0061650  -0.0031455   0.0321852  -0.0393772  -0.0668073   0.0255545
            7           8           9          10          11          12
    1   0.0028851  -0.0101530   0.0105663   0.0071512  -0.0154849  -0.0315237
    2  -0.0222210  -0.0161667   0.0485417   0.0101851  -0.0010934  -0.0845425
    3  -0.0179668   0.0002123  -0.0043005   0.0046792  -0.0010120   0.0659502
           13
    1   0.0006951
    2  -0.0039976
    3  -0.0021370
 Max gradient component =       1.605E-01
 RMS gradient           =       4.369E-02
 Gradient time:  CPU 7.75 s  wall 2.10 s
 Geometry Optimization Parameters
   NAtoms,    NIC,     NZ,  NCons,   NDum,   NFix, NCnnct, MaxDiis
       13     157       0       0       0       0       0       0


** GEOMETRY OPTIMIZATION IN DELOCALIZED INTERNAL COORDINATES **
   Searching for a Minimum

   Optimization Cycle:   1

                       Coordinates (Angstroms)
     ATOM                X               Y               Z
      1  C         1.6064845043    0.3444833159   -1.7149379120
      2  C         0.7408506054   -0.9723608192   -1.4565941339
      3  C        -0.5965185002   -0.6321443548   -1.9749461388
      4  C        -1.1200826837    0.3139962003   -0.6148061925
      5  C        -0.5492321324    0.7454675640   -2.1437673055
      6  N         0.6295271429    1.2720877831   -1.9736791638
      7  H         2.6380532528    0.2298532222   -2.0721182564
      8  H         1.0142282797   -2.0396508558   -1.5689005711
      9  H        -1.2368238782   -0.8640042586   -2.8103030259
     10  H        -2.0881102061    0.7567263215   -0.3991699452
     11  H        -1.4048674740    1.2826541289   -2.5933574982
     12  C        -0.6985728928   -1.1280076529   -0.2558592515
     13  H        -0.6198539958   -1.8347840831    0.5572819768
   Point Group: c1    Number of degrees of freedom:    33


   Energy is   -286.635958686


 Attempting to Generate Delocalized Internal Coordinates

 33 Hessian modes will be used to form the next step
  Hessian Eigenvalues:
     0.004406    0.010698    0.015473    0.016488    0.020259    0.022265
     0.026393    0.033503    0.040939    0.041651    0.049268    0.077099
     0.080208    0.081293    0.092921    0.105546    0.117212    0.125311
     0.136552    0.156501    0.180606    0.210847    0.229077    0.240976
     0.328710    0.330478    0.339425    0.343577    0.352687    0.359648
     0.362661    0.454562    0.603810

 Minimum Search - Taking Simple RFO Step
 Searching for Lamda that Minimizes Along All modes
 Value Taken    Lamda =  -0.09063886
 Calculated Step too Large.  Step scaled by  0.483109
 Step Taken.  Stepsize is  0.300000

                             Maximum     Tolerance    Cnvgd?
         Gradient           0.081768      0.000600      NO
         Displacement       0.118017      0.002400      NO
         Energy change     *********      0.000002      NO


 New Cartesian Coordinates Obtained by Inverse Iteration

 Displacement from previous Coordinates is:  0.240927
 ----------------------------------------------------------------
             Standard Nuclear Orientation (Angstroms)
    I     Atom           X                Y                Z
 ----------------------------------------------------------------
    1      C       1.5716260788     0.3198356823    -1.7198735253
    2      C       0.7324618438    -0.9775159089    -1.4692974626
    3      C      -0.6046954707    -0.6479345940    -1.9848043269
    4      C      -1.1247230992     0.3059877415    -0.6130883627
    5      C      -0.5456245004     0.7635993443    -2.1318318371
    6      N       0.6708366667     1.2831895309    -1.9784867216
    7      H       2.6108593373     0.2274097281    -2.0394842372
    8      H       1.0248758063    -2.0329181907    -1.5668679472
    9      H      -1.2530561136    -0.9174840943    -2.8123772706
   10      H      -2.0990758915     0.7333436339    -0.3912547804
   11      H      -1.3861018416     1.3150286638    -2.5750652516
   12      C      -0.6856664561    -1.1027040335    -0.2809769789
   13      H      -0.5966343379    -1.7955209920     0.5422512842
 ----------------------------------------------------------------
 Nuclear Repulsion Energy =   277.4894043589 hartrees
 There are       25 alpha and       24 beta electrons
 Applying Cartesian multipole field
    Component          Value
    ---------          -----
     (2,0,0)        1.00000E-11
     (0,2,0)        2.00000E-11
     (0,0,2)       -3.00000E-11
 Nucleus-field energy     =    -0.0000000094 hartrees
 Requested basis set is 6-31G(d)
 There are 40 shells and 117 basis functions
 A cutoff of  1.0D-14 yielded    810 shell pairs
 There are      7082 function pairs
 Smallest overlap matrix eigenvalue = 1.66E-03
 Guess MOs from SCF MO coefficient file
 Reading MOs from coefficient file
 Reading MOs from coefficient file
 An unrestricted hybrid HF-DFT SCF calculation will be
 performed using Pulay DIIS extrapolation
 Exchange:     0.2000 Hartree-Fock + 0.0800 Slater + 0.7200 B88
 Correlation:  0.1900 VWN1RPA + 0.8100 LYP
 Using SG-1 standard quadrature grid
 SCF converges when DIIS error is below 1.0E-08
 Geometry optimization detected.  Setting ReadMinima to 0
 Setting SaveMinima to 0
Using Q-Chem read-in guess as SCF_GUESS READ specified.

 using 4 threads for integral computing
 -------------------------------------------------------
 OpenMP Integral computing Module                
 Release: version 1.0, May 2013, Q-Chem Inc. Pittsburgh 
 -------------------------------------------------------
 -------------------------------------------------------
 OpenMP BLAS3 based DFT computing Module                
 Release: version 1.0, May 2013, Q-Chem Inc. Pittsburgh 
 -------------------------------------------------------
 ---------------------------------------
  Cycle       Energy         DIIS Error
 ---------------------------------------
    1    -286.7035697878      3.14E-03
    2    -286.6726953961      1.09E-03
    3    -286.6700268302      1.66E-03
    4    -286.6746723704      4.19E-04
    5    -286.6749539535      4.28E-05
    6    -286.6749609228      2.65E-05
    7    -286.6749640630      8.61E-06
    8    -286.6749659411      8.22E-06
    9    -286.6749669169      2.57E-06
   10    -286.6749675046      1.55E-06
   11    -286.6749676149      6.95E-07
   12    -286.6749676674      3.63E-07
   13    -286.6749676867      2.25E-07
   14    -286.6749676981      8.98E-08
   15    -286.6749677027      4.33E-08
   16    -286.6749677036      2.82E-08
   17    -286.6749677043      1.12E-08
   18    -286.6749677044      3.38E-09 Convergence criterion met
 ---------------------------------------
 <S^2> = 0.7669
 SCF time:  CPU 47.48 s  wall 32.39 s
 SCF   energy in the final basis set = -286.67496770
 Total energy in the final basis set = -286.67496770
 
 --------------------------------------------------------------
 
                    Orbital Energies (a.u.)
 --------------------------------------------------------------
 
 Alpha MOs
 -- Occupied --
-14.328 -10.250 -10.236 -10.228 -10.228 -10.221 -10.211  -0.978
 -0.853  -0.741  -0.677  -0.618  -0.573  -0.554  -0.509  -0.474
 -0.445  -0.410  -0.399  -0.383  -0.322  -0.276  -0.265  -0.242
 -0.120
 -- Virtual --
 -0.035   0.034   0.053   0.085   0.119   0.143   0.146   0.154
  0.179   0.202   0.213   0.225   0.268   0.301   0.312   0.414
  0.502   0.511   0.525   0.543   0.553   0.566   0.584   0.599
  0.602   0.623   0.652   0.662   0.687   0.730   0.767   0.795
  0.812   0.825   0.836   0.846   0.869   0.886   0.895   0.933
  0.969   1.005   1.080   1.103   1.110   1.188   1.251   1.265
  1.396   1.461   1.486   1.496   1.565   1.632   1.668   1.696
  1.745   1.764   1.796   1.824   1.855   1.907   1.980   1.999
  2.064   2.129   2.157   2.169   2.237   2.270   2.327   2.383
  2.399   2.469   2.489   2.536   2.551   2.586   2.619   2.672
  2.692   2.707   2.750   2.940   2.992   3.972   4.079   4.184
  4.372   4.418   4.462   4.535
 
 Beta MOs
 -- Occupied --
-14.327 -10.251 -10.237 -10.228 -10.220 -10.220 -10.202  -0.975
 -0.848  -0.739  -0.666  -0.613  -0.569  -0.547  -0.503  -0.469
 -0.444  -0.409  -0.396  -0.378  -0.293  -0.272  -0.260  -0.227
 -- Virtual --
 -0.032  -0.002   0.041   0.064   0.087   0.127   0.144   0.147
  0.156   0.183   0.209   0.215   0.228   0.277   0.304   0.318
  0.416   0.508   0.512   0.529   0.547   0.563   0.576   0.591
  0.604   0.611   0.633   0.657   0.674   0.691   0.734   0.770
  0.796   0.814   0.826   0.840   0.852   0.872   0.890   0.899
  0.938   0.972   1.008   1.083   1.108   1.117   1.195   1.259
  1.272   1.401   1.468   1.491   1.505   1.571   1.638   1.680
  1.701   1.753   1.773   1.799   1.827   1.866   1.925   1.985
  2.008   2.066   2.137   2.170   2.179   2.250   2.283   2.339
  2.393   2.403   2.476   2.495   2.538   2.556   2.589   2.629
  2.675   2.695   2.709   2.758   2.941   2.993   3.975   4.084
  4.194   4.382   4.427   4.464   4.534
 --------------------------------------------------------------
 
          Ground-State Mulliken Net Atomic Charges

     Atom                 Charge (a.u.)    Spin (a.u.)
  --------------------------------------------------------
      1 C                     0.046896      -0.017048
      2 C                    -0.196220      -0.008661
      3 C                    -0.127191      -0.085704
      4 C                    -0.196984       0.569298
      5 C                     0.003667       0.029992
      6 N                    -0.328513       0.028934
      7 H                     0.168835       0.007283
      8 H                     0.152737       0.001449
      9 H                     0.170889       0.000395
     10 H                     0.148021      -0.021728
     11 H                     0.165746       0.000953
     12 C                    -0.179527       0.508632
     13 H                     0.171644      -0.013794
  --------------------------------------------------------
  Sum of atomic charges =    -0.000000
  Sum of spin   charges =     1.000000

 -----------------------------------------------------------------
                    Cartesian Multipole Moments
 -----------------------------------------------------------------
    Charge (ESU x 10^10)
                 0.0000
    Dipole Moment (Debye)
         X      -0.7547      Y      -2.1917      Z      -0.9034
       Tot       2.4878
    Quadrupole Moments (Debye-Ang)
        XX     -36.8482     XY      -3.4910     YY     -43.4679
        XZ       1.6976     YZ       2.5754     ZZ     -37.7908
    Octopole Moments (Debye-Ang^2)
       XXX      10.2412    XXY       4.6426    XYY      -1.9181
       YYY      -5.1067    XXZ      49.2412    XYZ       6.9147
       YYZ      66.9398    XZZ      -6.5067    YZZ      -6.1037
       ZZZ     170.7070
    Hexadecapole Moments (Debye-Ang^3)
      XXXX    -262.9846   XXXY     -19.0404   XXYY     -92.3504
      XYYY     -26.1052   YYYY    -255.0841   XXXZ      11.5869
      XXYZ       8.0347   XYYZ      16.9762   YYYZ      41.9216
      XXZZ    -139.6028   XYZZ     -15.2818   YYZZ    -167.5461
      XZZZ      53.7429   YZZZ      45.4181   ZZZZ    -672.8446
 -----------------------------------------------------------------
 Calculating analytic gradient of the SCF energy
 Gradient of SCF Energy
            1           2           3           4           5           6
    1   0.0805458   0.0012411   0.0143086   0.0116579   0.0481864  -0.1118488
    2   0.0280218   0.0149366   0.0328903   0.0128805  -0.0274329  -0.0078860
    3   0.0049000  -0.0062400   0.0347542  -0.0319420  -0.0709280   0.0259279
            7           8           9          10          11          12
    1  -0.0015117  -0.0100725   0.0056038   0.0062634  -0.0124626  -0.0334158
    2  -0.0184107  -0.0118685   0.0401155   0.0102987  -0.0013863  -0.0699975
    3  -0.0174130   0.0007654  -0.0086370   0.0046608   0.0008108   0.0644469
           13
    1   0.0015044
    2  -0.0021614
    3  -0.0011059
 Max gradient component =       1.118E-01
 RMS gradient           =       3.428E-02
 Gradient time:  CPU 8.07 s  wall 4.39 s
 Geometry Optimization Parameters
   NAtoms,    NIC,     NZ,  NCons,   NDum,   NFix, NCnnct, MaxDiis
       13     157       0       0       0       0       0       0

 Cartesian Hessian Update
 Hessian Updated using BFGS Update


** GEOMETRY OPTIMIZATION IN DELOCALIZED INTERNAL COORDINATES **
   Searching for a Minimum

   Optimization Cycle:   2

                       Coordinates (Angstroms)
     ATOM                X               Y               Z
      1  C         1.5716260788    0.3198356823   -1.7198735253
      2  C         0.7324618438   -0.9775159089   -1.4692974626
      3  C        -0.6046954707   -0.6479345940   -1.9848043269
      4  C        -1.1247230992    0.3059877415   -0.6130883627
      5  C        -0.5456245004    0.7635993443   -2.1318318371
      6  N         0.6708366667    1.2831895309   -1.9784867216
      7  H         2.6108593373    0.2274097281   -2.0394842372
      8  H         1.0248758063   -2.0329181907   -1.5668679472
      9  H        -1.2530561136   -0.9174840943   -2.8123772706
     10  H        -2.0990758915    0.7333436339   -0.3912547804
     11  H        -1.3861018416    1.3150286638   -2.5750652516
     12  C        -0.6856664561   -1.1027040335   -0.2809769789
     13  H        -0.5966343379   -1.7955209920    0.5422512842
   Point Group: c1    Number of degrees of freedom:    33


   Energy is   -286.674967704

 Hessian Updated using BFGS Update

 33 Hessian modes will be used to form the next step
  Hessian Eigenvalues:
     0.004403    0.010637    0.015701    0.016359    0.020430    0.022007
     0.026771    0.033279    0.040010    0.041638    0.049299    0.073993
     0.078822    0.080360    0.090119    0.102120    0.106235    0.117221
     0.136256    0.143548    0.173829    0.211006    0.230285    0.245571
     0.328693    0.330216    0.339472    0.352676    0.359643    0.360906
     0.396664    0.454318    0.588768

 Minimum Search - Taking Simple RFO Step
 Searching for Lamda that Minimizes Along All modes
 Value Taken    Lamda =  -0.08073409
 Calculated Step too Large.  Step scaled by  0.416348
 Step Taken.  Stepsize is  0.300000

                             Maximum     Tolerance    Cnvgd?
         Gradient           0.063931      0.000600      NO
         Displacement       0.122558      0.002400      NO
         Energy change     -0.039009      0.000002      NO


 New Cartesian Coordinates Obtained by Inverse Iteration

 Displacement from previous Coordinates is:  0.239660
 ----------------------------------------------------------------
             Standard Nuclear Orientation (Angstroms)
    I     Atom           X                Y                Z
 ----------------------------------------------------------------
    1      C       1.5429356388     0.2900111779    -1.7175679898
    2      C       0.7262396394    -0.9814144422    -1.4814629444
    3      C      -0.6150571954    -0.6631754134    -1.9949830417
    4      C      -1.1277247109     0.3098710830    -0.6116319551
    5      C      -0.5526504880     0.7726095115    -2.1148536339
    6      N       0.7024180495     1.2744475026    -1.9821266589
    7      H       2.5931386159     0.2285864343    -1.9993428871
    8      H       1.0394858986    -2.0255092168    -1.5655994710
    9      H      -1.2680115753    -0.9667081055    -2.8109850168
   10      H      -2.1053188648     0.7250785800    -0.3800210011
   11      H      -1.3790588095     1.3360072247    -2.5531550174
   12      C      -0.6714526878    -1.0715542698    -0.3196634005
   13      H      -0.5698614886    -1.7539335547     0.5102355997
 ----------------------------------------------------------------
 Nuclear Repulsion Energy =   278.7788008610 hartrees
 There are       25 alpha and       24 beta electrons
 Applying Cartesian multipole field
    Component          Value
    ---------          -----
     (2,0,0)        1.00000E-11
     (0,2,0)        2.00000E-11
     (0,0,2)       -3.00000E-11
 Nucleus-field energy     =    -0.0000000094 hartrees
 Requested basis set is 6-31G(d)
 There are 40 shells and 117 basis functions
 A cutoff of  1.0D-14 yielded    810 shell pairs
 There are      7082 function pairs
 Smallest overlap matrix eigenvalue = 1.68E-03
 Guess MOs from SCF MO coefficient file
 Reading MOs from coefficient file
 Reading MOs from coefficient file
 An unrestricted hybrid HF-DFT SCF calculation will be
 performed using Pulay DIIS extrapolation
 Exchange:     0.2000 Hartree-Fock + 0.0800 Slater + 0.7200 B88
 Correlation:  0.1900 VWN1RPA + 0.8100 LYP
 Using SG-1 standard quadrature grid
 SCF converges when DIIS error is below 1.0E-08
 Geometry optimization detected.  Setting ReadMinima to 0
 Setting SaveMinima to 0
Using Q-Chem read-in guess as SCF_GUESS READ specified.

 using 4 threads for integral computing
 -------------------------------------------------------
 OpenMP Integral computing Module                
 Release: version 1.0, May 2013, Q-Chem Inc. Pittsburgh 
 -------------------------------------------------------
 -------------------------------------------------------
 OpenMP BLAS3 based DFT computing Module                
 Release: version 1.0, May 2013, Q-Chem Inc. Pittsburgh 
 -------------------------------------------------------
 ---------------------------------------
  Cycle       Energy         DIIS Error
 ---------------------------------------
    1    -286.7404566416      2.85E-03
    2    -286.7033969053      1.03E-03
    3    -286.7008206608      1.63E-03
    4    -286.7053129629      3.31E-04
    5    -286.7054948589      4.08E-05
    6    -286.7055081042      2.13E-05
    7    -286.7055135606      1.11E-05
    8    -286.7055164806      8.00E-06
    9    -286.7055171125      2.50E-06
   10    -286.7055173053      1.12E-06
   11    -286.7055173250      4.15E-07
   12    -286.7055173348      2.40E-07
   13    -286.7055173390      1.29E-07
   14    -286.7055173406      5.01E-08
   15    -286.7055173414      2.23E-08
   16    -286.7055173416      1.69E-08
   17    -286.7055173417      5.80E-09 Convergence criterion met
 ---------------------------------------
 <S^2> = 0.7637
 SCF time:  CPU 44.99 s  wall 26.06 s
 SCF   energy in the final basis set = -286.70551734
 Total energy in the final basis set = -286.70551734
 
 --------------------------------------------------------------
 
                    Orbital Energies (a.u.)
 --------------------------------------------------------------
 
 Alpha MOs
 -- Occupied --
-14.325 -10.253 -10.230 -10.226 -10.225 -10.220 -10.206  -0.976
 -0.858  -0.743  -0.678  -0.615  -0.578  -0.551  -0.509  -0.475
 -0.442  -0.411  -0.401  -0.386  -0.327  -0.280  -0.267  -0.247
 -0.115
 -- Virtual --
 -0.025   0.035   0.061   0.089   0.125   0.144   0.151   0.154
  0.181   0.212   0.218   0.223   0.271   0.311   0.321   0.413
  0.502   0.505   0.524   0.540   0.555   0.566   0.589   0.601
  0.606   0.626   0.642   0.666   0.684   0.734   0.765   0.800
  0.817   0.823   0.835   0.844   0.867   0.891   0.898   0.933
  0.968   1.011   1.089   1.105   1.123   1.182   1.258   1.269
  1.408   1.454   1.482   1.518   1.566   1.631   1.675   1.691
  1.752   1.762   1.801   1.832   1.878   1.924   1.991   2.010
  2.067   2.137   2.169   2.182   2.240   2.294   2.331   2.400
  2.410   2.485   2.501   2.537   2.554   2.587   2.637   2.668
  2.694   2.724   2.760   2.939   2.985   3.966   4.091   4.206
  4.372   4.428   4.471   4.535
 
 Beta MOs
 -- Occupied --
-14.324 -10.254 -10.230 -10.225 -10.219 -10.218 -10.197  -0.974
 -0.853  -0.739  -0.667  -0.609  -0.574  -0.546  -0.503  -0.470
 -0.440  -0.410  -0.399  -0.381  -0.297  -0.276  -0.262  -0.233
 -- Virtual --
 -0.023   0.002   0.044   0.072   0.091   0.133   0.146   0.153
  0.156   0.185   0.216   0.223   0.226   0.277   0.316   0.327
  0.415   0.506   0.511   0.528   0.545   0.563   0.578   0.594
  0.610   0.613   0.632   0.649   0.677   0.689   0.738   0.768
  0.801   0.819   0.824   0.839   0.850   0.871   0.894   0.901
  0.939   0.971   1.014   1.093   1.114   1.127   1.190   1.265
  1.276   1.414   1.461   1.488   1.526   1.572   1.637   1.687
  1.696   1.763   1.767   1.805   1.835   1.889   1.940   1.995
  2.018   2.071   2.145   2.181   2.189   2.252   2.307   2.346
  2.405   2.421   2.495   2.505   2.543   2.556   2.589   2.647
  2.670   2.697   2.726   2.768   2.941   2.986   3.969   4.097
  4.215   4.385   4.436   4.473   4.534
 --------------------------------------------------------------
 
          Ground-State Mulliken Net Atomic Charges

     Atom                 Charge (a.u.)    Spin (a.u.)
  --------------------------------------------------------
      1 C                     0.059822       0.000380
      2 C                    -0.193824      -0.005281
      3 C                    -0.127589      -0.086761
      4 C                    -0.196020       0.624457
      5 C                    -0.005383       0.035506
      6 N                    -0.330083       0.021878
      7 H                     0.159818       0.007057
      8 H                     0.153230       0.001457
      9 H                     0.169857       0.004743
     10 H                     0.147259      -0.025551
     11 H                     0.163670      -0.000317
     12 C                    -0.171999       0.435862
     13 H                     0.171242      -0.013430
  --------------------------------------------------------
  Sum of atomic charges =    -0.000000
  Sum of spin   charges =     1.000000

 -----------------------------------------------------------------
                    Cartesian Multipole Moments
 -----------------------------------------------------------------
    Charge (ESU x 10^10)
                -0.0000
    Dipole Moment (Debye)
         X      -0.8126      Y      -2.3505      Z      -0.7597
       Tot       2.6005
    Quadrupole Moments (Debye-Ang)
        XX     -37.0255     XY      -3.5262     YY     -43.2711
        XZ       1.9845     YZ       2.8723     ZZ     -38.2061
    Octopole Moments (Debye-Ang^2)
       XXX       9.4082    XXY       4.1389    XYY      -1.9412
       YYY      -4.9498    XXZ      50.2909    XYZ       6.8793
       YYZ      66.5359    XZZ      -7.0115    YZZ      -6.6489
       ZZZ     172.6713
    Hexadecapole Moments (Debye-Ang^3)
      XXXX    -263.0394   XXXY     -17.9894   XXYY     -91.3290
      XYYY     -25.6012   YYYY    -251.9576   XXXZ      13.1986
      XXYZ       8.1772   XYYZ      17.3085   YYYZ      39.7574
      XXZZ    -141.6873   XYZZ     -14.9404   YYZZ    -166.2994
      XZZZ      53.8490   YZZZ      44.4223   ZZZZ    -676.7320
 -----------------------------------------------------------------
 Calculating analytic gradient of the SCF energy
 Gradient of SCF Energy
            1           2           3           4           5           6
    1   0.0521766   0.0060588   0.0133361   0.0108635   0.0355670  -0.0720252
    2   0.0236442   0.0151676   0.0296030  -0.0098238  -0.0188088  -0.0055313
    3   0.0061421  -0.0092537   0.0327876  -0.0296856  -0.0722993   0.0254208
            7           8           9          10          11          12
    1  -0.0027387  -0.0090861   0.0028192   0.0054112  -0.0101934  -0.0359280
    2  -0.0140461  -0.0079431   0.0342721   0.0104233  -0.0023492  -0.0549593
    3  -0.0169508   0.0007333  -0.0092932   0.0042619   0.0037931   0.0635168
           13
    1   0.0037390
    2   0.0003513
    3   0.0008270
 Max gradient component =       7.230E-02
 RMS gradient           =       2.781E-02
 Gradient time:  CPU 7.47 s  wall 2.11 s
 Geometry Optimization Parameters
   NAtoms,    NIC,     NZ,  NCons,   NDum,   NFix, NCnnct, MaxDiis
       13     157       0       0       0       0       0       0

 Cartesian Hessian Update
 Hessian Updated using BFGS Update


** GEOMETRY OPTIMIZATION IN DELOCALIZED INTERNAL COORDINATES **
   Searching for a Minimum

   Optimization Cycle:   3

                       Coordinates (Angstroms)
     ATOM                X               Y               Z
      1  C         1.5429356388    0.2900111779   -1.7175679898
      2  C         0.7262396394   -0.9814144422   -1.4814629444
      3  C        -0.6150571954   -0.6631754134   -1.9949830417
      4  C        -1.1277247109    0.3098710830   -0.6116319551
      5  C        -0.5526504880    0.7726095115   -2.1148536339
      6  N         0.7024180495    1.2744475026   -1.9821266589
      7  H         2.5931386159    0.2285864343   -1.9993428871
      8  H         1.0394858986   -2.0255092168   -1.5655994710
      9  H        -1.2680115753   -0.9667081055   -2.8109850168
     10  H        -2.1053188648    0.7250785800   -0.3800210011
     11  H        -1.3790588095    1.3360072247   -2.5531550174
     12  C        -0.6714526878   -1.0715542698   -0.3196634005
     13  H        -0.5698614886   -1.7539335547    0.5102355997
   Point Group: c1    Number of degrees of freedom:    33


   Energy is   -286.705517342

 Hessian Updated using BFGS Update

 33 Hessian modes will be used to form the next step
  Hessian Eigenvalues:
     0.004374    0.010727    0.015938    0.016591    0.020097    0.022142
     0.026677    0.032435    0.041078    0.041978    0.049098    0.058248
     0.078500    0.080363    0.087440    0.094829    0.106341    0.117233
     0.135930    0.143013    0.172567    0.219855    0.230479    0.268477
     0.329201    0.331274    0.339341    0.352661    0.359647    0.361274
     0.403287    0.480802    0.618192

 Minimum Search - Taking Simple RFO Step
 Searching for Lamda that Minimizes Along All modes
 Value Taken    Lamda =  -0.06931974
 Calculated Step too Large.  Step scaled by  0.387800
 Step Taken.  Stepsize is  0.300000

                             Maximum     Tolerance    Cnvgd?
         Gradient           0.046938      0.000600      NO
         Displacement       0.109937      0.002400      NO
         Energy change     -0.030550      0.000002      NO


 New Cartesian Coordinates Obtained by Inverse Iteration

 Displacement from previous Coordinates is:  0.240311
 ----------------------------------------------------------------
             Standard Nuclear Orientation (Angstroms)
    I     Atom           X                Y                Z
 ----------------------------------------------------------------
    1      C       1.5201842014     0.2645971270    -1.7164309667
    2      C       0.7204118518    -0.9873628194    -1.4910745620
    3      C      -0.6240166001    -0.6822428709    -2.0030098787
    4      C      -1.1297722383     0.3252828023    -0.6078414996
    5      C      -0.5629439619     0.7785896807    -2.0940847949
    6      N       0.7250536083     1.2670834074    -1.9846192713
    7      H       2.5804997453     0.2315833261    -1.9588669698
    8      H       1.0518938816    -2.0226530571    -1.5612881932
    9      H      -1.2787381561    -1.0213643735    -2.8071564056
   10      H      -2.1086427170     0.7305110368    -0.3657962817
   11      H      -1.3765937937     1.3522559067    -2.5320097690
   12      C      -0.6577757548    -1.0420792845    -0.3650198466
   13      H      -0.5444780447    -1.7198843700     0.4660410213
 ----------------------------------------------------------------
 Nuclear Repulsion Energy =   279.9032448113 hartrees
 There are       25 alpha and       24 beta electrons
 Applying Cartesian multipole field
    Component          Value
    ---------          -----
     (2,0,0)        1.00000E-11
     (0,2,0)        2.00000E-11
     (0,0,2)       -3.00000E-11
 Nucleus-field energy     =    -0.0000000094 hartrees
 Requested basis set is 6-31G(d)
 There are 40 shells and 117 basis functions
 A cutoff of  1.0D-14 yielded    810 shell pairs
 There are      7082 function pairs
 Smallest overlap matrix eigenvalue = 1.65E-03
 Guess MOs from SCF MO coefficient file
 Reading MOs from coefficient file
 Reading MOs from coefficient file
 An unrestricted hybrid HF-DFT SCF calculation will be
 performed using Pulay DIIS extrapolation
 Exchange:     0.2000 Hartree-Fock + 0.0800 Slater + 0.7200 B88
 Correlation:  0.1900 VWN1RPA + 0.8100 LYP
 Using SG-1 standard quadrature grid
 SCF converges when DIIS error is below 1.0E-08
 Geometry optimization detected.  Setting ReadMinima to 0
 Setting SaveMinima to 0
Using Q-Chem read-in guess as SCF_GUESS READ specified.

 using 4 threads for integral computing
 -------------------------------------------------------
 OpenMP Integral computing Module                
 Release: version 1.0, May 2013, Q-Chem Inc. Pittsburgh 
 -------------------------------------------------------
 -------------------------------------------------------
 OpenMP BLAS3 based DFT computing Module                
 Release: version 1.0, May 2013, Q-Chem Inc. Pittsburgh 
 -------------------------------------------------------
 ---------------------------------------
  Cycle       Energy         DIIS Error
 ---------------------------------------
    1    -286.7573452871      2.63E-03
    2    -286.7288576598      9.02E-04
    3    -286.7267648275      1.47E-03
    4    -286.7305041116      2.64E-04
    5    -286.7306307360      4.32E-05
    6    -286.7306547382      2.00E-05
    7    -286.7306649468      1.51E-05
    8    -286.7306683029      6.56E-06
    9    -286.7306688488      3.29E-06
   10    -286.7306689991      6.43E-07
   11    -286.7306690211      3.66E-07
   12    -286.7306690254      1.99E-07
   13    -286.7306690273      6.56E-08
   14    -286.7306690275      4.10E-08
   15    -286.7306690275      9.25E-09 Convergence criterion met
 ---------------------------------------
 <S^2> = 0.7600
 SCF time:  CPU 39.70 s  wall 24.67 s
 SCF   energy in the final basis set = -286.73066903
 Total energy in the final basis set = -286.73066903
 
 --------------------------------------------------------------
 
                    Orbital Energies (a.u.)
 --------------------------------------------------------------
 
 Alpha MOs
 -- Occupied --
-14.323 -10.253 -10.225 -10.224 -10.222 -10.219 -10.200  -0.975
 -0.862  -0.744  -0.676  -0.613  -0.582  -0.549  -0.510  -0.476
 -0.438  -0.414  -0.399  -0.389  -0.331  -0.285  -0.268  -0.250
 -0.114
 -- Virtual --
 -0.018   0.040   0.072   0.093   0.131   0.146   0.152   0.156
  0.183   0.215   0.221   0.226   0.270   0.324   0.330   0.410
  0.499   0.504   0.523   0.539   0.558   0.566   0.593   0.604
  0.613   0.625   0.634   0.672   0.683   0.738   0.764   0.802
  0.820   0.823   0.833   0.843   0.866   0.895   0.901   0.936
  0.967   1.012   1.088   1.103   1.139   1.185   1.265   1.275
  1.424   1.447   1.484   1.540   1.566   1.625   1.684   1.697
  1.749   1.773   1.807   1.836   1.897   1.934   1.999   2.023
  2.066   2.130   2.185   2.198   2.243   2.314   2.331   2.408
  2.431   2.487   2.512   2.537   2.562   2.589   2.642   2.674
  2.695   2.739   2.771   2.938   2.982   3.960   4.103   4.223
  4.374   4.440   4.479   4.541
 
 Beta MOs
 -- Occupied --
-14.322 -10.254 -10.225 -10.221 -10.219 -10.218 -10.190  -0.973
 -0.857  -0.740  -0.666  -0.606  -0.579  -0.545  -0.502  -0.471
 -0.436  -0.412  -0.397  -0.382  -0.302  -0.280  -0.264  -0.239
 -- Virtual --
 -0.017   0.005   0.049   0.081   0.095   0.137   0.149   0.154
  0.158   0.187   0.216   0.225   0.234   0.275   0.327   0.339
  0.412   0.501   0.514   0.527   0.543   0.564   0.580   0.596
  0.612   0.622   0.627   0.648   0.681   0.688   0.742   0.768
  0.803   0.821   0.825   0.837   0.847   0.871   0.898   0.903
  0.941   0.970   1.016   1.093   1.115   1.144   1.192   1.271
  1.282   1.429   1.454   1.491   1.547   1.571   1.630   1.692
  1.708   1.758   1.780   1.811   1.839   1.908   1.948   2.003
  2.028   2.073   2.139   2.193   2.204   2.258   2.328   2.348
  2.414   2.443   2.498   2.515   2.546   2.564   2.590   2.651
  2.678   2.699   2.743   2.778   2.939   2.983   3.963   4.108
  4.232   4.389   4.447   4.481   4.540
 --------------------------------------------------------------
 
          Ground-State Mulliken Net Atomic Charges

     Atom                 Charge (a.u.)    Spin (a.u.)
  --------------------------------------------------------
      1 C                     0.070284       0.004751
      2 C                    -0.191726       0.002760
      3 C                    -0.126640      -0.073931
      4 C                    -0.192026       0.706405
      5 C                    -0.016767       0.039040
      6 N                    -0.331911       0.016969
      7 H                     0.153511       0.006764
      8 H                     0.153470       0.001427
      9 H                     0.165552       0.010896
     10 H                     0.146487      -0.031488
     11 H                     0.160871      -0.002074
     12 C                    -0.163331       0.331010
     13 H                     0.172226      -0.012528
  --------------------------------------------------------
  Sum of atomic charges =     0.000000
  Sum of spin   charges =     1.000000

 -----------------------------------------------------------------
                    Cartesian Multipole Moments
 -----------------------------------------------------------------
    Charge (ESU x 10^10)
                -0.0000
    Dipole Moment (Debye)
         X      -0.8188      Y      -2.5221      Z      -0.5996
       Tot       2.7186
    Quadrupole Moments (Debye-Ang)
        XX     -37.1259     XY      -3.4936     YY     -43.0118
        XZ       2.1256     YZ       3.0745     ZZ     -38.7547
    Octopole Moments (Debye-Ang^2)
       XXX       8.8885    XXY       3.6726    XYY      -2.0280
       YYY      -5.1611    XXZ      51.1467    XYZ       6.7855
       YYZ      66.1926    XZZ      -7.0269    YZZ      -6.9539
       ZZZ     174.9640
    Hexadecapole Moments (Debye-Ang^3)
      XXXX    -262.5909   XXXY     -16.6143   XXYY     -90.4062
      XYYY     -24.5366   YYYY    -249.6175   XXXZ      13.9363
      XXYZ       8.0134   XYYZ      17.4601   YYYZ      37.4469
      XXZZ    -143.4587   XYZZ     -14.4499   YYZZ    -165.4420
      XZZZ      52.5929   YZZZ      42.4149   ZZZZ    -681.0658
 -----------------------------------------------------------------
 Calculating analytic gradient of the SCF energy
 Gradient of SCF Energy
            1           2           3           4           5           6
    1   0.0300917   0.0093483   0.0118856   0.0084058   0.0297159  -0.0438430
    2   0.0164790   0.0154481   0.0320516  -0.0296364  -0.0094092  -0.0035423
    3   0.0083054  -0.0109896   0.0326285  -0.0323518  -0.0716531   0.0225059
            7           8           9          10          11          12
    1  -0.0030556  -0.0081851  -0.0002913   0.0043699  -0.0089531  -0.0366448
    2  -0.0101710  -0.0051778   0.0288607   0.0103447  -0.0027520  -0.0460289
    3  -0.0162881   0.0005073  -0.0084229   0.0029870   0.0069625   0.0630377
           13
    1   0.0071558
    2   0.0035335
    3   0.0027711
 Max gradient component =       7.165E-02
 RMS gradient           =       2.461E-02
 Gradient time:  CPU 7.82 s  wall 2.54 s
 Geometry Optimization Parameters
   NAtoms,    NIC,     NZ,  NCons,   NDum,   NFix, NCnnct, MaxDiis
       13     157       0       0       0       0       0       0

 Cartesian Hessian Update
 Hessian Updated using BFGS Update


** GEOMETRY OPTIMIZATION IN DELOCALIZED INTERNAL COORDINATES **
   Searching for a Minimum

   Optimization Cycle:   4

                       Coordinates (Angstroms)
     ATOM                X               Y               Z
      1  C         1.5201842014    0.2645971270   -1.7164309667
      2  C         0.7204118518   -0.9873628194   -1.4910745620
      3  C        -0.6240166001   -0.6822428709   -2.0030098787
      4  C        -1.1297722383    0.3252828023   -0.6078414996
      5  C        -0.5629439619    0.7785896807   -2.0940847949
      6  N         0.7250536083    1.2670834074   -1.9846192713
      7  H         2.5804997453    0.2315833261   -1.9588669698
      8  H         1.0518938816   -2.0226530571   -1.5612881932
      9  H        -1.2787381561   -1.0213643735   -2.8071564056
     10  H        -2.1086427170    0.7305110368   -0.3657962817
     11  H        -1.3765937937    1.3522559067   -2.5320097690
     12  C        -0.6577757548   -1.0420792845   -0.3650198466
     13  H        -0.5444780447   -1.7198843700    0.4660410213
   Point Group: c1    Number of degrees of freedom:    33


   Energy is   -286.730669028

 Hessian Updated using BFGS Update

 33 Hessian modes will be used to form the next step
  Hessian Eigenvalues:
     0.004226    0.010654    0.014624    0.017033    0.017816    0.022345
     0.027421    0.030080    0.041461    0.042675    0.044328    0.049995
     0.078680    0.080509    0.086275    0.094101    0.106670    0.118811
     0.136121    0.143857    0.171887    0.222018    0.230392    0.295110
     0.329316    0.332816    0.339305    0.352637    0.359645    0.361897
     0.416470    0.496486    0.715071

 Minimum Search - Taking Simple RFO Step
 Searching for Lamda that Minimizes Along All modes
 Value Taken    Lamda =  -0.06621585
 Calculated Step too Large.  Step scaled by  0.350724
 Step Taken.  Stepsize is  0.300000

                             Maximum     Tolerance    Cnvgd?
         Gradient           0.034057      0.000600      NO
         Displacement       0.112956      0.002400      NO
         Energy change     -0.025152      0.000002      NO


 New Cartesian Coordinates Obtained by Inverse Iteration

 Displacement from previous Coordinates is:  0.240759
 ----------------------------------------------------------------
             Standard Nuclear Orientation (Angstroms)
    I     Atom           X                Y                Z
 ----------------------------------------------------------------
    1      C       1.5033566944     0.2453632972    -1.7160253133
    2      C       0.7153211590    -0.9940105358    -1.4997530297
    3      C      -0.6307090191    -0.7051235896    -2.0107261466
    4      C      -1.1308928039     0.3483543996    -0.6001190198
    5      C      -0.5758557372     0.7808171138    -2.0716374714
    6      N       0.7417001487     1.2599141270    -1.9852809706
    7      H       2.5713497897     0.2360896819    -1.9209686292
    8      H       1.0625585826    -2.0218627817    -1.5567309956
    9      H      -1.2829108514    -1.0796451178    -2.8048665397
   10      H      -2.1082069100     0.7469656036    -0.3449202762
   11      H      -1.3777320588     1.3626503464    -2.5127485797
   12      C      -0.6475147263    -1.0136189186    -0.4129735109
   13      H      -0.5253822458    -1.6915771144     0.4155930646
 ----------------------------------------------------------------
 Nuclear Repulsion Energy =   280.8218153612 hartrees
 There are       25 alpha and       24 beta electrons
 Applying Cartesian multipole field
    Component          Value
    ---------          -----
     (2,0,0)        1.00000E-11
     (0,2,0)        2.00000E-11
     (0,0,2)       -3.00000E-11
 Nucleus-field energy     =    -0.0000000094 hartrees
 Requested basis set is 6-31G(d)
 There are 40 shells and 117 basis functions
 A cutoff of  1.0D-14 yielded    810 shell pairs
 There are      7082 function pairs
 Smallest overlap matrix eigenvalue = 1.59E-03
 Guess MOs from SCF MO coefficient file
 Reading MOs from coefficient file
 Reading MOs from coefficient file
 An unrestricted hybrid HF-DFT SCF calculation will be
 performed using Pulay DIIS extrapolation
 Exchange:     0.2000 Hartree-Fock + 0.0800 Slater + 0.7200 B88
 Correlation:  0.1900 VWN1RPA + 0.8100 LYP
 Using SG-1 standard quadrature grid
 SCF converges when DIIS error is below 1.0E-08
 Geometry optimization detected.  Setting ReadMinima to 0
 Setting SaveMinima to 0
Using Q-Chem read-in guess as SCF_GUESS READ specified.

 using 4 threads for integral computing
 -------------------------------------------------------
 OpenMP Integral computing Module                
 Release: version 1.0, May 2013, Q-Chem Inc. Pittsburgh 
 -------------------------------------------------------
 -------------------------------------------------------
 OpenMP BLAS3 based DFT computing Module                
 Release: version 1.0, May 2013, Q-Chem Inc. Pittsburgh 
 -------------------------------------------------------
 ---------------------------------------
  Cycle       Energy         DIIS Error
 ---------------------------------------
    1    -286.7740885009      2.58E-03
    2    -286.7513078382      8.09E-04
    3    -286.7497138010      1.33E-03
    4    -286.7527696351      2.34E-04
    5    -286.7528789553      5.05E-05
    6    -286.7529114094      2.41E-05
    7    -286.7529252416      2.08E-05
    8    -286.7529301177      5.16E-06
    9    -286.7529310832      3.09E-06
   10    -286.7529312889      7.35E-07
   11    -286.7529313317      3.93E-07
   12    -286.7529313396      2.15E-07
   13    -286.7529313444      4.63E-08
   14    -286.7529313454      3.09E-08
   15    -286.7529313458      1.17E-08
   16    -286.7529313460      6.92E-09 Convergence criterion met
 ---------------------------------------
 <S^2> = 0.7560
 SCF time:  CPU 42.42 s  wall 30.71 s
 SCF   energy in the final basis set = -286.75293135
 Total energy in the final basis set = -286.75293135
 
 --------------------------------------------------------------
 
                    Orbital Energies (a.u.)
 --------------------------------------------------------------
 
 Alpha MOs
 -- Occupied --
-14.323 -10.248 -10.223 -10.223 -10.218 -10.218 -10.194  -0.974
 -0.865  -0.745  -0.672  -0.612  -0.585  -0.547  -0.509  -0.477
 -0.433  -0.416  -0.395  -0.390  -0.334  -0.288  -0.269  -0.253
 -0.117
 -- Virtual --
 -0.015   0.050   0.083   0.098   0.134   0.149   0.152   0.159
  0.184   0.209   0.222   0.237   0.268   0.334   0.342   0.407
  0.495   0.505   0.522   0.538   0.561   0.566   0.596   0.604
  0.618   0.620   0.637   0.677   0.683   0.743   0.766   0.803
  0.818   0.825   0.831   0.842   0.867   0.898   0.904   0.941
  0.967   1.009   1.085   1.100   1.141   1.202   1.270   1.281
  1.433   1.444   1.494   1.557   1.565   1.616   1.688   1.714
  1.751   1.788   1.812   1.837   1.913   1.941   2.006   2.025
  2.077   2.117   2.199   2.211   2.255   2.326   2.333   2.414
  2.452   2.476   2.513   2.546   2.566   2.592   2.639   2.686
  2.712   2.750   2.783   2.937   2.981   3.954   4.112   4.237
  4.379   4.452   4.484   4.553
 
 Beta MOs
 -- Occupied --
-14.322 -10.248 -10.223 -10.220 -10.217 -10.217 -10.183  -0.971
 -0.859  -0.740  -0.663  -0.604  -0.582  -0.544  -0.500  -0.472
 -0.431  -0.414  -0.393  -0.383  -0.306  -0.284  -0.264  -0.244
 -- Virtual --
 -0.013   0.005   0.057   0.090   0.102   0.139   0.152   0.154
  0.162   0.188   0.212   0.225   0.245   0.273   0.336   0.351
  0.410   0.497   0.518   0.526   0.543   0.565   0.580   0.599
  0.609   0.623   0.632   0.651   0.683   0.690   0.747   0.769
  0.804   0.820   0.826   0.834   0.845   0.872   0.901   0.907
  0.946   0.969   1.013   1.090   1.113   1.149   1.206   1.276
  1.287   1.441   1.448   1.500   1.564   1.570   1.620   1.694
  1.729   1.760   1.794   1.817   1.841   1.924   1.953   2.011
  2.027   2.084   2.127   2.205   2.215   2.270   2.345   2.347
  2.422   2.462   2.489   2.518   2.554   2.569   2.593   2.646
  2.690   2.716   2.754   2.790   2.938   2.982   3.957   4.117
  4.246   4.394   4.458   4.486   4.554
 --------------------------------------------------------------
 
          Ground-State Mulliken Net Atomic Charges

     Atom                 Charge (a.u.)    Spin (a.u.)
  --------------------------------------------------------
      1 C                     0.080253      -0.001717
      2 C                    -0.192102       0.015740
      3 C                    -0.125371      -0.038574
      4 C                    -0.183079       0.795290
      5 C                    -0.029903       0.034244
      6 N                    -0.333910       0.014539
      7 H                     0.149868       0.006303
      8 H                     0.153280       0.001341
      9 H                     0.158859       0.016433
     10 H                     0.145201      -0.037924
     11 H                     0.157636      -0.003277
     12 C                    -0.153681       0.207791
     13 H                     0.172948      -0.010190
  --------------------------------------------------------
  Sum of atomic charges =     0.000000
  Sum of spin   charges =     1.000000

 -----------------------------------------------------------------
                    Cartesian Multipole Moments
 -----------------------------------------------------------------
    Charge (ESU x 10^10)
                -0.0000
    Dipole Moment (Debye)
         X      -0.7767      Y      -2.6586      Z      -0.4405
       Tot       2.8045
    Quadrupole Moments (Debye-Ang)
        XX     -37.1407     XY      -3.4166     YY     -42.7492
        XZ       2.1242     YZ       3.1745     ZZ     -39.3563
    Octopole Moments (Debye-Ang^2)
       XXX       8.6702    XXY       3.2926    XYY      -2.1767
       YYY      -5.5425    XXZ      51.7795    XYZ       6.6557
       YYZ      65.9038    XZZ      -6.6314    YZZ      -6.9597
       ZZZ     177.2254
    Hexadecapole Moments (Debye-Ang^3)
      XXXX    -261.7731   XXXY     -15.1826   XXYY     -89.6073
      XYYY     -23.1754   YYYY    -248.0069   XXXZ      14.0481
      XXYZ       7.5459   XYYZ      17.5261   YYYZ      35.0018
      XXZZ    -144.8493   XYZZ     -13.9311   YYZZ    -164.9878
      XZZZ      50.4259   YZZZ      39.3253   ZZZZ    -685.2933
 -----------------------------------------------------------------
 Calculating analytic gradient of the SCF energy
 Gradient of SCF Energy
            1           2           3           4           5           6
    1   0.0142477   0.0100846   0.0106180   0.0039315   0.0277399  -0.0230543
    2   0.0104304   0.0152974   0.0353548  -0.0433865   0.0000802  -0.0031966
    3   0.0109227  -0.0111850   0.0367454  -0.0362250  -0.0701751   0.0186839
            7           8           9          10          11          12
    1  -0.0032926  -0.0076173  -0.0037728   0.0031597  -0.0083941  -0.0346626
    2  -0.0070701  -0.0030135   0.0240586   0.0097243  -0.0031096  -0.0420286
    3  -0.0157121  -0.0000038  -0.0067506   0.0007392   0.0102866   0.0583907
           13
    1   0.0110122
    2   0.0068593
    3   0.0042832
 Max gradient component =       7.018E-02
 RMS gradient           =       2.335E-02
 Gradient time:  CPU 7.63 s  wall 2.07 s
 Geometry Optimization Parameters
   NAtoms,    NIC,     NZ,  NCons,   NDum,   NFix, NCnnct, MaxDiis
       13     157       0       0       0       0       0       0

 Cartesian Hessian Update
 Hessian Updated using BFGS Update


** GEOMETRY OPTIMIZATION IN DELOCALIZED INTERNAL COORDINATES **
   Searching for a Minimum

   Optimization Cycle:   5

                       Coordinates (Angstroms)
     ATOM                X               Y               Z
      1  C         1.5033566944    0.2453632972   -1.7160253133
      2  C         0.7153211590   -0.9940105358   -1.4997530297
      3  C        -0.6307090191   -0.7051235896   -2.0107261466
      4  C        -1.1308928039    0.3483543996   -0.6001190198
      5  C        -0.5758557372    0.7808171138   -2.0716374714
      6  N         0.7417001487    1.2599141270   -1.9852809706
      7  H         2.5713497897    0.2360896819   -1.9209686292
      8  H         1.0625585826   -2.0218627817   -1.5567309956
      9  H        -1.2829108514   -1.0796451178   -2.8048665397
     10  H        -2.1082069100    0.7469656036   -0.3449202762
     11  H        -1.3777320588    1.3626503464   -2.5127485797
     12  C        -0.6475147263   -1.0136189186   -0.4129735109
     13  H        -0.5253822458   -1.6915771144    0.4155930646
   Point Group: c1    Number of degrees of freedom:    33


   Energy is   -286.752931346

 Hessian Updated using BFGS Update

 33 Hessian modes will be used to form the next step
  Hessian Eigenvalues:
     0.003936    0.009763    0.012072    0.017154    0.017733    0.022538
     0.028060    0.028528    0.039470    0.041890    0.045056    0.049898
     0.079215    0.080897    0.086041    0.094036    0.106885    0.127031
     0.136418    0.149388    0.175184    0.222107    0.230668    0.306486
     0.329345    0.334421    0.339391    0.352617    0.359708    0.362215
     0.427951    0.501574    0.866041

 Minimum Search - Taking Simple RFO Step
 Searching for Lamda that Minimizes Along All modes
 Value Taken    Lamda =  -0.06364979
 Calculated Step too Large.  Step scaled by  0.331935
 Step Taken.  Stepsize is  0.300000

                             Maximum     Tolerance    Cnvgd?
         Gradient           0.028332      0.000600      NO
         Displacement       0.105166      0.002400      NO
         Energy change     -0.022262      0.000002      NO


 New Cartesian Coordinates Obtained by Inverse Iteration

 Displacement from previous Coordinates is:  0.240069
 ----------------------------------------------------------------
             Standard Nuclear Orientation (Angstroms)
    I     Atom           X                Y                Z
 ----------------------------------------------------------------
    1      C       1.4904159897     0.2304836322    -1.7172258403
    2      C       0.7110508598    -1.0014303642    -1.5096349406
    3      C      -0.6352782441    -0.7301334659    -2.0212106507
    4      C      -1.1306060255     0.3750636142    -0.5889915447
    5      C      -0.5908988646     0.7800096285    -2.0488834639
    6      N       0.7533991664     1.2529395154    -1.9848093366
    7      H       2.5646404626     0.2418793623    -1.8840729059
    8      H       1.0725553848    -2.0229195828    -1.5535141797
    9      H      -1.2804135549    -1.1392750849    -2.8071864326
   10      H      -2.1035612866     0.7702190303    -0.3168226389
   11      H      -1.3817707016     1.3690058137    -2.4955555840
   12      C      -0.6409897954    -0.9854038056    -0.4590739839
   13      H      -0.5134613688    -1.6661217815     0.3658240839
 ----------------------------------------------------------------
 Nuclear Repulsion Energy =   281.5022114337 hartrees
 There are       25 alpha and       24 beta electrons
 Applying Cartesian multipole field
    Component          Value
    ---------          -----
     (2,0,0)        1.00000E-11
     (0,2,0)        2.00000E-11
     (0,0,2)       -3.00000E-11
 Nucleus-field energy     =    -0.0000000094 hartrees
 Requested basis set is 6-31G(d)
 There are 40 shells and 117 basis functions
 A cutoff of  1.0D-14 yielded    810 shell pairs
 There are      7082 function pairs
 Smallest overlap matrix eigenvalue = 1.51E-03
 Guess MOs from SCF MO coefficient file
 Reading MOs from coefficient file
 Reading MOs from coefficient file
 An unrestricted hybrid HF-DFT SCF calculation will be
 performed using Pulay DIIS extrapolation
 Exchange:     0.2000 Hartree-Fock + 0.0800 Slater + 0.7200 B88
 Correlation:  0.1900 VWN1RPA + 0.8100 LYP
 Using SG-1 standard quadrature grid
 SCF converges when DIIS error is below 1.0E-08
 Geometry optimization detected.  Setting ReadMinima to 0
 Setting SaveMinima to 0
Using Q-Chem read-in guess as SCF_GUESS READ specified.

 using 4 threads for integral computing
 -------------------------------------------------------
 OpenMP Integral computing Module                
 Release: version 1.0, May 2013, Q-Chem Inc. Pittsburgh 
 -------------------------------------------------------
 -------------------------------------------------------
 OpenMP BLAS3 based DFT computing Module                
 Release: version 1.0, May 2013, Q-Chem Inc. Pittsburgh 
 -------------------------------------------------------
 ---------------------------------------
  Cycle       Energy         DIIS Error
 ---------------------------------------
    1    -286.7901406651      2.49E-03
    2    -286.7717467726      6.96E-04
    3    -286.7706781879      1.13E-03
    4    -286.7728517953      2.06E-04
    5    -286.7729349971      5.05E-05
    6    -286.7729583299      2.32E-05
    7    -286.7729680780      1.73E-05
    8    -286.7729715410      3.63E-06
    9    -286.7729723323      2.51E-06
   10    -286.7729724988      5.30E-07
   11    -286.7729725298      2.15E-07
   12    -286.7729725375      1.26E-07
   13    -286.7729725406      3.21E-08
   14    -286.7729725418      1.28E-08
   15    -286.7729725424      6.11E-09 Convergence criterion met
 ---------------------------------------
 <S^2> = 0.7539
 SCF time:  CPU 39.70 s  wall 28.81 s
 SCF   energy in the final basis set = -286.77297254
 Total energy in the final basis set = -286.77297254
 
 --------------------------------------------------------------
 
                    Orbital Energies (a.u.)
 --------------------------------------------------------------
 
 Alpha MOs
 -- Occupied --
-14.322 -10.240 -10.223 -10.221 -10.216 -10.216 -10.190  -0.973
 -0.866  -0.746  -0.668  -0.612  -0.585  -0.545  -0.509  -0.477
 -0.430  -0.417  -0.393  -0.387  -0.336  -0.292  -0.268  -0.255
 -0.125
 -- Virtual --
 -0.012   0.061   0.091   0.105   0.137   0.151   0.152   0.163
  0.184   0.201   0.223   0.247   0.265   0.340   0.356   0.406
  0.491   0.507   0.523   0.539   0.562   0.568   0.597   0.601
  0.618   0.625   0.643   0.680   0.686   0.747   0.770   0.803
  0.816   0.826   0.829   0.842   0.866   0.901   0.907   0.947
  0.965   1.003   1.080   1.096   1.135   1.225   1.268   1.291
  1.431   1.449   1.506   1.561   1.573   1.606   1.692   1.724
  1.758   1.810   1.818   1.841   1.929   1.944   2.003   2.027
  2.094   2.106   2.206   2.220   2.274   2.318   2.347   2.422
  2.459   2.468   2.507   2.543   2.580   2.592   2.636   2.696
  2.736   2.759   2.796   2.935   2.982   3.949   4.119   4.247
  4.386   4.459   4.490   4.571
 
 Beta MOs
 -- Occupied --
-14.321 -10.239 -10.222 -10.221 -10.215 -10.215 -10.178  -0.970
 -0.861  -0.740  -0.660  -0.604  -0.582  -0.542  -0.499  -0.473
 -0.427  -0.414  -0.390  -0.382  -0.310  -0.287  -0.263  -0.249
 -- Virtual --
 -0.010   0.002   0.066   0.095   0.110   0.142   0.153   0.155
  0.166   0.187   0.204   0.226   0.254   0.271   0.342   0.364
  0.409   0.493   0.521   0.527   0.543   0.566   0.580   0.602
  0.605   0.623   0.642   0.655   0.684   0.693   0.751   0.774
  0.804   0.819   0.827   0.832   0.844   0.872   0.904   0.910
  0.952   0.967   1.008   1.086   1.110   1.143   1.229   1.276
  1.294   1.440   1.451   1.512   1.566   1.579   1.609   1.697
  1.741   1.766   1.818   1.823   1.844   1.939   1.955   2.009
  2.029   2.100   2.117   2.214   2.224   2.285   2.340   2.360
  2.430   2.474   2.477   2.515   2.547   2.585   2.594   2.642
  2.700   2.740   2.763   2.804   2.937   2.983   3.953   4.124
  4.257   4.400   4.464   4.492   4.573
 --------------------------------------------------------------
 
          Ground-State Mulliken Net Atomic Charges

     Atom                 Charge (a.u.)    Spin (a.u.)
  --------------------------------------------------------
      1 C                     0.089105      -0.008936
      2 C                    -0.194254       0.029822
      3 C                    -0.124583       0.008034
      4 C                    -0.167026       0.861851
      5 C                    -0.043653       0.019167
      6 N                    -0.336776       0.016725
      7 H                     0.147438       0.005670
      8 H                     0.152878       0.001213
      9 H                     0.152966       0.018470
     10 H                     0.143982      -0.042281
     11 H                     0.154204      -0.002933
     12 C                    -0.146205       0.100294
     13 H                     0.171926      -0.007097
  --------------------------------------------------------
  Sum of atomic charges =    -0.000000
  Sum of spin   charges =     1.000000

 -----------------------------------------------------------------
                    Cartesian Multipole Moments
 -----------------------------------------------------------------
    Charge (ESU x 10^10)
                 0.0000
    Dipole Moment (Debye)
         X      -0.7492      Y      -2.7340      Z      -0.2971
       Tot       2.8503
    Quadrupole Moments (Debye-Ang)
        XX     -37.1140     XY      -3.3643     YY     -42.5409
        XZ       2.1017     YZ       3.2827     ZZ     -39.9079
    Octopole Moments (Debye-Ang^2)
       XXX       8.5972    XXY       3.0416    XYY      -2.3481
       YYY      -5.8969    XXZ      52.3141    XYZ       6.4880
       YYZ      65.6549    XZZ      -6.2455    YZZ      -6.9551
       ZZZ     179.1662
    Hexadecapole Moments (Debye-Ang^3)
      XXXX    -260.8575   XXXY     -13.8319   XXYY     -88.9305
      XYYY     -21.7847   YYYY    -247.2020   XXXZ      13.9718
      XXYZ       6.9394   XYYZ      17.6128   YYYZ      32.6407
      XXZZ    -146.0775   XYZZ     -13.3079   YYZZ    -164.8138
      XZZZ      48.6095   YZZZ      36.1925   ZZZZ    -689.0728
 -----------------------------------------------------------------
 Calculating analytic gradient of the SCF energy
 Gradient of SCF Energy
            1           2           3           4           5           6
    1   0.0027404   0.0088692   0.0106306  -0.0018581   0.0259088  -0.0069591
    2   0.0065822   0.0144677   0.0339476  -0.0481250   0.0075335  -0.0045651
    3   0.0126650  -0.0100752   0.0426554  -0.0357597  -0.0664630   0.0155198
            7           8           9          10          11          12
    1  -0.0032856  -0.0071090  -0.0067085   0.0021690  -0.0081425  -0.0304607
    2  -0.0044870  -0.0014829   0.0196016   0.0087493  -0.0034602  -0.0383996
    3  -0.0149572  -0.0007369  -0.0054912  -0.0018332   0.0132406   0.0461421
           13
    1   0.0142054
    2   0.0096379
    3   0.0050936
 Max gradient component =       6.646E-02
 RMS gradient           =       2.190E-02
 Gradient time:  CPU 8.03 s  wall 2.90 s
 Geometry Optimization Parameters
   NAtoms,    NIC,     NZ,  NCons,   NDum,   NFix, NCnnct, MaxDiis
       13     157       0       0       0       0       0       0

 Cartesian Hessian Update
 Hessian Updated using BFGS Update


** GEOMETRY OPTIMIZATION IN DELOCALIZED INTERNAL COORDINATES **
   Searching for a Minimum

   Optimization Cycle:   6

                       Coordinates (Angstroms)
     ATOM                X               Y               Z
      1  C         1.4904159897    0.2304836322   -1.7172258403
      2  C         0.7110508598   -1.0014303642   -1.5096349406
      3  C        -0.6352782441   -0.7301334659   -2.0212106507
      4  C        -1.1306060255    0.3750636142   -0.5889915447
      5  C        -0.5908988646    0.7800096285   -2.0488834639
      6  N         0.7533991664    1.2529395154   -1.9848093366
      7  H         2.5646404626    0.2418793623   -1.8840729059
      8  H         1.0725553848   -2.0229195828   -1.5535141797
      9  H        -1.2804135549   -1.1392750849   -2.8071864326
     10  H        -2.1035612866    0.7702190303   -0.3168226389
     11  H        -1.3817707016    1.3690058137   -2.4955555840
     12  C        -0.6409897954   -0.9854038056   -0.4590739839
     13  H        -0.5134613688   -1.6661217815    0.3658240839
   Point Group: c1    Number of degrees of freedom:    33


   Energy is   -286.772972542

 Hessian Updated using BFGS Update

 33 Hessian modes will be used to form the next step
  Hessian Eigenvalues:
     0.004236    0.010681    0.014357    0.017191    0.019198    0.022559
     0.027830    0.028318    0.039755    0.042944    0.044530    0.049855
     0.079285    0.080921    0.086636    0.094163    0.106934    0.132040
     0.136421    0.158162    0.185265    0.222380    0.231325    0.308627
     0.329338    0.335024    0.339487    0.352645    0.359906    0.362215
     0.430184    0.500938    0.945209

 Minimum Search - Taking Simple RFO Step
 Searching for Lamda that Minimizes Along All modes
 Value Taken    Lamda =  -0.05290829
 Calculated Step too Large.  Step scaled by  0.352335
 Step Taken.  Stepsize is  0.300000

                             Maximum     Tolerance    Cnvgd?
         Gradient           0.022880      0.000600      NO
         Displacement       0.103822      0.002400      NO
         Energy change     -0.020041      0.000002      NO


 New Cartesian Coordinates Obtained by Inverse Iteration

 Displacement from previous Coordinates is:  0.232173
 ----------------------------------------------------------------
             Standard Nuclear Orientation (Angstroms)
    I     Atom           X                Y                Z
 ----------------------------------------------------------------
    1      C       1.4802382995     0.2190080891    -1.7211885425
    2      C       0.7072179301    -1.0093148191    -1.5213859986
    3      C      -0.6392794242    -0.7543127140    -2.0361069514
    4      C      -1.1270587676     0.4025402369    -0.5753819453
    5      C      -0.6070952761     0.7779549018    -2.0266836912
    6      N       0.7602165337     1.2473565494    -1.9876049125
    7      H       2.5599349225     0.2485100622    -1.8451871335
    8      H       1.0827785724    -2.0250797954    -1.5509483685
    9      H      -1.2739643342    -1.1972103468    -2.8136530173
   10      H      -2.0942876669     0.7946456604    -0.2824320682
   11      H      -1.3870442319     1.3733678685    -2.4828333365
   12      C      -0.6373138526    -0.9581689984    -0.4990217633
   13      H      -0.5092606830    -1.6449801832     0.3212703107
 ----------------------------------------------------------------
 Nuclear Repulsion Energy =   281.8615875392 hartrees
 There are       25 alpha and       24 beta electrons
 Applying Cartesian multipole field
    Component          Value
    ---------          -----
     (2,0,0)        1.00000E-11
     (0,2,0)        2.00000E-11
     (0,0,2)       -3.00000E-11
 Nucleus-field energy     =    -0.0000000094 hartrees
 Requested basis set is 6-31G(d)
 There are 40 shells and 117 basis functions
 A cutoff of  1.0D-14 yielded    812 shell pairs
 There are      7084 function pairs
 Smallest overlap matrix eigenvalue = 1.45E-03
 Guess MOs from SCF MO coefficient file
 Reading MOs from coefficient file
 Reading MOs from coefficient file
 An unrestricted hybrid HF-DFT SCF calculation will be
 performed using Pulay DIIS extrapolation
 Exchange:     0.2000 Hartree-Fock + 0.0800 Slater + 0.7200 B88
 Correlation:  0.1900 VWN1RPA + 0.8100 LYP
 Using SG-1 standard quadrature grid
 SCF converges when DIIS error is below 1.0E-08
 Geometry optimization detected.  Setting ReadMinima to 0
 Setting SaveMinima to 0
Using Q-Chem read-in guess as SCF_GUESS READ specified.

 using 4 threads for integral computing
 -------------------------------------------------------
 OpenMP Integral computing Module                
 Release: version 1.0, May 2013, Q-Chem Inc. Pittsburgh 
 -------------------------------------------------------
 -------------------------------------------------------
 OpenMP BLAS3 based DFT computing Module                
 Release: version 1.0, May 2013, Q-Chem Inc. Pittsburgh 
 -------------------------------------------------------
 ---------------------------------------
  Cycle       Energy         DIIS Error
 ---------------------------------------
    1    -286.8016217799      2.23E-03
    2    -286.7893555886      5.49E-04
    3    -286.7887634643      8.68E-04
    4    -286.7900206322      1.64E-04
    5    -286.7900688406      4.58E-05
    6    -286.7900790542      1.89E-05
    7    -286.7900828463      1.11E-05
    8    -286.7900842362      2.13E-06
    9    -286.7900845944      1.70E-06
   10    -286.7900846737      3.93E-07
   11    -286.7900846853      2.28E-07
   12    -286.7900846890      8.12E-08
   13    -286.7900846905      1.84E-08
   14    -286.7900846910      1.14E-08
   15    -286.7900846911      4.90E-09 Convergence criterion met
 ---------------------------------------
 <S^2> = 0.7537
 SCF time:  CPU 39.79 s  wall 38.77 s
 SCF   energy in the final basis set = -286.79008469
 Total energy in the final basis set = -286.79008469
 
 --------------------------------------------------------------
 
                    Orbital Energies (a.u.)
 --------------------------------------------------------------
 
 Alpha MOs
 -- Occupied --
-14.321 -10.233 -10.222 -10.220 -10.215 -10.214 -10.188  -0.971
 -0.867  -0.747  -0.664  -0.613  -0.584  -0.543  -0.509  -0.477
[...]
     0.071156    0.079494    0.090604    0.097854    0.107605    0.137843
     0.141977    0.149980    0.173998    0.227092    0.232674    0.258267
     0.310546    0.329467    0.334346    0.341160    0.352847    0.360400
     0.364327    0.475133    0.687534

 Minimum Search - Taking Simple RFO Step
 Searching for Lamda that Minimizes Along All modes
 Value Taken    Lamda =  -0.00000360
 Step Taken.  Stepsize is  0.023154

                             Maximum     Tolerance    Cnvgd?
         Gradient           0.000319      0.000600     YES
         Displacement       0.010154      0.002400      NO
         Energy change     -0.000005      0.000002      NO


 New Cartesian Coordinates Obtained by Inverse Iteration

 Displacement from previous Coordinates is:  0.015466
 ----------------------------------------------------------------
             Standard Nuclear Orientation (Angstroms)
    I     Atom           X                Y                Z
 ----------------------------------------------------------------
    1      C       1.4422507061     0.2388520413    -1.7716041984
    2      C       0.6855754623    -1.0216722969    -1.5142091443
    3      C      -0.6651928059    -0.8063035042    -2.1145266049
    4      C      -0.9968793842     0.5283295432    -0.4958155523
    5      C      -0.6923866802     0.7642371203    -1.9805184525
    6      N       0.7085456027     1.2423082542    -2.0789500524
    7      H       2.5237521730     0.3302604126    -1.6768926440
    8      H       1.1551959251    -2.0006144109    -1.5232170710
    9      H      -1.1954480592    -1.4526929933    -2.8079486586
   10      H      -1.8857409279     0.8714963112     0.0211431558
   11      H      -1.3813661994     1.3609039248    -2.5780772333
   12      C      -0.5674603391    -0.8804153679    -0.5831900847
   13      H      -0.8157634515    -1.7003725229     0.0826491226
 ----------------------------------------------------------------
 Nuclear Repulsion Energy =   281.7709534678 hartrees
 There are       25 alpha and       24 beta electrons
 Applying Cartesian multipole field
    Component          Value
    ---------          -----
     (2,0,0)        1.00000E-11
     (0,2,0)        2.00000E-11
     (0,0,2)       -3.00000E-11
 Nucleus-field energy     =    -0.0000000099 hartrees
 Requested basis set is 6-31G(d)
 There are 40 shells and 117 basis functions
 A cutoff of  1.0D-14 yielded    811 shell pairs
 There are      7083 function pairs
 Smallest overlap matrix eigenvalue = 1.31E-03
 Guess MOs from SCF MO coefficient file
 Reading MOs from coefficient file
 Reading MOs from coefficient file
 An unrestricted hybrid HF-DFT SCF calculation will be
 performed using Pulay DIIS extrapolation
 Exchange:     0.2000 Hartree-Fock + 0.0800 Slater + 0.7200 B88
 Correlation:  0.1900 VWN1RPA + 0.8100 LYP
 Using SG-1 standard quadrature grid
 SCF converges when DIIS error is below 1.0E-08
 Geometry optimization detected.  Setting ReadMinima to 0
 Setting SaveMinima to 0
Using Q-Chem read-in guess as SCF_GUESS READ specified.

 using 4 threads for integral computing
 -------------------------------------------------------
 OpenMP Integral computing Module                
 Release: version 1.0, May 2013, Q-Chem Inc. Pittsburgh 
 -------------------------------------------------------
 -------------------------------------------------------
 OpenMP BLAS3 based DFT computing Module                
 Release: version 1.0, May 2013, Q-Chem Inc. Pittsburgh 
 -------------------------------------------------------
 ---------------------------------------
  Cycle       Energy         DIIS Error
 ---------------------------------------
    1    -286.8371163811      5.73E-05
    2    -286.8364940182      1.03E-05
    3    -286.8364940656      1.69E-05
    4    -286.8364945343      3.35E-06
    5    -286.8364945619      1.48E-06
    6    -286.8364945694      5.03E-07
    7    -286.8364945705      1.35E-07
    8    -286.8364945706      5.41E-08
    9    -286.8364945707      1.10E-08
   10    -286.8364945707      4.59E-09 Convergence criterion met
 ---------------------------------------
 <S^2> = 0.7545
 SCF time:  CPU 26.61 s  wall 16.39 s
 SCF   energy in the final basis set = -286.83649457
 Total energy in the final basis set = -286.83649457
 
 --------------------------------------------------------------
 
                    Orbital Energies (a.u.)
 --------------------------------------------------------------
 
 Alpha MOs
 -- Occupied --
-14.317 -10.220 -10.220 -10.215 -10.212 -10.211 -10.194  -0.964
 -0.858  -0.746  -0.657  -0.607  -0.574  -0.540  -0.512  -0.463
 -0.429  -0.412  -0.388  -0.366  -0.328  -0.315  -0.266  -0.256
 -0.174
 -- Virtual --
 -0.002   0.090   0.109   0.136   0.145   0.151   0.156   0.167
  0.182   0.200   0.214   0.244   0.277   0.326   0.369   0.379
  0.485   0.517   0.528   0.550   0.557   0.573   0.587   0.601
  0.617   0.620   0.668   0.677   0.704   0.754   0.777   0.791
  0.816   0.830   0.837   0.841   0.853   0.881   0.905   0.934
  0.946   1.018   1.072   1.099   1.155   1.244   1.280   1.366
  1.439   1.454   1.504   1.544   1.613   1.652   1.671   1.707
  1.796   1.810   1.872   1.886   1.914   1.937   2.002   2.021
  2.059   2.152   2.180   2.228   2.257   2.291   2.368   2.420
  2.474   2.485   2.510   2.523   2.580   2.616   2.619   2.683
  2.734   2.790   2.832   2.929   2.959   3.951   4.131   4.240
  4.356   4.475   4.518   4.657
 
 Beta MOs
 -- Occupied --
-14.317 -10.221 -10.220 -10.216 -10.211 -10.210 -10.181  -0.961
 -0.854  -0.737  -0.646  -0.602  -0.571  -0.538  -0.501  -0.461
 -0.425  -0.406  -0.384  -0.362  -0.317  -0.303  -0.262  -0.254
 -- Virtual --
 -0.037   0.004   0.092   0.114   0.139   0.149   0.155   0.158
  0.171   0.186   0.202   0.219   0.247   0.284   0.329   0.374
  0.387   0.487   0.524   0.542   0.554   0.562   0.576   0.593
  0.613   0.620   0.642   0.671   0.688   0.707   0.758   0.779
  0.795   0.817   0.836   0.838   0.843   0.857   0.884   0.908
  0.942   0.948   1.024   1.080   1.112   1.156   1.252   1.285
  1.369   1.445   1.459   1.511   1.548   1.616   1.657   1.681
  1.713   1.799   1.824   1.881   1.894   1.930   1.942   2.009
  2.030   2.074   2.160   2.194   2.234   2.269   2.298   2.382
  2.432   2.482   2.489   2.519   2.528   2.586   2.620   2.625
  2.687   2.741   2.794   2.840   2.931   2.960   3.954   4.137
  4.253   4.365   4.479   4.522   4.660
 --------------------------------------------------------------
 
          Ground-State Mulliken Net Atomic Charges

     Atom                 Charge (a.u.)    Spin (a.u.)
  --------------------------------------------------------
      1 C                     0.096422       0.007080
      2 C                    -0.192693       0.037266
      3 C                    -0.106660       0.107449
      4 C                    -0.071129       0.952815
      5 C                    -0.099787      -0.043749
      6 N                    -0.337253       0.012540
      7 H                     0.143785       0.003944
      8 H                     0.148649       0.001435
      9 H                     0.149451       0.008533
     10 H                     0.139554      -0.039607
     11 H                     0.141853       0.005531
     12 C                    -0.161732      -0.053651
     13 H                     0.149540       0.000414
  --------------------------------------------------------
  Sum of atomic charges =     0.000000
  Sum of spin   charges =     1.000000

 -----------------------------------------------------------------
                    Cartesian Multipole Moments
 -----------------------------------------------------------------
    Charge (ESU x 10^10)
                 0.0000
    Dipole Moment (Debye)
         X      -0.8798      Y      -2.6829      Z       0.1818
       Tot       2.8293
    Quadrupole Moments (Debye-Ang)
        XX     -36.9755     XY      -2.6095     YY     -41.9295
        XZ       1.9153     YZ       4.5280     ZZ     -41.6120
    Octopole Moments (Debye-Ang^2)
       XXX       9.7789    XXY       1.2401    XYY      -3.6685
       YYY      -9.6252    XXZ      55.9056    XYZ       5.2043
       YYZ      64.9858    XZZ      -7.1893    YZZ      -9.4182
       ZZZ     185.6003
    Hexadecapole Moments (Debye-Ang^3)
      XXXX    -246.8892   XXXY      -7.8892   XXYY     -83.9109
      XYYY     -14.7762   YYYY    -250.8335   XXXZ      11.4636
      XXYZ       6.7070   XYYZ      18.3473   YYYZ      32.5467
      XXZZ    -152.7071   XYZZ     -11.1820   YYZZ    -167.4165
      XZZZ      50.6887   YZZZ      35.9649   ZZZZ    -718.4033
 -----------------------------------------------------------------
 Calculating analytic gradient of the SCF energy
 Gradient of SCF Energy
            1           2           3           4           5           6
    1   0.0000371   0.0000518  -0.0000143   0.0002624   0.0001005  -0.0003028
    2   0.0000970   0.0000687  -0.0002763   0.0002660   0.0000997  -0.0000386
    3   0.0000233  -0.0000927   0.0000550   0.0001594  -0.0000541   0.0001067
            7           8           9          10          11          12
    1   0.0000092  -0.0000960   0.0000561  -0.0000418   0.0000418  -0.0000383
    2  -0.0000170  -0.0000733   0.0000422  -0.0000151   0.0000010  -0.0001830
    3  -0.0000216   0.0000532  -0.0000614  -0.0000525  -0.0000729  -0.0000541
           13
    1  -0.0000658
    2   0.0000287
    3   0.0000117
 Max gradient component =       3.028E-04
 RMS gradient           =       1.111E-04
 Gradient time:  CPU 7.61 s  wall 5.33 s
 Geometry Optimization Parameters
   NAtoms,    NIC,     NZ,  NCons,   NDum,   NFix, NCnnct, MaxDiis
       13     157       0       0       0       0       0       0

 Cartesian Hessian Update
 Hessian Updated using BFGS Update


** GEOMETRY OPTIMIZATION IN DELOCALIZED INTERNAL COORDINATES **
   Searching for a Minimum

   Optimization Cycle:  24

                       Coordinates (Angstroms)
     ATOM                X               Y               Z
      1  C         1.4422507061    0.2388520413   -1.7716041984
      2  C         0.6855754623   -1.0216722969   -1.5142091443
      3  C        -0.6651928059   -0.8063035042   -2.1145266049
      4  C        -0.9968793842    0.5283295432   -0.4958155523
      5  C        -0.6923866802    0.7642371203   -1.9805184525
      6  N         0.7085456027    1.2423082542   -2.0789500524
      7  H         2.5237521730    0.3302604126   -1.6768926440
      8  H         1.1551959251   -2.0006144109   -1.5232170710
      9  H        -1.1954480592   -1.4526929933   -2.8079486586
     10  H        -1.8857409279    0.8714963112    0.0211431558
     11  H        -1.3813661994    1.3609039248   -2.5780772333
     12  C        -0.5674603391   -0.8804153679   -0.5831900847
     13  H        -0.8157634515   -1.7003725229    0.0826491226
   Point Group: c1    Number of degrees of freedom:    33


   Energy is   -286.836494571

 Hessian Updated using BFGS Update

 33 Hessian modes will be used to form the next step
  Hessian Eigenvalues:
     0.002103    0.009801    0.012304    0.015673    0.018149    0.022297
     0.022999    0.029260    0.036395    0.046350    0.051949    0.056839
     0.065952    0.074252    0.091213    0.095925    0.107544    0.138091
     0.143439    0.150032    0.175811    0.228138    0.232545    0.264360
     0.312726    0.329422    0.333040    0.341726    0.352753    0.360385
     0.364291    0.508781    0.666537

 Minimum Search - Taking Simple RFO Step
 Searching for Lamda that Minimizes Along All modes
 Value Taken    Lamda =  -0.00000130
 Step Taken.  Stepsize is  0.009623

                             Maximum     Tolerance    Cnvgd?
         Gradient           0.000191      0.000600     YES
         Displacement       0.005820      0.002400      NO
         Energy change     -0.000002      0.000002     YES


                       Distance Matrix (Angstroms)
             C (  1)   C (  2)   C (  3)   C (  4)   C (  5)   N (  6)
   C (  2)  1.492559
   C (  3)  2.377239  1.493767
   C (  4)  2.767813  2.504054  2.124026
   C (  5)  2.208246  2.303410  1.576482  1.533855
   N (  6)  1.280511  2.333467  2.466827  2.434041  1.483527
   H (  7)  1.089482  2.287593  3.413601  3.718739  3.259459  2.070859
   H (  8)  2.271411  1.085796  2.256068  3.475995  3.356649  3.320374
   H (  9)  3.300423  2.323314  1.086197  3.051203  2.419192  3.379299
   H ( 10)  3.832716  3.543030  2.977555  1.084013  2.332863  3.358305
   H ( 11)  3.143599  3.328773  2.329071  2.275263  1.089853  2.151958
   C ( 12)  2.589213  1.567434  1.536241  1.475330  2.161716  2.893345
   H ( 13)  3.506776  2.294474  2.376891  2.309662  3.216548  3.956690
             H (  7)   H (  8)   H (  9)   H ( 10)   H ( 11)   C ( 12)
   H (  8)  2.707312
   H (  9)  4.276758  2.734279
   H ( 10)  4.756037  4.458852  3.725872
   H ( 11)  4.138153  4.341277  2.829087  2.692556
   C ( 12)  3.495356  2.259655  2.381475  2.274264  3.108943
   H ( 13)  4.286236  2.560006  2.925929  2.786242  4.095215  1.085047

 
 Final energy is   -286.836494570663     


 ******************************
 **  OPTIMIZATION CONVERGED  **
 ******************************

                       Coordinates (Angstroms)
     ATOM                X               Y               Z
      1  C         1.4422507061    0.2388520413   -1.7716041984
      2  C         0.6855754623   -1.0216722969   -1.5142091443
      3  C        -0.6651928059   -0.8063035042   -2.1145266049
      4  C        -0.9968793842    0.5283295432   -0.4958155523
      5  C        -0.6923866802    0.7642371203   -1.9805184525
      6  N         0.7085456027    1.2423082542   -2.0789500524
      7  H         2.5237521730    0.3302604126   -1.6768926440
      8  H         1.1551959251   -2.0006144109   -1.5232170710
      9  H        -1.1954480592   -1.4526929933   -2.8079486586
     10  H        -1.8857409279    0.8714963112    0.0211431558
     11  H        -1.3813661994    1.3609039248   -2.5780772333
     12  C        -0.5674603391   -0.8804153679   -0.5831900847
     13  H        -0.8157634515   -1.7003725229    0.0826491226

Z-matrix Print:
$molecule
0 2
N 
C  1 1.280511
H  2 1.089482 1 121.594139
C  1 1.483527 2 105.820431 3 -174.579024 0
H  4 1.089853 1 112.592584 2 -157.072135 0
C  2 1.492559 1 114.376066 3 177.929344 0
H  6 1.085796 2 122.733228 1 162.113607 0
C  6 1.493767 2 105.507449 1 17.316261 0
H  8 1.086197 6 127.748891 2 128.691592 0
C  4 1.533855 1 107.532618 2 69.503736 0
H  10 1.084013 4 125.148627 1 132.877521 0
C  10 1.475330 4 91.819574 1 -91.163521 0
H  12 1.085047 10 128.216310 4 -159.592360 0
$end

 
 --------------------------------------------------------------
 
                    Orbital Energies (a.u.)
 --------------------------------------------------------------
 
 Alpha MOs
 -- Occupied --
-14.317 -10.220 -10.220 -10.215 -10.212 -10.211 -10.194  -0.964
 -0.858  -0.746  -0.657  -0.607  -0.574  -0.540  -0.512  -0.463
 -0.429  -0.412  -0.388  -0.366  -0.328  -0.315  -0.266  -0.256
 -0.174
 -- Virtual --
 -0.002   0.090   0.109   0.136   0.145   0.151   0.156   0.167
  0.182   0.200   0.214   0.244   0.277   0.326   0.369   0.379
  0.485   0.517   0.528   0.550   0.557   0.573   0.587   0.601
  0.617   0.620   0.668   0.677   0.704   0.754   0.777   0.791
  0.816   0.830   0.837   0.841   0.853   0.881   0.905   0.934
  0.946   1.018   1.072   1.099   1.155   1.244   1.280   1.366
  1.439   1.454   1.504   1.544   1.613   1.652   1.671   1.707
  1.796   1.810   1.872   1.886   1.914   1.937   2.002   2.021
  2.059   2.152   2.180   2.228   2.257   2.291   2.368   2.420
  2.474   2.485   2.510   2.523   2.580   2.616   2.619   2.683
  2.734   2.790   2.832   2.929   2.959   3.951   4.131   4.240
  4.356   4.475   4.518   4.657
 
 Beta MOs
 -- Occupied --
-14.317 -10.221 -10.220 -10.216 -10.211 -10.210 -10.181  -0.961
 -0.854  -0.737  -0.646  -0.602  -0.571  -0.538  -0.501  -0.461
 -0.425  -0.406  -0.384  -0.362  -0.317  -0.303  -0.262  -0.254
 -- Virtual --
 -0.037   0.004   0.092   0.114   0.139   0.149   0.155   0.158
  0.171   0.186   0.202   0.219   0.247   0.284   0.329   0.374
  0.387   0.487   0.524   0.542   0.554   0.562   0.576   0.593
  0.613   0.620   0.642   0.671   0.688   0.707   0.758   0.779
  0.795   0.817   0.836   0.838   0.843   0.857   0.884   0.908
  0.942   0.948   1.024   1.080   1.112   1.156   1.252   1.285
  1.369   1.445   1.459   1.511   1.548   1.616   1.657   1.681
  1.713   1.799   1.824   1.881   1.894   1.930   1.942   2.009
  2.030   2.074   2.160   2.194   2.234   2.269   2.298   2.382
  2.432   2.482   2.489   2.519   2.528   2.586   2.620   2.625
  2.687   2.741   2.794   2.840   2.931   2.960   3.954   4.137
  4.253   4.365   4.479   4.522   4.660
 --------------------------------------------------------------
 
          Ground-State Mulliken Net Atomic Charges

     Atom                 Charge (a.u.)    Spin (a.u.)
  --------------------------------------------------------
      1 C                     0.096422       0.007080
      2 C                    -0.192693       0.037266
      3 C                    -0.106660       0.107449
      4 C                    -0.071129       0.952815
      5 C                    -0.099787      -0.043749
      6 N                    -0.337253       0.012540
      7 H                     0.143785       0.003944
      8 H                     0.148649       0.001435
      9 H                     0.149451       0.008533
     10 H                     0.139554      -0.039607
     11 H                     0.141853       0.005531
     12 C                    -0.161732      -0.053651
     13 H                     0.149540       0.000414
  --------------------------------------------------------
  Sum of atomic charges =     0.000000
  Sum of spin   charges =     1.000000

 -----------------------------------------------------------------
                    Cartesian Multipole Moments
 -----------------------------------------------------------------
    Charge (ESU x 10^10)
                 0.0000
    Dipole Moment (Debye)
         X      -0.8798      Y      -2.6829      Z       0.1818
       Tot       2.8293
    Quadrupole Moments (Debye-Ang)
        XX     -36.9755     XY      -2.6095     YY     -41.9295
        XZ       1.9153     YZ       4.5280     ZZ     -41.6120
    Octopole Moments (Debye-Ang^2)
       XXX       9.7789    XXY       1.2401    XYY      -3.6685
       YYY      -9.6252    XXZ      55.9056    XYZ       5.2043
       YYZ      64.9858    XZZ      -7.1893    YZZ      -9.4182
       ZZZ     185.6003
    Hexadecapole Moments (Debye-Ang^3)
      XXXX    -246.8892   XXXY      -7.8892   XXYY     -83.9109
      XYYY     -14.7762   YYYY    -250.8335   XXXZ      11.4636
      XXYZ       6.7070   XYYZ      18.3473   YYYZ      32.5467
      XXZZ    -152.7071   XYZZ     -11.1820   YYZZ    -167.4165
      XZZZ      50.6887   YZZZ      35.9649   ZZZZ    -718.4033
 -----------------------------------------------------------------
Archival summary:
1\1\c8-66\OPT\ProcedureUnspecified\6-31G*\166(2)\hpark21\TueMar115:09:532022TueMar115:09:532022\0\\#,OPT,ProcedureUnspecified,6-31G*,\\0,2\N\C,1,1.28051\H,2,1.08948,1,121.594\C,1,1.48353,2,105.82,3,-174.579,0\H,4,1.08985,1,112.593,2,-157.072,0\C,2,1.49256,1,114.376,3,177.929,0\H,6,1.0858,2,122.733,1,162.114,0\C,6,1.49377,2,105.507,1,17.3163,0\H,8,1.0862,6,127.749,2,128.692,0\C,4,1.53385,1,107.533,2,69.5037,0\H,10,1.08401,4,125.149,1,132.878,0\C,10,1.47533,4,91.8196,1,-91.1635,0\H,12,1.08505,10,128.216,4,-159.592,0\\\@

 Total job time:  634.62s(wall), 1003.10s(cpu) 
 Tue Mar  1 15:09:53 2022

        *************************************************************
        *                                                           *
        *  Thank you very much for using Q-Chem.  Have a nice day.  *
        *                                                           *
        *************************************************************


