13   
From optimize.out: Frame 1 / 24, Energy=    -286.6359586858
C        0.0316940000   -0.0461240000   -0.0000000000
C       -0.1972080000   -0.0072520000   -0.0000000000
C       -0.1247810000   -0.0818850000   -0.0000000000
C       -0.1955640000    0.5456030000   -0.0000000000
C        0.0118470000    0.0260940000   -0.0000000000
N       -0.3291880000    0.0413890000   -0.0000000000
H        0.1787420000    0.0081780000   -0.0000000000
H        0.1506360000    0.0012670000   -0.0000000000
H        0.1694170000   -0.0012530000   -0.0000000000
H        0.1496660000   -0.0198170000   -0.0000000000
H        0.1676900000    0.0015480000   -0.0000000000
C       -0.1864860000    0.5470190000   -0.0000000000
H        0.1735360000   -0.0147660000    0.0000000000
13   
From optimize.out: Frame 2 / 24, Energy=    -286.6749677044
C        0.0468960000   -0.0170480000   -0.0000000000
C       -0.1962200000   -0.0086610000   -0.0000000000
C       -0.1271910000   -0.0857040000   -0.0000000000
C       -0.1969840000    0.5692980000   -0.0000000000
C        0.0036670000    0.0299920000   -0.0000000000
N       -0.3285130000    0.0289340000   -0.0000000000
H        0.1688350000    0.0072830000   -0.0000000000
H        0.1527370000    0.0014490000   -0.0000000000
H        0.1708890000    0.0003950000   -0.0000000000
H        0.1480210000   -0.0217280000   -0.0000000000
H        0.1657460000    0.0009530000   -0.0000000000
C       -0.1795270000    0.5086320000   -0.0000000000
H        0.1716440000   -0.0137940000    0.0000000000
13   
From optimize.out: Frame 3 / 24, Energy=    -286.7055173417
C        0.0598220000    0.0003800000   -0.0000000000
C       -0.1938240000   -0.0052810000   -0.0000000000
C       -0.1275890000   -0.0867610000   -0.0000000000
C       -0.1960200000    0.6244570000   -0.0000000000
C       -0.0053830000    0.0355060000   -0.0000000000
N       -0.3300830000    0.0218780000   -0.0000000000
H        0.1598180000    0.0070570000   -0.0000000000
H        0.1532300000    0.0014570000   -0.0000000000
H        0.1698570000    0.0047430000   -0.0000000000
H        0.1472590000   -0.0255510000   -0.0000000000
H        0.1636700000   -0.0003170000   -0.0000000000
C       -0.1719990000    0.4358620000   -0.0000000000
H        0.1712420000   -0.0134300000    0.0000000000
13   
From optimize.out: Frame 4 / 24, Energy=    -286.7306690275
C        0.0702840000    0.0047510000   -0.0000000000
C       -0.1917260000    0.0027600000   -0.0000000000
C       -0.1266400000   -0.0739310000   -0.0000000000
C       -0.1920260000    0.7064050000   -0.0000000000
C       -0.0167670000    0.0390400000   -0.0000000000
N       -0.3319110000    0.0169690000   -0.0000000000
H        0.1535110000    0.0067640000   -0.0000000000
H        0.1534700000    0.0014270000   -0.0000000000
H        0.1655520000    0.0108960000   -0.0000000000
H        0.1464870000   -0.0314880000   -0.0000000000
H        0.1608710000   -0.0020740000   -0.0000000000
C       -0.1633310000    0.3310100000   -0.0000000000
H        0.1722260000   -0.0125280000    0.0000000000
13   
From optimize.out: Frame 5 / 24, Energy=    -286.7529313460
C        0.0802530000   -0.0017170000   -0.0000000000
C       -0.1921020000    0.0157400000   -0.0000000000
C       -0.1253710000   -0.0385740000   -0.0000000000
C       -0.1830790000    0.7952900000   -0.0000000000
C       -0.0299030000    0.0342440000   -0.0000000000
N       -0.3339100000    0.0145390000   -0.0000000000
H        0.1498680000    0.0063030000   -0.0000000000
H        0.1532800000    0.0013410000   -0.0000000000
H        0.1588590000    0.0164330000   -0.0000000000
H        0.1452010000   -0.0379240000   -0.0000000000
H        0.1576360000   -0.0032770000   -0.0000000000
C       -0.1536810000    0.2077910000   -0.0000000000
H        0.1729480000   -0.0101900000    0.0000000000
13   
From optimize.out: Frame 6 / 24, Energy=    -286.7729725424
C        0.0891050000   -0.0089360000   -0.0000000000
C       -0.1942540000    0.0298220000   -0.0000000000
C       -0.1245830000    0.0080340000   -0.0000000000
C       -0.1670260000    0.8618510000   -0.0000000000
C       -0.0436530000    0.0191670000   -0.0000000000
N       -0.3367760000    0.0167250000   -0.0000000000
H        0.1474380000    0.0056700000   -0.0000000000
H        0.1528780000    0.0012130000   -0.0000000000
H        0.1529660000    0.0184700000   -0.0000000000
H        0.1439820000   -0.0422810000   -0.0000000000
H        0.1542040000   -0.0029330000   -0.0000000000
C       -0.1462050000    0.1002940000   -0.0000000000
H        0.1719260000   -0.0070970000    0.0000000000
13   
From optimize.out: Frame 7 / 24, Energy=    -286.7900846911
C        0.0957510000   -0.0110140000   -0.0000000000
C       -0.1961660000    0.0409820000   -0.0000000000
C       -0.1234900000    0.0470670000   -0.0000000000
C       -0.1459510000    0.8990040000   -0.0000000000
C       -0.0572700000    0.0005120000   -0.0000000000
N       -0.3401060000    0.0208890000   -0.0000000000
H        0.1454690000    0.0050970000   -0.0000000000
H        0.1524500000    0.0011050000   -0.0000000000
H        0.1496520000    0.0175380000   -0.0000000000
H        0.1433500000   -0.0440780000   -0.0000000000
H        0.1508030000   -0.0014450000   -0.0000000000
C       -0.1434640000    0.0288000000   -0.0000000000
H        0.1689740000   -0.0044560000    0.0000000000
13   
From optimize.out: Frame 8 / 24, Energy=    -286.8036692716
C        0.1003800000   -0.0098780000   -0.0000000000
C       -0.1970340000    0.0480730000   -0.0000000000
C       -0.1217280000    0.0727540000   -0.0000000000
C       -0.1248460000    0.9168220000   -0.0000000000
C       -0.0696270000   -0.0150490000   -0.0000000000
N       -0.3427960000    0.0241430000   -0.0000000000
H        0.1438920000    0.0047690000   -0.0000000000
H        0.1520360000    0.0010210000   -0.0000000000
H        0.1484240000    0.0157590000   -0.0000000000
H        0.1430990000   -0.0441770000   -0.0000000000
H        0.1476380000    0.0002690000   -0.0000000000
C       -0.1444300000   -0.0118110000   -0.0000000000
H        0.1649900000   -0.0026960000    0.0000000000
13   
From optimize.out: Frame 9 / 24, Energy=    -286.8138878907
C        0.1034450000   -0.0079240000   -0.0000000000
C       -0.1970060000    0.0513770000   -0.0000000000
C       -0.1195920000    0.0879500000   -0.0000000000
C       -0.1072430000    0.9252560000   -0.0000000000
C       -0.0797370000   -0.0256310000   -0.0000000000
N       -0.3443560000    0.0255690000   -0.0000000000
H        0.1427420000    0.0046490000   -0.0000000000
H        0.1515880000    0.0009550000   -0.0000000000
H        0.1482150000    0.0142790000   -0.0000000000
H        0.1429000000   -0.0432960000   -0.0000000000
H        0.1450860000    0.0016850000   -0.0000000000
C       -0.1469420000   -0.0331820000   -0.0000000000
H        0.1609000000   -0.0016880000    0.0000000000
13   
From optimize.out: Frame 10 / 24, Energy=    -286.8213669782
C        0.1050670000   -0.0059810000   -0.0000000000
C       -0.1963790000    0.0515830000   -0.0000000000
C       -0.1173420000    0.0964860000   -0.0000000000
C       -0.0939670000    0.9300470000   -0.0000000000
C       -0.0873420000   -0.0320810000   -0.0000000000
N       -0.3449270000    0.0252160000   -0.0000000000
H        0.1420850000    0.0046080000   -0.0000000000
H        0.1511020000    0.0009300000   -0.0000000000
H        0.1483390000    0.0132610000   -0.0000000000
H        0.1425780000   -0.0419030000   -0.0000000000
H        0.1434170000    0.0026800000   -0.0000000000
C       -0.1498620000   -0.0436860000   -0.0000000000
H        0.1572310000   -0.0011600000    0.0000000000
13   
From optimize.out: Frame 11 / 24, Energy=    -286.8267571906
C        0.1053680000   -0.0042170000   -0.0000000000
C       -0.1954370000    0.0495240000   -0.0000000000
C       -0.1151590000    0.1011860000   -0.0000000000
C       -0.0844930000    0.9337020000   -0.0000000000
C       -0.0926740000   -0.0357050000   -0.0000000000
N       -0.3446500000    0.0235570000   -0.0000000000
H        0.1419070000    0.0045600000   -0.0000000000
H        0.1506090000    0.0009610000   -0.0000000000
H        0.1485470000    0.0125390000   -0.0000000000
H        0.1420560000   -0.0403410000   -0.0000000000
H        0.1425720000    0.0033100000   -0.0000000000
C       -0.1528650000   -0.0481920000   -0.0000000000
H        0.1542190000   -0.0008850000    0.0000000000
13   
From optimize.out: Frame 12 / 24, Energy=    -286.8306032373
C        0.1046320000   -0.0026000000   -0.0000000000
C       -0.1943180000    0.0459960000   -0.0000000000
C       -0.1132810000    0.1039750000   -0.0000000000
C       -0.0780000000    0.9370200000   -0.0000000000
C       -0.0961460000   -0.0375690000   -0.0000000000
N       -0.3436780000    0.0211430000   -0.0000000000
H        0.1421070000    0.0044690000   -0.0000000000
H        0.1501570000    0.0010390000   -0.0000000000
H        0.1488090000    0.0119290000   -0.0000000000
H        0.1413290000   -0.0388720000   -0.0000000000
H        0.1422760000    0.0036750000   -0.0000000000
C       -0.1558340000   -0.0494860000   -0.0000000000
H        0.1519470000   -0.0007180000    0.0000000000
13   
From optimize.out: Frame 13 / 24, Energy=    -286.8333022734
C        0.1031790000   -0.0011460000   -0.0000000000
C       -0.1930940000    0.0416600000   -0.0000000000
C       -0.1119360000    0.1059850000   -0.0000000000
C       -0.0738100000    0.9401170000   -0.0000000000
C       -0.0981570000   -0.0384150000   -0.0000000000
N       -0.3421720000    0.0184980000   -0.0000000000
H        0.1425480000    0.0043380000   -0.0000000000
H        0.1497910000    0.0011430000   -0.0000000000
H        0.1491460000    0.0113090000   -0.0000000000
H        0.1404550000   -0.0376590000   -0.0000000000
H        0.1422440000    0.0038640000   -0.0000000000
C       -0.1586080000   -0.0491120000   -0.0000000000
H        0.1504150000   -0.0005820000    0.0000000000
13   
From optimize.out: Frame 14 / 24, Energy=    -286.8350894723
C        0.1012500000    0.0001300000   -0.0000000000
C       -0.1918880000    0.0370150000   -0.0000000000
C       -0.1112140000    0.1077460000   -0.0000000000
C       -0.0715020000    0.9428950000   -0.0000000000
C       -0.0990060000   -0.0387010000   -0.0000000000
N       -0.3402720000    0.0159930000   -0.0000000000
H        0.1431200000    0.0041880000   -0.0000000000
H        0.1495330000    0.0012480000   -0.0000000000
H        0.1495660000    0.0106260000   -0.0000000000
H        0.1395150000   -0.0367850000   -0.0000000000
H        0.1422830000    0.0039480000   -0.0000000000
C       -0.1609830000   -0.0478590000   -0.0000000000
H        0.1495970000   -0.0004450000    0.0000000000
13   
From optimize.out: Frame 15 / 24, Energy=    -286.8360682727
C        0.0989560000    0.0012730000   -0.0000000000
C       -0.1909420000    0.0324230000   -0.0000000000
C       -0.1109580000    0.1093850000   -0.0000000000
C       -0.0708650000    0.9452550000   -0.0000000000
C       -0.0989260000   -0.0387080000   -0.0000000000
N       -0.3380370000    0.0138220000   -0.0000000000
H        0.1437330000    0.0040320000   -0.0000000000
H        0.1493810000    0.0013350000   -0.0000000000
H        0.1500490000    0.0098600000   -0.0000000000
H        0.1385870000   -0.0362820000   -0.0000000000
H        0.1422980000    0.0039870000   -0.0000000000
C       -0.1627500000   -0.0460870000   -0.0000000000
H        0.1494740000   -0.0002950000    0.0000000000
13   
From optimize.out: Frame 16 / 24, Energy=    -286.8363058163
C        0.0972310000    0.0021810000   -0.0000000000
C       -0.1907910000    0.0297940000   -0.0000000000
C       -0.1105820000    0.1102590000   -0.0000000000
C       -0.0714140000    0.9465190000   -0.0000000000
C       -0.0985210000   -0.0387210000   -0.0000000000
N       -0.3363910000    0.0125690000   -0.0000000000
H        0.1440390000    0.0039270000   -0.0000000000
H        0.1492760000    0.0013750000   -0.0000000000
H        0.1503450000    0.0093060000   -0.0000000000
H        0.1381060000   -0.0362490000   -0.0000000000
H        0.1423010000    0.0040520000   -0.0000000000
C       -0.1634270000   -0.0448130000   -0.0000000000
H        0.1498280000   -0.0001990000    0.0000000000
13   
From optimize.out: Frame 17 / 24, Energy=    -286.8363609249
C        0.0969520000    0.0026500000   -0.0000000000
C       -0.1910690000    0.0299250000   -0.0000000000
C       -0.1098870000    0.1101670000   -0.0000000000
C       -0.0717670000    0.9467280000   -0.0000000000
C       -0.0986050000   -0.0388960000   -0.0000000000
N       -0.3361740000    0.0123830000   -0.0000000000
H        0.1439540000    0.0039120000   -0.0000000000
H        0.1491770000    0.0013800000   -0.0000000000
H        0.1503220000    0.0092000000   -0.0000000000
H        0.1380940000   -0.0365090000   -0.0000000000
H        0.1422900000    0.0041460000   -0.0000000000
C       -0.1632810000   -0.0449100000   -0.0000000000
H        0.1499930000   -0.0001760000    0.0000000000
13   
From optimize.out: Frame 18 / 24, Energy=    -286.8364270756
C        0.0965640000    0.0037580000   -0.0000000000
C       -0.1916710000    0.0308830000   -0.0000000000
C       -0.1081480000    0.1098320000   -0.0000000000
C       -0.0722260000    0.9475410000   -0.0000000000
C       -0.0989960000   -0.0396600000   -0.0000000000
N       -0.3365070000    0.0122150000   -0.0000000000
H        0.1439260000    0.0039010000   -0.0000000000
H        0.1489120000    0.0013780000   -0.0000000000
H        0.1501670000    0.0090110000   -0.0000000000
H        0.1383560000   -0.0371900000   -0.0000000000
H        0.1422850000    0.0044110000   -0.0000000000
C       -0.1628460000   -0.0459670000   -0.0000000000
H        0.1501850000   -0.0001130000    0.0000000000
13   
From optimize.out: Frame 19 / 24, Energy=    -286.8364444846
C        0.0967050000    0.0042710000   -0.0000000000
C       -0.1919200000    0.0320570000   -0.0000000000
C       -0.1074690000    0.1091980000   -0.0000000000
C       -0.0723020000    0.9482380000   -0.0000000000
C       -0.0993500000   -0.0402480000   -0.0000000000
N       -0.3366890000    0.0123880000   -0.0000000000
H        0.1437710000    0.0039320000   -0.0000000000
H        0.1488940000    0.0013810000   -0.0000000000
H        0.1500130000    0.0089840000   -0.0000000000
H        0.1384590000   -0.0376640000   -0.0000000000
H        0.1421580000    0.0045880000   -0.0000000000
C       -0.1623670000   -0.0470920000   -0.0000000000
H        0.1500950000   -0.0000330000    0.0000000000
13   
From optimize.out: Frame 20 / 24, Energy=    -286.8364661177
C        0.0967050000    0.0049890000   -0.0000000000
C       -0.1921620000    0.0331860000   -0.0000000000
C       -0.1069440000    0.1086540000   -0.0000000000
C       -0.0719810000    0.9495720000   -0.0000000000
C       -0.0996530000   -0.0411680000   -0.0000000000
N       -0.3371300000    0.0124680000   -0.0000000000
H        0.1438430000    0.0039510000   -0.0000000000
H        0.1488150000    0.0013770000   -0.0000000000
H        0.1498420000    0.0088850000   -0.0000000000
H        0.1388090000   -0.0380910000   -0.0000000000
H        0.1421110000    0.0048090000   -0.0000000000
C       -0.1621820000   -0.0486990000   -0.0000000000
H        0.1499280000    0.0000670000    0.0000000000
13   
From optimize.out: Frame 21 / 24, Energy=    -286.8364809610
C        0.0967160000    0.0056680000   -0.0000000000
C       -0.1923000000    0.0344970000   -0.0000000000
C       -0.1068220000    0.1080850000   -0.0000000000
C       -0.0715480000    0.9509220000   -0.0000000000
C       -0.0997510000   -0.0420940000   -0.0000000000
N       -0.3374500000    0.0125700000   -0.0000000000
H        0.1439200000    0.0039670000   -0.0000000000
H        0.1487940000    0.0013790000   -0.0000000000
H        0.1496700000    0.0087900000   -0.0000000000
H        0.1391140000   -0.0385410000    0.0000000000
H        0.1420460000    0.0050380000   -0.0000000000
C       -0.1621110000   -0.0504700000   -0.0000000000
H        0.1497230000    0.0001890000    0.0000000000
13   
From optimize.out: Frame 22 / 24, Energy=    -286.8364879117
C        0.0966490000    0.0062430000   -0.0000000000
C       -0.1924680000    0.0355100000   -0.0000000000
C       -0.1067330000    0.1076710000   -0.0000000000
C       -0.0712950000    0.9518410000   -0.0000000000
C       -0.0998420000   -0.0427530000   -0.0000000000
N       -0.3373890000    0.0125440000   -0.0000000000
H        0.1438790000    0.0039580000   -0.0000000000
H        0.1487610000    0.0013930000   -0.0000000000
H        0.1495640000    0.0087050000   -0.0000000000
H        0.1392830000   -0.0388840000    0.0000000000
H        0.1419770000    0.0052220000   -0.0000000000
C       -0.1620020000   -0.0517290000   -0.0000000000
H        0.1496160000    0.0002780000    0.0000000000
13   
From optimize.out: Frame 23 / 24, Energy=    -286.8364925738
C        0.0965260000    0.0067220000   -0.0000000000
C       -0.1926000000    0.0366360000   -0.0000000000
C       -0.1068040000    0.1075630000   -0.0000000000
C       -0.0711580000    0.9524190000   -0.0000000000
C       -0.0996450000   -0.0433620000   -0.0000000000
N       -0.3374240000    0.0125830000   -0.0000000000
H        0.1439030000    0.0039580000   -0.0000000000
H        0.1486890000    0.0014130000   -0.0000000000
H        0.1494750000    0.0086130000   -0.0000000000
H        0.1394770000   -0.0393380000    0.0000000000
H        0.1419280000    0.0054060000   -0.0000000000
C       -0.1619270000   -0.0529790000   -0.0000000000
H        0.1495600000    0.0003660000    0.0000000000
