13   
From optimize.out: Frame 1 / 24, Energy=    -286.6359586858
C        1.6064845043    0.3444833159   -1.7149379120
C        0.7408506054   -0.9723608192   -1.4565941339
C       -0.5965185002   -0.6321443548   -1.9749461388
C       -1.1200826837    0.3139962003   -0.6148061925
C       -0.5492321324    0.7454675640   -2.1437673055
N        0.6295271429    1.2720877831   -1.9736791638
H        2.6380532528    0.2298532222   -2.0721182564
H        1.0142282797   -2.0396508558   -1.5689005711
H       -1.2368238782   -0.8640042586   -2.8103030259
H       -2.0881102061    0.7567263215   -0.3991699452
H       -1.4048674740    1.2826541289   -2.5933574982
C       -0.6985728928   -1.1280076529   -0.2558592515
H       -0.6198539958   -1.8347840831    0.5572819768
13   
From optimize.out: Frame 2 / 24, Energy=    -286.6749677044
C        1.5716260788    0.3198356823   -1.7198735253
C        0.7324618438   -0.9775159089   -1.4692974626
C       -0.6046954707   -0.6479345940   -1.9848043269
C       -1.1247230992    0.3059877415   -0.6130883627
C       -0.5456245004    0.7635993443   -2.1318318371
N        0.6708366667    1.2831895309   -1.9784867216
H        2.6108593373    0.2274097281   -2.0394842372
H        1.0248758063   -2.0329181907   -1.5668679472
H       -1.2530561136   -0.9174840943   -2.8123772706
H       -2.0990758915    0.7333436339   -0.3912547804
H       -1.3861018416    1.3150286638   -2.5750652516
C       -0.6856664561   -1.1027040335   -0.2809769789
H       -0.5966343379   -1.7955209920    0.5422512842
13   
From optimize.out: Frame 3 / 24, Energy=    -286.7055173417
C        1.5429356388    0.2900111779   -1.7175679898
C        0.7262396394   -0.9814144422   -1.4814629444
C       -0.6150571954   -0.6631754134   -1.9949830417
C       -1.1277247109    0.3098710830   -0.6116319551
C       -0.5526504880    0.7726095115   -2.1148536339
N        0.7024180495    1.2744475026   -1.9821266589
H        2.5931386159    0.2285864343   -1.9993428871
H        1.0394858986   -2.0255092168   -1.5655994710
H       -1.2680115753   -0.9667081055   -2.8109850168
H       -2.1053188648    0.7250785800   -0.3800210011
H       -1.3790588095    1.3360072247   -2.5531550174
C       -0.6714526878   -1.0715542698   -0.3196634005
H       -0.5698614886   -1.7539335547    0.5102355997
13   
From optimize.out: Frame 4 / 24, Energy=    -286.7306690275
C        1.5201842014    0.2645971270   -1.7164309667
C        0.7204118518   -0.9873628194   -1.4910745620
C       -0.6240166001   -0.6822428709   -2.0030098787
C       -1.1297722383    0.3252828023   -0.6078414996
C       -0.5629439619    0.7785896807   -2.0940847949
N        0.7250536083    1.2670834074   -1.9846192713
H        2.5804997453    0.2315833261   -1.9588669698
H        1.0518938816   -2.0226530571   -1.5612881932
H       -1.2787381561   -1.0213643735   -2.8071564056
H       -2.1086427170    0.7305110368   -0.3657962817
H       -1.3765937937    1.3522559067   -2.5320097690
C       -0.6577757548   -1.0420792845   -0.3650198466
H       -0.5444780447   -1.7198843700    0.4660410213
13   
From optimize.out: Frame 5 / 24, Energy=    -286.7529313460
C        1.5033566944    0.2453632972   -1.7160253133
C        0.7153211590   -0.9940105358   -1.4997530297
C       -0.6307090191   -0.7051235896   -2.0107261466
C       -1.1308928039    0.3483543996   -0.6001190198
C       -0.5758557372    0.7808171138   -2.0716374714
N        0.7417001487    1.2599141270   -1.9852809706
H        2.5713497897    0.2360896819   -1.9209686292
H        1.0625585826   -2.0218627817   -1.5567309956
H       -1.2829108514   -1.0796451178   -2.8048665397
H       -2.1082069100    0.7469656036   -0.3449202762
H       -1.3777320588    1.3626503464   -2.5127485797
C       -0.6475147263   -1.0136189186   -0.4129735109
H       -0.5253822458   -1.6915771144    0.4155930646
13   
From optimize.out: Frame 6 / 24, Energy=    -286.7729725424
C        1.4904159897    0.2304836322   -1.7172258403
C        0.7110508598   -1.0014303642   -1.5096349406
C       -0.6352782441   -0.7301334659   -2.0212106507
C       -1.1306060255    0.3750636142   -0.5889915447
C       -0.5908988646    0.7800096285   -2.0488834639
N        0.7533991664    1.2529395154   -1.9848093366
H        2.5646404626    0.2418793623   -1.8840729059
H        1.0725553848   -2.0229195828   -1.5535141797
H       -1.2804135549   -1.1392750849   -2.8071864326
H       -2.1035612866    0.7702190303   -0.3168226389
H       -1.3817707016    1.3690058137   -2.4955555840
C       -0.6409897954   -0.9854038056   -0.4590739839
H       -0.5134613688   -1.6661217815    0.3658240839
13   
From optimize.out: Frame 7 / 24, Energy=    -286.7900846911
C        1.4802382995    0.2190080891   -1.7211885425
C        0.7072179301   -1.0093148191   -1.5213859986
C       -0.6392794242   -0.7543127140   -2.0361069514
C       -1.1270587676    0.4025402369   -0.5753819453
C       -0.6070952761    0.7779549018   -2.0266836912
N        0.7602165337    1.2473565494   -1.9876049125
H        2.5599349225    0.2485100622   -1.8451871335
H        1.0827785724   -2.0250797954   -1.5509483685
H       -1.2739643342   -1.1972103468   -2.8136530173
H       -2.0942876669    0.7946456604   -0.2824320682
H       -1.3870442319    1.3733678685   -2.4828333365
C       -0.6373138526   -0.9581689984   -0.4990217633
H       -0.5092606830   -1.6449801832    0.3212703107
13   
From optimize.out: Frame 8 / 24, Energy=    -286.8036692716
C        1.4715798564    0.2116102776   -1.7283638826
C        0.7030879919   -1.0164048098   -1.5333352351
C       -0.6442980911   -0.7747281080   -2.0538255379
C       -1.1179965358    0.4285958313   -0.5601495727
C       -0.6224238798    0.7765759965   -2.0066585574
N        0.7624879809    1.2441549741   -1.9970071382
H        2.5555090818    0.2563164862   -1.8040580589
H        1.0931928270   -2.0265506445   -1.5467855243
H       -1.2675086038   -1.2499012987   -2.8206942956
H       -2.0797028075    0.8152488698   -0.2440878088
H       -1.3903516856    1.3766597961   -2.4787390025
C       -0.6348089857   -0.9343260123   -0.5302087400
H       -0.5136851267   -1.6329348467    0.2827559359
13   
From optimize.out: Frame 9 / 24, Energy=    -286.8138878907
C        1.4637938970    0.2087494916   -1.7378004074
C        0.6985009766   -1.0211429655   -1.5430412939
C       -0.6504736071   -0.7898108875   -2.0709643389
C       -1.1029982859    0.4519616894   -0.5441718613
C       -0.6354936083    0.7768206623   -1.9906218770
N        0.7610803506    1.2431199483   -2.0115748667
H        2.5498683130    0.2649638724   -1.7642168855
H        1.1031956326   -2.0255113051   -1.5401314597
H       -1.2628934909   -1.2953758144   -2.8247515892
H       -2.0602502314    0.8296146306   -0.2046666149
H       -1.3899709678    1.3785432349   -2.4849252484
C       -0.6315691748   -0.9153762639   -0.5528721331
H       -0.5277077817   -1.6322397817    0.2485811578
13   
From optimize.out: Frame 10 / 24, Energy=    -286.8213669782
C        1.4572596700    0.2095484102   -1.7482074263
C        0.6940026196   -1.0231969066   -1.5489629774
C       -0.6567592581   -0.7997045815   -2.0851308835
C       -1.0839433119    0.4722602374   -0.5287145504
C       -0.6462214554    0.7785696135   -1.9792370191
N        0.7569962156    1.2435883459   -2.0276874119
H        2.5434338053    0.2736738278   -1.7302967324
H        1.1123522011   -2.0219031871   -1.5318792697
H       -1.2592770909   -1.3340428787   -2.8243247309
H       -2.0381701872    0.8375219749   -0.1670921906
H       -1.3866561642    1.3794412761   -2.4981133665
C       -0.6261160449   -0.9009857207   -0.5687685868
H       -0.5518189770   -1.6404538997    0.2172577276
13   
From optimize.out: Frame 11 / 24, Energy=    -286.8267571906
C        1.4525127259    0.2126716789   -1.7583259586
C        0.6902509169   -1.0232688481   -1.5507278767
C       -0.6621875906   -0.8055255275   -2.0956109593
C       -1.0633076215    0.4893498195   -0.5151347232
C       -0.6549480192    0.7809162239   -1.9722437262
N        0.7513035939    1.2446363144   -2.0426913199
H        2.5375207087    0.2825266949   -1.7052098265
H        1.1205838217   -2.0169060277   -1.5236807441
H       -1.2553394701   -1.3669534828   -2.8197711963
H       -2.0157307974    0.8400041142   -0.1336354435
H       -1.3821556406    1.3803566657   -2.5132151729
C       -0.6177583577   -0.8903237282   -0.5794394687
H       -0.5856622480   -1.6531673857    0.1885289980
13   
From optimize.out: Frame 12 / 24, Energy=    -286.8306032373
C        1.4495724364    0.2169484348   -1.7670334174
C        0.6876077045   -1.0223046828   -1.5487410935
C       -0.6662954946   -0.8083942570   -2.1027797978
C       -1.0432135288    0.5032184787   -0.5042039590
C       -0.6621378289    0.7829748873   -1.9688111360
N        0.7448668265    1.2454909823   -2.0555070354
H        2.5330620588    0.2914956653   -1.6891835363
H        1.1279722066   -2.0118076395   -1.5172084930
H       -1.2502199062   -1.3948143408   -2.8124362983
H       -1.9944767385    0.8384929277   -0.1050984928
H       -1.3780309992    1.3818099407   -2.5268655171
C       -0.6064160909   -0.8826207037   -0.5859054084
H       -0.6272086238   -1.6661731816    0.1626167669
13   
From optimize.out: Frame 13 / 24, Energy=    -286.8333022734
C        1.4480247345    0.2216178226   -1.7737361820
C        0.6860875636   -1.0211139512   -1.5436541246
C       -0.6690570250   -0.8090000714   -2.1073094481
C       -1.0249735269    0.5141561770   -0.4959556398
C       -0.6682609662    0.7842170932   -1.9678894459
N        0.7382092913    1.2457368935   -2.0660129333
H        2.5302352954    0.3004076020   -1.6806916204
H        1.1346708251   -2.0074843368   -1.5137908374
H       -1.2435601527   -1.4180974704   -2.8036277776
H       -1.9750909354    0.8343099404   -0.0809066947
H       -1.3749590260    1.3835105907   -2.5382275192
C       -0.5924761571   -0.8772823786   -0.5888198773
H       -0.6737678987   -1.6766613994    0.1394646822
13   
From optimize.out: Frame 14 / 24, Energy=    -286.8350894723
C        1.4473718127    0.2262735730   -1.7782972545
C        0.6855605035   -1.0202660977   -1.5360563619
C       -0.6706313157   -0.8076030744   -2.1096940444
C       -1.0091554180    0.5227124366   -0.4901210420
C       -0.6737505136    0.7843381597   -1.9686339982
N        0.7315356866    1.2452108047   -2.0744556430
H        2.5287567464    0.3090833262   -1.6776878571
H        1.1409674974   -2.0043030403   -1.5145594691
H       -1.2352362364   -1.4372319687   -2.7941011027
H       -1.9576031175    0.8285149869   -0.0599080118
H       -1.3729628772    1.3847726067   -2.5478780492
C       -0.5765993638   -0.8738820849   -0.5885123041
H       -0.7231713825   -1.6833031163    0.1187477201
13   
From optimize.out: Frame 15 / 24, Energy=    -286.8360682727
C        1.4470533462    0.2308117429   -1.7805878180
C        0.6857188843   -1.0202148909   -1.5262505921
C       -0.6712477326   -0.8041492829   -2.1102351961
C       -0.9957314655    0.5296581505   -0.4865287645
C       -0.6790533665    0.7829140619   -1.9706899101
N        0.7247197785    1.2438476799   -2.0811124755
H        2.5280580376    0.3175004813   -1.6781085913
H        1.1472391902   -2.0022321352   -1.5207163013
H       -1.2250316642   -1.4526218938   -2.7842498358
H       -1.9412681194    0.8222666578   -0.0405913692
H       -1.3717497230    1.3847375915   -2.5571014927
C       -0.5597408178   -0.8721808826   -0.5850167716
H       -0.7738843259   -1.6860207688    0.1000317003
13   
From optimize.out: Frame 16 / 24, Energy=    -286.8363058163
C        1.4463406511    0.2337184990   -1.7798122050
C        0.6853765770   -1.0211287992   -1.5182507083
C       -0.6712500289   -0.7999612126   -2.1096070442
C       -0.9889829789    0.5339859726   -0.4861204279
C       -0.6828292254    0.7800857223   -1.9734130443
N        0.7197436189    1.2422047868   -2.0840494084
H        2.5274016466    0.3223969638   -1.6789820588
H        1.1513626402   -2.0014015222   -1.5294134710
H       -1.2167331990   -1.4592799431   -2.7788516173
H       -1.9304251639    0.8204029114   -0.0276977849
H       -1.3709984745    1.3828566622   -2.5647249001
C       -0.5503686736   -0.8721737797   -0.5801931399
H       -0.8035553677   -1.6873897496    0.0899583921
13   
From optimize.out: Frame 17 / 24, Energy=    -286.8363609249
C        1.4458719217    0.2341972129   -1.7780885919
C        0.6852379078   -1.0212858545   -1.5159716063
C       -0.6706595189   -0.7985924530   -2.1088012437
C       -0.9893108586    0.5341342517   -0.4875295933
C       -0.6837858570    0.7774795026   -1.9745535953
N        0.7187597780    1.2416490438   -2.0830523123
H        2.5273373111    0.3226273512   -1.6814259958
H        1.1530730599   -2.0005766013   -1.5317252543
H       -1.2142448021   -1.4574064192   -2.7800820423
H       -1.9276324428    0.8233131734   -0.0246323894
H       -1.3711945786    1.3804919546   -2.5664649256
C       -0.5509853871   -0.8727419505   -0.5781752015
H       -0.8073845115   -1.6889727002    0.0893453338
13   
From optimize.out: Frame 18 / 24, Energy=    -286.8364270756
C        1.4452358426    0.2351929204   -1.7745493946
C        0.6838551296   -1.0214728578   -1.5129040403
C       -0.6696370512   -0.7967156740   -2.1084835059
C       -0.9919027086    0.5339441825   -0.4905704247
C       -0.6864169959    0.7716180187   -1.9773125389
N        0.7164007635    1.2411950365   -2.0818256889
H        2.5274136096    0.3213889091   -1.6824225664
H        1.1542859506   -1.9995919722   -1.5331363106
H       -1.2099505482   -1.4508383596   -2.7868273959
H       -1.9211816254    0.8332166746   -0.0165449029
H       -1.3730027557    1.3744192180   -2.5707926349
C       -0.5547840874   -0.8741863684   -0.5755433618
H       -0.8052335017   -1.6938532163    0.0897553478
13   
From optimize.out: Frame 19 / 24, Energy=    -286.8364444846
C        1.4451506265    0.2355240759   -1.7736388840
C        0.6852298092   -1.0209235518   -1.5119552187
C       -0.6678420995   -0.7982107275   -2.1078796058
C       -0.9933594393    0.5318094895   -0.4917890810
C       -0.6870109585    0.7685145089   -1.9770505355
N        0.7165240120    1.2415442826   -2.0800156372
H        2.5276281848    0.3227247325   -1.6873267064
H        1.1556269727   -1.9989900621   -1.5301504917
H       -1.2077422532   -1.4473422124   -2.7915627593
H       -1.9171097655    0.8396496640   -0.0129537015
H       -1.3749789786    1.3703040635   -2.5696648744
C       -0.5570414399   -0.8755350861   -0.5759379285
H       -0.8099926487   -1.6947526656    0.0887680060
13   
From optimize.out: Frame 20 / 24, Energy=    -286.8364661177
C        1.4448787935    0.2364802449   -1.7731736451
C        0.6848834977   -1.0211263629   -1.5120787517
C       -0.6671818095   -0.7999583288   -2.1096075040
C       -0.9945795557    0.5313987806   -0.4922695974
C       -0.6890076380    0.7663320954   -1.9778223446
N        0.7148021996    1.2418377642   -2.0805467204
H        2.5271816110    0.3239213468   -1.6840503882
H        1.1543265028   -1.9999689710   -1.5269650552
H       -1.2052540762   -1.4453306138   -2.7980305876
H       -1.9102277368    0.8487414937   -0.0048227699
H       -1.3773906605    1.3664281746   -2.5721506992
C       -0.5599835385   -0.8769548234   -0.5775033420
H       -0.8073655675   -1.6974842888    0.0878639873
13   
From optimize.out: Frame 21 / 24, Energy=    -286.8364809610
C        1.4445574802    0.2374350345   -1.7733328412
C        0.6854968971   -1.0212674415   -1.5130443538
C       -0.6662810050   -0.8026371778   -2.1115560420
C       -0.9952239129    0.5306268998   -0.4926884971
C       -0.6907578134    0.7652424463   -1.9783870711
N        0.7128141278    1.2421919040   -2.0808641028
H        2.5265350995    0.3259699398   -1.6807760888
H        1.1536250175   -2.0009185468   -1.5239537958
H       -1.2022387196   -1.4461742982   -2.8032110252
H       -1.9022815198    0.8571514367    0.0040298121
H       -1.3798895476    1.3636966511   -2.5738095566
C       -0.5622869809   -0.8783366745   -0.5797962781
H       -0.8089871010   -1.6986636619    0.0862324224
13   
From optimize.out: Frame 22 / 24, Energy=    -286.8364879117
C        1.4437023073    0.2382152955   -1.7729071782
C        0.6856473095   -1.0214659419   -1.5136101997
C       -0.6658275767   -0.8044774012   -2.1129265896
C       -0.9952992699    0.5300556070   -0.4934244261
C       -0.6916252129    0.7647487798   -1.9790508932
N        0.7110930714    1.2424311454   -2.0802777448
H        2.5254455922    0.3279934209   -1.6788933851
H        1.1536485566   -2.0012303469   -1.5228182341
H       -1.1996375869   -1.4484325253   -2.8058018492
H       -1.8955279888    0.8629986271    0.0109943447
H       -1.3807767140    1.3621780118   -2.5756067004
C       -0.5642366557   -0.8792943185   -0.5814798359
H       -0.8115238102   -1.6994038421    0.0846452736
13   
From optimize.out: Frame 23 / 24, Energy=    -286.8364925738
C        1.4432702394    0.2384993246   -1.7726318934
C        0.6860197931   -1.0215529865   -1.5142612394
C       -0.6652423276   -0.8056918236   -2.1139281810
C       -0.9965236508    0.5290212374   -0.4946980028
C       -0.6923465130    0.7645368885   -1.9798746122
N        0.7094133952    1.2421068004   -2.0797080176
H        2.5248322178    0.3292600508   -1.6774981042
H        1.1545458132   -2.0010525315   -1.5230130148
H       -1.1967929355   -1.4508997702   -2.8074222276
H       -1.8899374209    0.8680611592    0.0173812517
H       -1.3815318732    1.3615796194   -2.5768539336
C       -0.5660331262   -0.8799418104   -0.5823954118
H       -0.8145915895   -1.6996096467    0.0837459687
