13   
From optimize.out: Frame 1 / 2, Energy=    -286.8755060422
C        0.0479920000   -0.2309860000   -0.0000000000
C       -0.1146000000    0.6936560000   -0.0000000000
C       -0.1934410000   -0.0540410000   -0.0000000000
C       -0.0756800000    0.0315050000    0.0000000000
C       -0.0623040000   -0.0275490000   -0.0000000000
N       -0.3512480000    0.5170610000   -0.0000000000
H        0.1405120000    0.0074460000   -0.0000000000
H        0.1434520000   -0.0321590000   -0.0000000000
H        0.1480990000    0.0252460000   -0.0000000000
H        0.1374220000    0.0035720000    0.0000000000
H        0.1515330000    0.0253980000   -0.0000000000
C       -0.1049790000    0.0339510000    0.0000000000
H        0.1332410000    0.0069000000    0.0000000000
