13   
From optimize.out: Frame 1 / 3, Energy=    -286.8567735930
C        1.2763835397   -0.0341859732    0.0319749185
C        0.5636919009   -1.0680140030    0.8142759777
C       -0.8212630411   -1.0079822156    0.8738671216
C       -1.4465363319    0.0137130622    0.1718519945
C       -0.5998576492    0.9726167234   -0.5705815700
N        0.7471698652    1.3939334237    0.0092859506
H        2.3631103388   -0.0435835032    0.0863750253
H        1.1396400289   -1.8211457670    1.3422433810
H       -1.3929959713   -1.7296931111    1.4510534711
H       -2.5234708014    0.1451232383    0.1667822130
H       -1.1076250069    1.8192608899   -1.0282359927
C        0.6790403761    0.5512810618   -1.1959907200
H        1.1227127520    0.8086761738   -2.1529017703
13   
From optimize.out: Frame 2 / 3, Energy=    -286.8567767057
C        1.2762323032   -0.0344161555    0.0311421112
C        0.5639265049   -1.0674673373    0.8147103130
C       -0.8212684279   -1.0082271577    0.8734651133
C       -1.4462738638    0.0128801417    0.1709790399
C       -0.5997817113    0.9720388691   -0.5713043746
N        0.7461510193    1.3939038696    0.0092692356
H        2.3629562781   -0.0438134166    0.0861051046
H        1.1395610226   -1.8206073240    1.3425101071
H       -1.3935218229   -1.7291016916    1.4510486186
H       -2.5231111663    0.1454006781    0.1677329326
H       -1.1080484569    1.8196118488   -1.0267283693
C        0.6792492842    0.5509776372   -1.1963526825
H        1.1239290367    0.8088200381   -2.1525771491
