13   
From optimize.out: Frame 1 / 3, Energy=    -286.8567735930
C       -0.1211300000   -0.0645450000    0.0000000000
C       -0.0516350000    0.6254910000    0.0000000000
C       -0.1798760000   -0.2588720000    0.0000000000
C       -0.0516610000    0.6273800000    0.0000000000
C       -0.1216530000   -0.0649930000   -0.0000000000
N       -0.3095380000    0.1008580000    0.0000000000
H        0.1510380000    0.0011790000    0.0000000000
H        0.1364550000   -0.0306160000    0.0000000000
H        0.1336550000    0.0092820000    0.0000000000
H        0.1365500000   -0.0307340000    0.0000000000
H        0.1510470000    0.0012210000   -0.0000000000
C       -0.0302130000    0.0870960000   -0.0000000000
H        0.1569610000   -0.0027480000   -0.0000000000
13   
From optimize.out: Frame 2 / 3, Energy=    -286.8567767057
C       -0.1213980000   -0.0646270000    0.0000000000
C       -0.0515520000    0.6261000000    0.0000000000
C       -0.1798530000   -0.2588530000    0.0000000000
C       -0.0516360000    0.6268810000    0.0000000000
C       -0.1216170000   -0.0648730000   -0.0000000000
N       -0.3095410000    0.1009590000    0.0000000000
H        0.1510180000    0.0011860000    0.0000000000
H        0.1364460000   -0.0306500000    0.0000000000
H        0.1336500000    0.0092800000    0.0000000000
H        0.1364960000   -0.0307070000    0.0000000000
H        0.1510640000    0.0012120000   -0.0000000000
C       -0.0300660000    0.0868300000   -0.0000000000
H        0.1569890000   -0.0027390000   -0.0000000000
