13   
Frame   0 IRC: Energy =  -286.8593580000 ; +0.0000 kcal/mol
C       -0.2901250000    0.1103620000    0.0000000000
C       -0.0510370000   -0.1551320000   -0.0000000000
C       -0.1555950000    0.9789690000   -0.0000000000
C       -0.0239730000   -0.1129540000    0.0000000000
C       -0.0591230000    0.0521570000   -0.0000000000
N       -0.1690060000    0.0382980000   -0.0000000000
H        0.1443350000    0.0030830000    0.0000000000
H        0.1391310000    0.0054480000   -0.0000000000
H        0.1296050000   -0.0201690000   -0.0000000000
H        0.1346130000    0.0247680000    0.0000000000
H        0.1314140000    0.0009870000   -0.0000000000
C       -0.0627160000    0.0742070000    0.0000000000
H        0.1324770000   -0.0000250000    0.0000000000
13   
Frame   1 IRC: Energy =  -286.8593550000 ; +0.0019 kcal/mol
C       -0.2902640000    0.1103630000    0.0000000000
C       -0.0510850000   -0.1550830000   -0.0000000000
C       -0.1555840000    0.9791610000   -0.0000000000
C       -0.0239690000   -0.1129890000    0.0000000000
C       -0.0589260000    0.0519530000   -0.0000000000
N       -0.1689920000    0.0383820000   -0.0000000000
H        0.1443510000    0.0030790000    0.0000000000
H        0.1391220000    0.0054550000   -0.0000000000
H        0.1295850000   -0.0201760000   -0.0000000000
H        0.1346010000    0.0247900000    0.0000000000
H        0.1313740000    0.0010050000   -0.0000000000
C       -0.0626540000    0.0740810000    0.0000000000
H        0.1324410000   -0.0000210000    0.0000000000
13   
Frame   2 IRC: Energy =  -286.8592990000 ; +0.0370 kcal/mol
C       -0.2902410000    0.1107470000    0.0000000000
C       -0.0506250000   -0.1550050000   -0.0000000000
C       -0.1554790000    0.9781290000   -0.0000000000
C       -0.0240570000   -0.1124090000    0.0000000000
C       -0.0608610000    0.0511860000   -0.0000000000
N       -0.1681720000    0.0399680000   -0.0000000000
H        0.1442920000    0.0030290000    0.0000000000
H        0.1392660000    0.0054470000   -0.0000000000
H        0.1295080000   -0.0198110000   -0.0000000000
H        0.1347800000    0.0249430000    0.0000000000
H        0.1314770000    0.0010160000   -0.0000000000
C       -0.0623310000    0.0729040000    0.0000000000
H        0.1324430000   -0.0001440000    0.0000000000
13   
Frame   3 IRC: Energy =  -286.8592900000 ; +0.0427 kcal/mol
C       -0.2904590000    0.1107310000    0.0000000000
C       -0.0507070000   -0.1549230000   -0.0000000000
C       -0.1554240000    0.9783550000   -0.0000000000
C       -0.0240780000   -0.1124400000    0.0000000000
C       -0.0606460000    0.0508370000   -0.0000000000
N       -0.1682010000    0.0401710000   -0.0000000000
H        0.1443190000    0.0030270000    0.0000000000
H        0.1392590000    0.0054530000   -0.0000000000
H        0.1294770000   -0.0198070000   -0.0000000000
H        0.1347700000    0.0249860000    0.0000000000
H        0.1314340000    0.0010360000   -0.0000000000
C       -0.0621380000    0.0727170000    0.0000000000
H        0.1323930000   -0.0001410000    0.0000000000
13   
Frame   4 IRC: Energy =  -286.8592570000 ; +0.0634 kcal/mol
C       -0.2902960000    0.1109110000    0.0000000000
C       -0.0504030000   -0.1549330000   -0.0000000000
C       -0.1554240000    0.9776320000   -0.0000000000
C       -0.0241500000   -0.1121150000    0.0000000000
C       -0.0617530000    0.0506970000   -0.0000000000
N       -0.1677070000    0.0408590000   -0.0000000000
H        0.1442670000    0.0030010000    0.0000000000
H        0.1393340000    0.0054460000   -0.0000000000
H        0.1294660000   -0.0196370000   -0.0000000000
H        0.1348620000    0.0250290000    0.0000000000
H        0.1315150000    0.0010330000   -0.0000000000
C       -0.0621470000    0.0722850000    0.0000000000
H        0.1324360000   -0.0002080000    0.0000000000
13   
Frame   5 IRC: Energy =  -286.8592410000 ; +0.0734 kcal/mol
C       -0.2905590000    0.1108610000    0.0000000000
C       -0.0504740000   -0.1548170000   -0.0000000000
C       -0.1553390000    0.9778670000   -0.0000000000
C       -0.0241560000   -0.1121090000    0.0000000000
C       -0.0616460000    0.0501980000   -0.0000000000
N       -0.1677480000    0.0412070000   -0.0000000000
H        0.1442970000    0.0030010000    0.0000000000
H        0.1393380000    0.0054490000   -0.0000000000
H        0.1294310000   -0.0196090000   -0.0000000000
H        0.1348660000    0.0250800000    0.0000000000
H        0.1314830000    0.0010520000   -0.0000000000
C       -0.0618760000    0.0720300000    0.0000000000
H        0.1323820000   -0.0002100000    0.0000000000
13   
Frame   6 IRC: Energy =  -286.8592090000 ; +0.0935 kcal/mol
C       -0.2903890000    0.1110510000    0.0000000000
C       -0.0501900000   -0.1548550000   -0.0000000000
C       -0.1553610000    0.9770950000   -0.0000000000
C       -0.0242190000   -0.1118330000    0.0000000000
C       -0.0626410000    0.0502160000   -0.0000000000
N       -0.1672510000    0.0417720000   -0.0000000000
H        0.1442390000    0.0029730000    0.0000000000
H        0.1393940000    0.0054460000   -0.0000000000
H        0.1294340000   -0.0194840000   -0.0000000000
H        0.1349360000    0.0251180000    0.0000000000
H        0.1315530000    0.0010490000   -0.0000000000
C       -0.0619320000    0.0717220000    0.0000000000
H        0.1324270000   -0.0002690000    0.0000000000
13   
Frame   7 IRC: Energy =  -286.8591830000 ; +0.1098 kcal/mol
C       -0.2907140000    0.1109740000    0.0000000000
C       -0.0501920000   -0.1547190000   -0.0000000000
C       -0.1553210000    0.9773610000   -0.0000000000
C       -0.0242120000   -0.1118260000    0.0000000000
C       -0.0625940000    0.0494920000   -0.0000000000
N       -0.1673570000    0.0423740000   -0.0000000000
H        0.1442550000    0.0029760000    0.0000000000
H        0.1394060000    0.0054440000   -0.0000000000
H        0.1294080000   -0.0194670000   -0.0000000000
H        0.1349610000    0.0251820000    0.0000000000
H        0.1315030000    0.0010590000   -0.0000000000
C       -0.0615050000    0.0714230000    0.0000000000
H        0.1323620000   -0.0002730000    0.0000000000
13   
Frame   8 IRC: Energy =  -286.8591600000 ; +0.1242 kcal/mol
C       -0.2908800000    0.1110430000    0.0000000000
C       -0.0504600000   -0.1546730000   -0.0000000000
C       -0.1553830000    0.9779550000   -0.0000000000
C       -0.0246450000   -0.1119630000    0.0000000000
C       -0.0613400000    0.0490510000   -0.0000000000
N       -0.1672630000    0.0423370000   -0.0000000000
H        0.1443020000    0.0029820000    0.0000000000
H        0.1393660000    0.0054630000   -0.0000000000
H        0.1293310000   -0.0195100000   -0.0000000000
H        0.1349000000    0.0252040000    0.0000000000
H        0.1312810000    0.0011070000   -0.0000000000
C       -0.0615100000    0.0712600000    0.0000000000
H        0.1323020000   -0.0002550000    0.0000000000
13   
Frame   9 IRC: Energy =  -286.8587810000 ; +0.3621 kcal/mol
C       -0.2915470000    0.1112000000    0.0000000000
C       -0.0495880000   -0.1542060000   -0.0000000000
C       -0.1546370000    0.9741180000   -0.0000000000
C       -0.0251040000   -0.1102870000    0.0000000000
C       -0.0672760000    0.0469190000   -0.0000000000
N       -0.1649430000    0.0473910000   -0.0000000000
H        0.1440990000    0.0028890000    0.0000000000
H        0.1397370000    0.0053910000   -0.0000000000
H        0.1293630000   -0.0188020000   -0.0000000000
H        0.1353280000    0.0255590000    0.0000000000
H        0.1318480000    0.0011800000   -0.0000000000
C       -0.0597440000    0.0692320000    0.0000000000
H        0.1324650000   -0.0005840000    0.0000000000
13   
Frame  10 IRC: Energy =  -286.8587410000 ; +0.3872 kcal/mol
C       -0.2914610000    0.1113820000    0.0000000000
C       -0.0492490000   -0.1542280000   -0.0000000000
C       -0.1548430000    0.9740390000   -0.0000000000
C       -0.0245050000   -0.1100500000    0.0000000000
C       -0.0681490000    0.0467860000   -0.0000000000
N       -0.1644210000    0.0474360000   -0.0000000000
H        0.1440220000    0.0028670000    0.0000000000
H        0.1397810000    0.0054040000   -0.0000000000
H        0.1294140000   -0.0187410000   -0.0000000000
H        0.1354180000    0.0254540000    0.0000000000
H        0.1318040000    0.0011900000   -0.0000000000
C       -0.0603120000    0.0690410000    0.0000000000
H        0.1325000000   -0.0005810000    0.0000000000
13   
Frame  11 IRC: Energy =  -286.8581530000 ; +0.7561 kcal/mol
C       -0.2928580000    0.1107410000    0.0000000000
C       -0.0496030000   -0.1534920000   -0.0000000000
C       -0.1539930000    0.9711810000   -0.0000000000
C       -0.0267650000   -0.1091010000    0.0000000000
C       -0.0703770000    0.0434510000   -0.0000000000
N       -0.1632260000    0.0534120000   -0.0000000000
H        0.1439990000    0.0028560000    0.0000000000
H        0.1399430000    0.0053250000   -0.0000000000
H        0.1294180000   -0.0184970000   -0.0000000000
H        0.1355700000    0.0260110000    0.0000000000
H        0.1321230000    0.0013430000   -0.0000000000
C       -0.0567630000    0.0676310000    0.0000000000
H        0.1325320000   -0.0008620000    0.0000000000
13   
Frame  12 IRC: Energy =  -286.8580190000 ; +0.8402 kcal/mol
C       -0.2930270000    0.1107070000    0.0000000000
C       -0.0489030000   -0.1533550000   -0.0000000000
C       -0.1542290000    0.9705730000   -0.0000000000
C       -0.0258510000   -0.1086190000    0.0000000000
C       -0.0724800000    0.0428290000   -0.0000000000
N       -0.1626140000    0.0544390000   -0.0000000000
H        0.1438680000    0.0028250000    0.0000000000
H        0.1400380000    0.0053170000   -0.0000000000
H        0.1295580000   -0.0184000000   -0.0000000000
H        0.1357560000    0.0259340000    0.0000000000
H        0.1322370000    0.0013500000   -0.0000000000
C       -0.0569540000    0.0672930000    0.0000000000
H        0.1326000000   -0.0008930000    0.0000000000
13   
Frame  13 IRC: Energy =  -286.8576270000 ; +1.0862 kcal/mol
C       -0.2938120000    0.1102170000    0.0000000000
C       -0.0494920000   -0.1529480000   -0.0000000000
C       -0.1537910000    0.9691330000   -0.0000000000
C       -0.0277510000   -0.1083150000    0.0000000000
C       -0.0724170000    0.0410300000   -0.0000000000
N       -0.1621700000    0.0576500000   -0.0000000000
H        0.1439340000    0.0028420000    0.0000000000
H        0.1400540000    0.0052760000   -0.0000000000
H        0.1295300000   -0.0183970000   -0.0000000000
H        0.1357260000    0.0262670000    0.0000000000
H        0.1323680000    0.0014640000   -0.0000000000
C       -0.0547820000    0.0668110000    0.0000000000
H        0.1326020000   -0.0010320000    0.0000000000
13   
Frame  14 IRC: Energy =  -286.8573910000 ; +1.2343 kcal/mol
C       -0.2941980000    0.1099570000    0.0000000000
C       -0.0485740000   -0.1526750000   -0.0000000000
C       -0.1541380000    0.9682440000   -0.0000000000
C       -0.0267450000   -0.1077020000    0.0000000000
C       -0.0750600000    0.0399510000   -0.0000000000
N       -0.1614390000    0.0594610000   -0.0000000000
H        0.1437740000    0.0028070000    0.0000000000
H        0.1401660000    0.0052570000   -0.0000000000
H        0.1297440000   -0.0183280000   -0.0000000000
H        0.1359570000    0.0261940000    0.0000000000
H        0.1325450000    0.0014870000   -0.0000000000
C       -0.0547300000    0.0664290000    0.0000000000
H        0.1326970000   -0.0010830000    0.0000000000
13   
Frame  15 IRC: Energy =  -286.8569420000 ; +1.5161 kcal/mol
C       -0.2949130000    0.1092280000    0.0000000000
C       -0.0493660000   -0.1522580000   -0.0000000000
C       -0.1537250000    0.9668930000   -0.0000000000
C       -0.0288350000   -0.1075640000    0.0000000000
C       -0.0744580000    0.0380360000   -0.0000000000
N       -0.1611990000    0.0628570000   -0.0000000000
H        0.1438750000    0.0028390000    0.0000000000
H        0.1401360000    0.0052170000   -0.0000000000
H        0.1297420000   -0.0184500000   -0.0000000000
H        0.1358740000    0.0265190000    0.0000000000
H        0.1326780000    0.0016200000   -0.0000000000
C       -0.0525000000    0.0662740000    0.0000000000
H        0.1326910000   -0.0012130000    0.0000000000
13   
Frame  16 IRC: Energy =  -286.8565600000 ; +1.7558 kcal/mol
C       -0.2955820000    0.1084630000    0.0000000000
C       -0.0481870000   -0.1517710000   -0.0000000000
C       -0.1542890000    0.9658570000   -0.0000000000
C       -0.0277180000   -0.1068820000    0.0000000000
C       -0.0775630000    0.0362140000   -0.0000000000
N       -0.1603970000    0.0658330000   -0.0000000000
H        0.1436910000    0.0028000000    0.0000000000
H        0.1402460000    0.0051830000   -0.0000000000
H        0.1300820000   -0.0185000000   -0.0000000000
H        0.1361430000    0.0264260000    0.0000000000
H        0.1329130000    0.0016780000   -0.0000000000
C       -0.0521680000    0.0659810000    0.0000000000
H        0.1328300000   -0.0012850000    0.0000000000
13   
Frame  17 IRC: Energy =  -286.8559290000 ; +2.1517 kcal/mol
C       -0.2962050000    0.1068830000    0.0000000000
C       -0.0489690000   -0.1511880000   -0.0000000000
C       -0.1539980000    0.9644500000   -0.0000000000
C       -0.0298570000   -0.1069960000    0.0000000000
C       -0.0768130000    0.0333670000   -0.0000000000
N       -0.1603960000    0.0707740000   -0.0000000000
H        0.1438160000    0.0028480000    0.0000000000
H        0.1401630000    0.0051350000   -0.0000000000
H        0.1302320000   -0.0189210000   -0.0000000000
H        0.1360050000    0.0267500000    0.0000000000
H        0.1331180000    0.0018670000   -0.0000000000
C       -0.0499160000    0.0664690000    0.0000000000
H        0.1328210000   -0.0014380000    0.0000000000
13   
Frame  18 IRC: Energy =  -286.8552550000 ; +2.5747 kcal/mol
C       -0.2972480000    0.1043180000    0.0000000000
C       -0.0475780000   -0.1501420000   -0.0000000000
C       -0.1548910000    0.9639580000   -0.0000000000
C       -0.0285970000   -0.1065340000    0.0000000000
C       -0.0804430000    0.0293630000   -0.0000000000
N       -0.1596930000    0.0769210000   -0.0000000000
H        0.1436160000    0.0027990000    0.0000000000
H        0.1401990000    0.0050520000   -0.0000000000
H        0.1309370000   -0.0195140000   -0.0000000000
H        0.1362670000    0.0265390000    0.0000000000
H        0.1334330000    0.0020160000   -0.0000000000
C       -0.0490500000    0.0667730000    0.0000000000
H        0.1330480000   -0.0015490000    0.0000000000
13   
Frame  19 IRC: Energy =  -286.8543620000 ; +3.1350 kcal/mol
C       -0.2972450000    0.1009080000    0.0000000000
C       -0.0470630000   -0.1492600000   -0.0000000000
C       -0.1555510000    0.9626910000   -0.0000000000
C       -0.0295750000   -0.1075320000    0.0000000000
C       -0.0799910000    0.0244750000   -0.0000000000
N       -0.1601260000    0.0853040000   -0.0000000000
H        0.1437660000    0.0028260000    0.0000000000
H        0.1400920000    0.0050360000   -0.0000000000
H        0.1315250000   -0.0207610000   -0.0000000000
H        0.1359570000    0.0268260000    0.0000000000
H        0.1336980000    0.0023100000   -0.0000000000
C       -0.0485380000    0.0689100000    0.0000000000
H        0.1330520000   -0.0017330000    0.0000000000
13   
Frame  20 IRC: Energy =  -286.8534280000 ; +3.7211 kcal/mol
C       -0.2978340000    0.0949930000    0.0000000000
C       -0.0457870000   -0.1471690000   -0.0000000000
C       -0.1565660000    0.9634260000   -0.0000000000
C       -0.0271800000   -0.1077710000    0.0000000000
C       -0.0849570000    0.0166590000   -0.0000000000
N       -0.1597140000    0.0971740000   -0.0000000000
H        0.1435760000    0.0027030000    0.0000000000
H        0.1399820000    0.0048350000   -0.0000000000
H        0.1328610000   -0.0224260000   -0.0000000000
H        0.1360350000    0.0263130000    0.0000000000
H        0.1342380000    0.0025510000   -0.0000000000
C       -0.0480270000    0.0705900000    0.0000000000
H        0.1333740000   -0.0018790000    0.0000000000
13   
Frame  21 IRC: Energy =  -286.8509400000 ; +5.2824 kcal/mol
C       -0.2919500000    0.0820050000    0.0000000000
C       -0.0434890000   -0.1425120000   -0.0000000000
C       -0.1585230000    0.9588080000   -0.0000000000
C       -0.0201640000   -0.1114200000    0.0000000000
C       -0.0951470000   -0.0043820000   -0.0000000000
N       -0.1604970000    0.1334590000   -0.0000000000
H        0.1434620000    0.0024310000    0.0000000000
H        0.1393700000    0.0046080000   -0.0000000000
H        0.1360680000   -0.0280870000   -0.0000000000
H        0.1350660000    0.0261180000    0.0000000000
H        0.1349690000    0.0031440000   -0.0000000000
C       -0.0523940000    0.0779550000    0.0000000000
H        0.1332310000   -0.0021260000    0.0000000000
13   
Frame  22 IRC: Energy =  -286.8472300000 ; +7.6104 kcal/mol
C       -0.2830140000    0.0639310000    0.0000000000
C       -0.0416630000   -0.1311360000   -0.0000000000
C       -0.1579000000    0.9321200000   -0.0000000000
C       -0.0057120000   -0.1094150000    0.0000000000
C       -0.1211580000   -0.0404090000   -0.0000000000
N       -0.1587430000    0.2003110000   -0.0000000000
H        0.1427950000    0.0019200000    0.0000000000
H        0.1383890000    0.0038220000   -0.0000000000
H        0.1396050000   -0.0327500000   -0.0000000000
H        0.1342290000    0.0249910000    0.0000000000
H        0.1366890000    0.0036760000   -0.0000000000
C       -0.0563450000    0.0854090000    0.0000000000
H        0.1328280000   -0.0024690000    0.0000000000
13   
Frame  23 IRC: Energy =  -286.8425870000 ; +10.5240 kcal/mol
C       -0.2756510000    0.0416380000    0.0000000000
C       -0.0379780000   -0.1117210000   -0.0000000000
C       -0.1551740000    0.8710140000   -0.0000000000
C        0.0117410000   -0.0974390000    0.0000000000
C       -0.1543150000   -0.0843950000   -0.0000000000
N       -0.1513320000    0.2948860000   -0.0000000000
H        0.1421670000    0.0013490000    0.0000000000
H        0.1371620000    0.0026590000   -0.0000000000
H        0.1418810000   -0.0343030000   -0.0000000000
H        0.1331340000    0.0226240000    0.0000000000
H        0.1383890000    0.0041660000   -0.0000000000
C       -0.0622660000    0.0925070000    0.0000000000
H        0.1322400000   -0.0029830000    0.0000000000
13   
Frame  24 IRC: Energy =  -286.8384500000 ; +13.1200 kcal/mol
C       -0.2733130000    0.0127600000    0.0000000000
C       -0.0311670000   -0.0781300000   -0.0000000000
C       -0.1492160000    0.7471170000   -0.0000000000
C        0.0303170000   -0.0682180000    0.0000000000
C       -0.1970290000   -0.1296130000   -0.0000000000
N       -0.1349220000    0.4291310000   -0.0000000000
H        0.1413900000    0.0008870000    0.0000000000
H        0.1358190000    0.0010140000   -0.0000000000
H        0.1423390000   -0.0309590000   -0.0000000000
H        0.1318950000    0.0181930000    0.0000000000
H        0.1401580000    0.0043100000   -0.0000000000
C       -0.0676420000    0.0973140000    0.0000000000
H        0.1313700000   -0.0038060000    0.0000000000
13   
Frame  25 IRC: Energy =  -286.8367410000 ; +14.1924 kcal/mol (Transition State)
C       -0.2760160000   -0.0192870000    0.0000000000
C       -0.0239230000   -0.0319820000   -0.0000000000
C       -0.1397430000    0.5611260000   -0.0000000000
C        0.0426620000   -0.0253980000    0.0000000000
C       -0.2390560000   -0.1475240000   -0.0000000000
N       -0.1108740000    0.5764810000   -0.0000000000
H        0.1407880000    0.0007260000    0.0000000000
H        0.1345970000   -0.0006990000   -0.0000000000
H        0.1407430000   -0.0231710000   -0.0000000000
H        0.1306960000    0.0120210000    0.0000000000
H        0.1410730000    0.0035990000   -0.0000000000
C       -0.0714610000    0.0985960000    0.0000000000
H        0.1305130000   -0.0044890000    0.0000000000
13   
Frame  26 IRC: Energy =  -286.8383710000 ; +13.1696 kcal/mol
C       -0.2820220000   -0.0475920000    0.0000000000
C       -0.0185490000    0.0154040000   -0.0000000000
C       -0.1247400000    0.3624490000   -0.0000000000
C        0.0412110000    0.0176940000    0.0000000000
C       -0.2685760000   -0.1309260000   -0.0000000000
N       -0.0876930000    0.6971330000   -0.0000000000
H        0.1406290000    0.0008480000    0.0000000000
H        0.1337150000   -0.0018320000   -0.0000000000
H        0.1376180000   -0.0140830000   -0.0000000000
H        0.1301560000    0.0058930000    0.0000000000
H        0.1410760000    0.0023870000   -0.0000000000
C       -0.0728940000    0.0970660000    0.0000000000
H        0.1300690000   -0.0044410000    0.0000000000
13   
Frame  27 IRC: Energy =  -286.8419060000 ; +10.9513 kcal/mol
C       -0.2884490000   -0.0669600000    0.0000000000
C       -0.0206000000    0.0525230000   -0.0000000000
C       -0.0985220000    0.2091620000   -0.0000000000
C        0.0211320000    0.0501120000    0.0000000000
C       -0.2833050000   -0.1040070000   -0.0000000000
N       -0.0732680000    0.7726510000   -0.0000000000
H        0.1407730000    0.0010370000    0.0000000000
H        0.1333140000   -0.0021300000   -0.0000000000
H        0.1343750000   -0.0071360000   -0.0000000000
H        0.1307670000    0.0014830000    0.0000000000
H        0.1407510000    0.0015220000   -0.0000000000
C       -0.0669900000    0.0954300000    0.0000000000
H        0.1300210000   -0.0036870000    0.0000000000
13   
Frame  28 IRC: Energy =  -286.8445800000 ; +9.2733 kcal/mol
C       -0.2915640000   -0.0775160000    0.0000000000
C       -0.0282450000    0.0760770000   -0.0000000000
C       -0.0665130000    0.1176480000   -0.0000000000
C       -0.0110230000    0.0736700000    0.0000000000
C       -0.2881780000   -0.0853100000   -0.0000000000
N       -0.0687930000    0.8077830000   -0.0000000000
H        0.1411700000    0.0010870000    0.0000000000
H        0.1330750000   -0.0019770000   -0.0000000000
H        0.1317090000   -0.0031920000   -0.0000000000
H        0.1322400000   -0.0011790000    0.0000000000
H        0.1407020000    0.0012110000   -0.0000000000
C       -0.0549470000    0.0944590000    0.0000000000
H        0.1303670000   -0.0027620000    0.0000000000
13   
Frame  29 IRC: Energy =  -286.8450260000 ; +8.9935 kcal/mol
C       -0.2888340000   -0.0795060000    0.0000000000
C       -0.0353870000    0.0824260000   -0.0000000000
C       -0.0519690000    0.0983810000   -0.0000000000
C       -0.0221570000    0.0803350000    0.0000000000
C       -0.2920010000   -0.0814200000   -0.0000000000
N       -0.0689750000    0.8129900000   -0.0000000000
H        0.1412890000    0.0010700000    0.0000000000
H        0.1326950000   -0.0019730000   -0.0000000000
H        0.1313960000   -0.0024610000   -0.0000000000
H        0.1326400000   -0.0017600000    0.0000000000
H        0.1408950000    0.0011610000   -0.0000000000
C       -0.0502220000    0.0932290000    0.0000000000
H        0.1306310000   -0.0024720000    0.0000000000
13   
Frame  30 IRC: Energy =  -286.8452190000 ; +8.8724 kcal/mol
C       -0.2868450000   -0.0797400000    0.0000000000
C       -0.0370250000    0.0844850000   -0.0000000000
C       -0.0486660000    0.0948590000   -0.0000000000
C       -0.0254730000    0.0829070000    0.0000000000
C       -0.2935400000   -0.0812300000   -0.0000000000
N       -0.0692480000    0.8132760000   -0.0000000000
H        0.1413860000    0.0010630000    0.0000000000
H        0.1323740000   -0.0020140000   -0.0000000000
H        0.1313390000   -0.0023550000   -0.0000000000
H        0.1324900000   -0.0019230000    0.0000000000
H        0.1409240000    0.0011380000   -0.0000000000
C       -0.0485810000    0.0919150000    0.0000000000
H        0.1308660000   -0.0023810000    0.0000000000
13   
Frame  31 IRC: Energy =  -286.8452760000 ; +8.8366 kcal/mol
C       -0.2868440000   -0.0798190000    0.0000000000
C       -0.0388960000    0.0851080000   -0.0000000000
C       -0.0456990000    0.0930850000   -0.0000000000
C       -0.0278070000    0.0832380000    0.0000000000
C       -0.2939650000   -0.0806880000   -0.0000000000
N       -0.0692680000    0.8142770000   -0.0000000000
H        0.1413820000    0.0010600000    0.0000000000
H        0.1322450000   -0.0020250000   -0.0000000000
H        0.1315240000   -0.0022930000   -0.0000000000
H        0.1323790000   -0.0019440000    0.0000000000
H        0.1410740000    0.0011190000   -0.0000000000
C       -0.0470620000    0.0912070000    0.0000000000
H        0.1309340000   -0.0023250000    0.0000000000
13   
Frame  32 IRC: Energy =  -286.8453480000 ; +8.7914 kcal/mol
C       -0.2870260000   -0.0798580000    0.0000000000
C       -0.0385810000    0.0856850000   -0.0000000000
C       -0.0455180000    0.0921430000   -0.0000000000
C       -0.0297780000    0.0844140000    0.0000000000
C       -0.2934090000   -0.0807130000   -0.0000000000
N       -0.0694310000    0.8142680000   -0.0000000000
H        0.1414470000    0.0010580000    0.0000000000
H        0.1321440000   -0.0020490000   -0.0000000000
H        0.1315010000   -0.0022630000   -0.0000000000
H        0.1323220000   -0.0019920000    0.0000000000
H        0.1410970000    0.0011070000   -0.0000000000
C       -0.0458730000    0.0904920000    0.0000000000
H        0.1311060000   -0.0022930000    0.0000000000
13   
Frame  33 IRC: Energy =  -286.8453740000 ; +8.7751 kcal/mol
C       -0.2871730000   -0.0798470000    0.0000000000
C       -0.0399010000    0.0859430000   -0.0000000000
C       -0.0433820000    0.0911850000   -0.0000000000
C       -0.0317490000    0.0847130000    0.0000000000
C       -0.2935160000   -0.0804590000   -0.0000000000
N       -0.0694010000    0.8148560000   -0.0000000000
H        0.1414260000    0.0010580000    0.0000000000
H        0.1320460000   -0.0020540000   -0.0000000000
H        0.1316180000   -0.0022280000   -0.0000000000
H        0.1321970000   -0.0020030000    0.0000000000
H        0.1411900000    0.0010960000   -0.0000000000
C       -0.0445090000    0.0900010000    0.0000000000
H        0.1311540000   -0.0022610000    0.0000000000
13   
Frame  34 IRC: Energy =  -286.8454100000 ; +8.7525 kcal/mol
C       -0.2873340000   -0.0799030000    0.0000000000
C       -0.0397360000    0.0864140000   -0.0000000000
C       -0.0433390000    0.0906200000   -0.0000000000
C       -0.0330380000    0.0855430000    0.0000000000
C       -0.2930040000   -0.0804790000   -0.0000000000
N       -0.0695110000    0.8146790000   -0.0000000000
H        0.1414460000    0.0010580000    0.0000000000
H        0.1319950000   -0.0020760000   -0.0000000000
H        0.1316180000   -0.0022140000   -0.0000000000
H        0.1321760000   -0.0020360000    0.0000000000
H        0.1412120000    0.0010880000   -0.0000000000
C       -0.0437710000    0.0895490000    0.0000000000
H        0.1312870000   -0.0022430000    0.0000000000
13   
Frame  35 IRC: Energy =  -286.8454210000 ; +8.7456 kcal/mol
C       -0.2875860000   -0.0798720000    0.0000000000
C       -0.0405950000    0.0865640000   -0.0000000000
C       -0.0419000000    0.0899880000   -0.0000000000
C       -0.0345900000    0.0857410000    0.0000000000
C       -0.2929770000   -0.0803260000   -0.0000000000
N       -0.0694680000    0.8151350000   -0.0000000000
H        0.1414320000    0.0010580000    0.0000000000
H        0.1319320000   -0.0020770000   -0.0000000000
H        0.1316830000   -0.0021900000   -0.0000000000
H        0.1320640000   -0.0020420000    0.0000000000
H        0.1412620000    0.0010830000   -0.0000000000
C       -0.0425800000    0.0891560000    0.0000000000
H        0.1313220000   -0.0022180000    0.0000000000
13   
Frame  36 IRC: Energy =  -286.8454390000 ; +8.7343 kcal/mol
C       -0.2876870000   -0.0799430000    0.0000000000
C       -0.0406720000    0.0870040000   -0.0000000000
C       -0.0417480000    0.0896010000   -0.0000000000
C       -0.0356470000    0.0863870000    0.0000000000
C       -0.2925020000   -0.0803400000   -0.0000000000
N       -0.0695450000    0.8148720000   -0.0000000000
H        0.1414280000    0.0010590000    0.0000000000
H        0.1319030000   -0.0020990000   -0.0000000000
H        0.1317030000   -0.0021810000   -0.0000000000
H        0.1320480000   -0.0020690000    0.0000000000
H        0.1412850000    0.0010780000   -0.0000000000
C       -0.0419910000    0.0888380000    0.0000000000
H        0.1314250000   -0.0022050000    0.0000000000
13   
Frame  37 IRC: Energy =  -286.8454440000 ; +8.7312 kcal/mol
C       -0.2879570000   -0.0799030000    0.0000000000
C       -0.0411290000    0.0870650000   -0.0000000000
C       -0.0409040000    0.0891770000   -0.0000000000
C       -0.0366320000    0.0864620000    0.0000000000
C       -0.2924820000   -0.0802330000   -0.0000000000
N       -0.0695030000    0.8152690000   -0.0000000000
H        0.1414230000    0.0010590000    0.0000000000
H        0.1318650000   -0.0020970000   -0.0000000000
H        0.1317300000   -0.0021650000   -0.0000000000
H        0.1319670000   -0.0020710000    0.0000000000
H        0.1413120000    0.0010750000   -0.0000000000
C       -0.0411370000    0.0885470000    0.0000000000
H        0.1314480000   -0.0021860000    0.0000000000
