
Running Job 1 of 1 irc_reactant.in
qchem irc_reactant.in_41706.0 ./irc_reactant.d/ 1
/home/leeping/opt/qchem/5.0.2-openmp/exe/qcprog.exe_s irc_reactant.in_41706.0 ./irc_reactant.d/
Check license passed

                  Welcome to Q-Chem
     A Quantum Leap Into The Future Of Chemistry


 Q-Chem 5.0, Q-Chem, Inc., Pleasanton, CA (2017)

 Yihan Shao,  Zhengting Gan,  E. Epifanovsky,  A. T. B. Gilbert,  M. Wormit,  
 J. Kussmann,  A. W. Lange,  A. Behn,  Jia Deng,  Xintian Feng,  D. Ghosh,  
 M. Goldey,  P. R. Horn,  L. D. Jacobson,  I. Kaliman,  T. Kus,  A. Landau,  
 Jie Liu,  E. I. Proynov,  R. M. Richard,  R. P. Steele,  E. J. Sundstrom,  
 H. L. Woodcock III,  P. M. Zimmerman,  D. Zuev,  B. Albrecht,  E. Alguire,  
 S. A. Baeppler,  D. Barton,  Z. Benda,  Y. A. Bernard,  E. J. Berquist,  
 K. B. Bravaya,  H. Burton,  D. Casanova,  Chun-Min Chang,  Yunqing Chen,  
 A. Chien,  K. D. Closser,  M. P. Coons,  S. Dasgupta,  A. L. Dempwolff,  
 M. Diedenhofen,  Hainam Do,  R. G. Edgar,  Po-Tung Fang,  S. Fatehi,  
 Qingguo Feng,  J. Fosso-Tande,  Qinghui Ge,  A. Ghysels,  G. Gidofalvi,  
 J. Gomes,  J. Gonthier,  A. Gunina,  M. W. D. Hanson-Heine,  
 P. H. P. Harbach,  A. W. Hauser,  J. E. Herr,  E. G. Hohenstein,  
 Z. C. Holden,  Kerwin Hui,  T.-C. Jagau,  Hyunjun Ji,  B. Kaduk,  
 K. Khistyaev,  Jaehoon Kim,  P. Klunzinger,  K. Koh,  D. Kosenkov,  
 L. Koulias,  T. Kowalczyk,  C. M. Krauter,  A. Kunitsa,  Ka Un Lao,  
 A. Laurent,  K. V. Lawler,  Joonho Lee,  D. Lefrancois,  S. Lehtola,  
 D. S. Levine,  Yi-Pei Li,  You-Sheng Lin,  Fenglai Liu,  E. Livshits,  
 A. Luenser,  P. Manohar,  E. Mansoor,  S. F. Manzer,  Shan-Ping Mao,  
 Yuezhi Mao,  N. Mardirossian,  A. V. Marenich,  T. Markovich,  
 L. A. Martinez-Martinez,  S. A. Maurer,  N. J. Mayhall,  S. C. McKenzie,  
 J.-M. Mewes,  A. F. Morrison,  J. W. Mullinax,  K. Nanda,  
 T. S. Nguyen-Beck,  R. Olivares-Amaya,  J. A. Parkhill,  T. M. Perrine,  
 F. Plasser,  S. Prager,  A. Prociuk,  E. Ramos,  D. R. Rehn,  F. Rob,  
 M. Schneider,  N. Sergueev,  S. M. Sharada,  S. Sharma,  D. W. Small,  
 T. Stauch,  T. Stein,  Yu-Chuan Su,  A. J. W. Thom,  A. Tkatchenko,  
 T. Tsuchimochi,  L. Vogt,  O. Vydrov,  M. A. Watson,  J. Wenzel,  
 M. de Wergifosse,  T. A. Wesolowski,  A. White,  J. Witte,  A. Yamada,  
 Jun Yang,  K. Yao,  S. Yeganeh,  S. R. Yost,  Zhi-Qiang You,  A. Zech,  
 Igor Ying Zhang,  Xing Zhang,  Yan Zhao,  Ying Zhu,  B. R. Brooks,  
 G. K. L. Chan,  C. J. Cramer,  M. S. Gordon,  W. J. Hehre,  A. Klamt,  
 M. W. Schmidt,  C. D. Sherrill,  D. G. Truhlar,  A. Aspuru-Guzik,  R. Baer,  
 A. T. Bell,  N. A. Besley,  Jeng-Da Chai,  R. A. DiStasio Jr.,  A. Dreuw,  
 B. D. Dunietz,  T. R. Furlani,  Chao-Ping Hsu,  Yousung Jung,  Jing Kong,  
 D. S. Lambrecht,  WanZhen Liang,  C. Ochsenfeld,  V. A. Rassolov,  
 L. V. Slipchenko,  J. E. Subotnik,  T. Van Voorhis,  J. M. Herbert,  
 A. I. Krylov,  P. M. W. Gill,  M. Head-Gordon

 Contributors to earlier versions of Q-Chem not listed above: 
 R. D. Adamson,  B. Austin,  J. Baker,  G. J. O. Beran,  K. Brandhorst,  
 S. T. Brown,  E. F. C. Byrd,  A. K. Chakraborty,  C.-L. Cheng,  
 Siu Hung Chien,  D. M. Chipman,  D. L. Crittenden,  H. Dachsel,  
 R. J. Doerksen,  A. D. Dutoi,  L. Fusti-Molnar,  W. A. Goddard III,  
 A. Golubeva-Zadorozhnaya,  S. R. Gwaltney,  G. Hawkins,  A. Heyden,  
 S. Hirata,  G. Kedziora,  F. J. Keil,  C. Kelley,  Jihan Kim,  R. A. King,  
 R. Z. Khaliullin,  P. P. Korambath,  W. Kurlancheek,  A. M. Lee,  M. S. Lee,  
 S. V. Levchenko,  Ching Yeh Lin,  D. Liotard,  R. C. Lochan,  I. Lotan,  
 P. E. Maslen,  N. Nair,  D. P. O'Neill,  D. Neuhauser,  E. Neuscamman,  
 C. M. Oana,  R. Olson,  B. Peters,  R. Peverati,  P. A. Pieniazek,  
 Y. M. Rhee,  J. Ritchie,  M. A. Rohrdanz,  E. Rosta,  N. J. Russ,  
 H. F. Schaefer III,  N. E. Schultz,  N. Shenvi,  A. C. Simmonett,  A. Sodt,  
 D. Stuck,  K. S. Thanthiriwatte,  V. Vanovschi,  Tao Wang,  A. Warshel,  
 C. F. Williams,  Q. Wu,  X. Xu,  W. Zhang

 Please cite Q-Chem as follows:
 Y. Shao et al., Mol. Phys. 113, 184-215 (2015)
 DOI: 10.1080/00268976.2014.952696

 Q-Chem 5.0.2 for Intel X86 EM64T Linux

 Parts of Q-Chem use Armadillo 5.200.1 (Boston Tea Smuggler).
 http://arma.sourceforge.net/

 Q-Chem begins on Wed Mar  2 02:51:36 2022  

Host: 
0

     Scratch files written to ./irc_reactant.d//
 Dec517 15110_ 26548  26544 5633   
Processing $rem in /home/leeping/opt/qchem/5.0.2-openmp/config/preferences.
 MEM_STATIC 2000
 MEM_TOTAL  8000
 SYMMETRY   OFF
 SYM_IGNORE TRUE 

Checking the input file for inconsistencies... 	...done.

--------------------------------------------------------------
User input:
--------------------------------------------------------------
$molecule
0 2
C        1.2492467599    0.2399271577    0.2518696042
C        0.5665165042   -1.1291107371   -0.2137731352
C       -0.7465313887   -0.8794381671   -0.7924339112
C       -1.0525385066    0.2225248534    0.2198319462
C       -0.4365393380    1.4758324814   -0.3885640269
N        0.8482919169    1.4553704079   -0.4100963746
H        2.2883692382    0.1483321757    0.5478890154
H        1.2045607104   -1.9985066332   -0.3292567308
H       -1.1636075705   -1.0702896872   -1.7778245157
H       -2.0578052420    0.3021627473    0.6377902282
H       -1.0066119584    2.2538801971   -0.8919196790
C        0.1487491307   -0.3520547596    1.0542026758
H        0.1578997443   -0.6686300362    2.0922849041
$end

$rem
method                b3lyp
basis                 6-31+g(d,p)
unrestricted          true
symmetry              off
sym_ignore            true
incdft                false
incfock               0
scf_convergence       6
thresh                14
jobtype               sp
scf_guess             read
scf_algorithm         diis
max_scf_cycles        100
stability_analysis    true
max_cis_cycles        100
cis_n_roots           4
$end

--------------------------------------------------------------
 ----------------------------------------------------------------
             Standard Nuclear Orientation (Angstroms)
    I     Atom           X                Y                Z
 ----------------------------------------------------------------
    1      C       1.2492467599     0.2399271577     0.2518696042
    2      C       0.5665165042    -1.1291107371    -0.2137731352
    3      C      -0.7465313887    -0.8794381671    -0.7924339112
    4      C      -1.0525385066     0.2225248534     0.2198319462
    5      C      -0.4365393380     1.4758324814    -0.3885640269
    6      N       0.8482919169     1.4553704079    -0.4100963746
    7      H       2.2883692382     0.1483321757     0.5478890154
    8      H       1.2045607104    -1.9985066332    -0.3292567308
    9      H      -1.1636075705    -1.0702896872    -1.7778245157
   10      H      -2.0578052420     0.3021627473     0.6377902282
   11      H      -1.0066119584     2.2538801971    -0.8919196790
   12      C       0.1487491307    -0.3520547596     1.0542026758
   13      H       0.1578997443    -0.6686300362     2.0922849041
 ----------------------------------------------------------------
 Nuclear Repulsion Energy =   282.1679433830 hartrees
 There are       25 alpha and       24 beta electrons
 Requested basis set is 6-31+G(d,p)
 There are 53 shells and 163 basis functions

 Total QAlloc Memory Limit   8000 MB
 Mega-Array Size      1956 MB
 MEM_STATIC part      2000 MB

                       Distance Matrix (Angstroms)
             C (  1)   C (  2)   C (  3)   C (  4)   C (  5)   N (  6)
   C (  2)  1.599127
   C (  3)  2.515289  1.456461
   C (  4)  2.302074  2.153200  1.527300
   C (  5)  2.186205  2.796856  2.409669  1.523280
   N (  6)  1.440925  2.607198  2.853239  2.351568  1.285175
   H (  7)  1.084340  2.275251  3.473240  3.357795  3.172433  2.167927
   H (  8)  2.313069  1.084567  2.296434  3.213872  3.842884  3.473144
   H (  9)  3.414410  2.333034  1.086909  2.382087  2.990219  3.506762
   H ( 10)  3.330075  3.108178  2.271819  1.091601  2.249313  3.297477
   H ( 11)  3.233135  3.791997  3.145667  2.316140  1.087983  2.076160
   C ( 12)  1.485017  1.544703  2.118898  1.571435  2.401106  2.429057
   H ( 13)  2.324574  2.386821  3.030518  2.401124  3.332670  3.354092
             H (  7)   H (  8)   H (  9)   H ( 10)   H ( 11)   C ( 12)
   H (  8)  2.559872
   H (  9)  4.337064  2.927141
   H ( 10)  4.349825  4.107468  2.918631
   H ( 11)  4.166927  4.825833  3.443774  2.693366
   C ( 12)  2.254931  2.395726  3.202892  2.338863  3.451543
   H ( 13)  2.755265  2.954308  4.109192  2.822648  4.336200  1.085319

 
 A cutoff of  1.0D-14 yielded   1404 shell pairs
 There are     13520 function pairs
 Smallest overlap matrix eigenvalue = 2.33E-05

 Scale SEOQF with 1.000000e-01/1.000000e-01/1.000000e-01

 Standard Electronic Orientation quadrupole field applied
 Nucleus-field energy     =     0.0000000028 hartrees
 Guess MOs from SCF MO coefficient file
 Reading MOs from coefficient file
 Reading MOs from coefficient file
 An unrestricted hybrid HF-DFT SCF calculation will be
 performed using Pulay DIIS extrapolation
 Exchange:     0.2000 Hartree-Fock + 0.0800 Slater + 0.7200 B88
 Correlation:  0.1900 VWN1RPA + 0.8100 LYP
 Using SG-1 standard quadrature grid
 SCF converges when DIIS error is below 1.0E-06
Using Q-Chem read-in guess as SCF_GUESS READ specified.

 -------------------------------------------------------
 OpenMP BLAS3 based DFT computing Module                
 -------------------------------------------------------
 ---------------------------------------
  Cycle       Energy         DIIS Error
 ---------------------------------------
    1    -286.8593575594      1.04E-09
    2    -286.8593575594      1.06E-09 Convergence criterion met
 ---------------------------------------
 <S^2> = 0.7567
 SCF time:  CPU 6.53 s  wall 10.86 s
 SCF   energy in the final basis set = -286.85935756
 Total energy in the final basis set = -286.85935756
 
 Direct TDDFT/TDA calculation will be performed
 Exchange:     0.2000 Hartree-Fock + 0.0800 Slater + 0.7200 B88
 Correlation:  0.1900 VWN1RPA + 0.8100 LYP
 Using SG-1 standard quadrature grid
 CIS energy converged when residual is below 10e- 6
 ---------------------------------------------------
 Iter    Rts Conv    Rts Left    Ttl Dev     Max Dev
 ---------------------------------------------------
   1         0           4      0.003585    0.001133
   2         0           4      0.001073    0.000381
   3         0           4      0.000556    0.000273
   4         0           4      0.000256    0.000119
   5         0           4      0.000101    0.000052
   6         0           4      0.000030    0.000015
   7         0           4      0.000007    0.000003
   8         4           0      0.000002    0.000001    Roots Converged
 ---------------------------------------------------
 
 ---------------------------------------------------
         TDDFT/TDA Excitation Energies              
 ---------------------------------------------------

 Excited state   1: excitation energy (eV) =    3.5212
 Total energy for state  1:                  -286.72995570 au
    <S**2>     :  1.0007
    Trans. Mom.:  0.0126 X  -0.3717 Y   0.0114 Z
    Strength   :     0.0119468394
    S(  1) --> V(  1) amplitude =  0.8302 alpha
    D( 23) --> S(  1) amplitude = -0.3785 beta
    D( 24) --> S(  1) amplitude =  0.3382 beta

 Excited state   2: excitation energy (eV) =    3.5377
 Total energy for state  2:                  -286.72935093 au
    <S**2>     :  1.1477
    Trans. Mom.:  0.0512 X   0.0742 Y  -0.0741 Z
    Strength   :     0.0011794676
    D( 24) --> V(  1) amplitude =  0.2137 alpha
    S(  1) --> V(  1) amplitude = -0.2848 alpha
    D( 23) --> S(  1) amplitude =  0.2353 beta
    D( 24) --> S(  1) amplitude =  0.8725 beta

 Excited state   3: excitation energy (eV) =    4.0918
 Total energy for state  3:                  -286.70898789 au
    <S**2>     :  0.8719
    Trans. Mom.: -0.1838 X  -0.5120 Y  -0.0985 Z
    Strength   :     0.0306415516
    S(  1) --> V(  1) amplitude =  0.4407 alpha
    D( 23) --> S(  1) amplitude =  0.8530 beta
    D( 23) --> V(  1) amplitude = -0.1520 beta

 Excited state   4: excitation energy (eV) =    4.4336
 Total energy for state  4:                  -286.69642569 au
    <S**2>     :  0.8132
    Trans. Mom.:  0.0346 X   0.1078 Y  -0.1040 Z
    Strength   :     0.0025678793
    S(  1) --> V(  2) amplitude =  0.9838 alpha
 
 ---------------------------------------------------

 Stability analysis will be performed
 ---------------------------------------------------
 Iter    Rts Conv    Rts Left    Ttl Dev     Max Dev
 ---------------------------------------------------
   1         0           8      0.003793    0.000660
   2         0           8      0.001798    0.000879
   3         0           8      0.001807    0.000786
   4         0           8      0.000878    0.000327
   5         3           5      0.000353    0.000145
   6         4           4      0.000145    0.000061
   7         4           4      0.000049    0.000022
   8         5           3      0.000019    0.000009
   9         6           2      0.000007    0.000003
  10         8           0      0.000003    0.000001    Roots Converged
 UKS-> UKS   stable,    smallest eigenvalue:      0.0981179
 UKS->CUKS   stable,    smallest eigenvalue:      0.1307554
 ---------------------------------------------------
  SETman timing summary (seconds)
  CPU time               184.07s
  System time              0.00s
  Wall time              257.51s
 
 --------------------------------------------------------------
 
                    Orbital Energies (a.u.)
 --------------------------------------------------------------
 
 Alpha MOs
 -- Occupied --
-14.334 -10.234 -10.230 -10.220 -10.219 -10.218 -10.217  -0.979
 -0.866  -0.759  -0.674  -0.615  -0.580  -0.543  -0.525  -0.475
 -0.448  -0.415  -0.410  -0.366  -0.347  -0.308  -0.285  -0.267
 -0.193
 -- Virtual --
 -0.018   0.002   0.016   0.020   0.032   0.045   0.047   0.059
  0.072   0.074   0.080   0.092   0.103   0.109   0.112   0.114
  0.125   0.139   0.146   0.162   0.165   0.175   0.183   0.186
  0.188   0.194   0.211   0.215   0.227   0.240   0.246   0.254
  0.260   0.263   0.284   0.292   0.301   0.322   0.331   0.338
  0.358   0.386   0.421   0.454   0.617   0.662   0.675   0.689
  0.706   0.724   0.732   0.745   0.752   0.767   0.784   0.789
  0.804   0.811   0.820   0.871   0.902   0.920   0.931   0.981
  0.991   1.030   1.040   1.044   1.078   1.089   1.103   1.158
  1.232   1.262   1.321   1.389   1.412   1.467   1.483   1.496
  1.548   1.583   1.643   1.685   1.691   1.775   1.800   1.852
  1.909   1.919   1.969   1.971   2.020   2.081   2.114   2.141
  2.160   2.184   2.228   2.307   2.349   2.360   2.370   2.400
  2.416   2.447   2.465   2.483   2.500   2.513   2.543   2.563
  2.569   2.592   2.615   2.639   2.684   2.719   2.765   2.801
  2.822   2.873   2.997   3.040   3.093   3.270   3.332   3.370
  3.528   3.548   3.647   4.180   4.428   4.457   4.598   4.614
  4.657   4.880
 
 Beta MOs
 -- Occupied --
-14.333 -10.232 -10.230 -10.220 -10.219 -10.217 -10.205  -0.975
 -0.861  -0.752  -0.662  -0.611  -0.576  -0.536  -0.519  -0.470
 -0.443  -0.412  -0.404  -0.358  -0.342  -0.301  -0.274  -0.261
 -- Virtual --
 -0.079  -0.007   0.003   0.016   0.020   0.036   0.046   0.047
  0.059   0.073   0.078   0.082   0.094   0.105   0.110   0.113
  0.117   0.128   0.140   0.148   0.162   0.167   0.177   0.185
  0.188   0.191   0.195   0.211   0.220   0.233   0.242   0.249
  0.256   0.263   0.265   0.287   0.296   0.303   0.323   0.334
  0.341   0.362   0.389   0.427   0.460   0.620   0.670   0.687
  0.699   0.709   0.729   0.740   0.751   0.757   0.774   0.790
  0.801   0.808   0.814   0.825   0.873   0.905   0.923   0.934
  0.983   0.995   1.033   1.043   1.047   1.082   1.093   1.110
  1.165   1.235   1.267   1.327   1.391   1.414   1.476   1.489
  1.505   1.553   1.589   1.647   1.688   1.699   1.781   1.806
  1.866   1.913   1.927   1.975   1.979   2.025   2.087   2.128
  2.153   2.164   2.189   2.231   2.311   2.354   2.363   2.374
  2.405   2.421   2.454   2.467   2.489   2.506   2.519   2.546
  2.566   2.578   2.598   2.621   2.644   2.688   2.724   2.772
  2.804   2.825   2.876   3.000   3.044   3.095   3.272   3.334
  3.375   3.530   3.553   3.651   4.182   4.446   4.459   4.601
  4.618   4.662   4.885
 --------------------------------------------------------------
 
          Ground-State Mulliken Net Atomic Charges

     Atom                 Charge (a.u.)    Spin (a.u.)
  --------------------------------------------------------
      1 C                    -0.290125       0.110361
      2 C                    -0.051037      -0.155131
      3 C                    -0.155595       0.978969
      4 C                    -0.023973      -0.112954
      5 C                    -0.059123       0.052157
      6 N                    -0.169006       0.038298
      7 H                     0.144335       0.003083
      8 H                     0.139131       0.005448
      9 H                     0.129605      -0.020169
     10 H                     0.134613       0.024768
     11 H                     0.131414       0.000987
     12 C                    -0.062716       0.074208
     13 H                     0.132477      -0.000025
  --------------------------------------------------------
  Sum of atomic charges =    -0.000000
  Sum of spin   charges =     1.000000

 -----------------------------------------------------------------
                    Cartesian Multipole Moments
 -----------------------------------------------------------------
    Charge (ESU x 10^10)
                -0.0000
    Dipole Moment (Debye)
         X      -1.2595      Y      -1.5592      Z       0.9676
       Tot       2.2257
    Quadrupole Moments (Debye-Ang)
        XX     -39.8310     XY      -5.7202     YY     -44.6979
        XZ       2.4190     YZ       0.7368     ZZ     -40.5943
    Octopole Moments (Debye-Ang^2)
       XXX      -7.4940    XXY      -7.5677    XYY      -8.5393
       YYY     -20.1273    XXZ       4.6686    XYZ       2.7247
       YYZ       0.9565    XZZ      -6.0924    YZZ      -8.6205
       ZZZ       7.8930
    Hexadecapole Moments (Debye-Ang^3)
      XXXX    -232.4016   XXXY     -14.0274   XXYY     -98.8763
      XYYY     -31.9618   YYYY    -321.6898   XXXZ      -9.7818
      XXYZ       6.1139   XYYZ       1.6421   YYYZ      10.3668
      XXZZ     -67.2683   XYZZ      -3.2845   YYZZ     -77.8626
      XZZZ      -9.3990   YZZZ      10.4102   ZZZZ    -150.1291
 -----------------------------------------------------------------
Archival summary:
1\1\c8-66\SP\ProcedureUnspecified\6-31+G**\166(2)\hpark21\WedMar202:56:132022WedMar202:56:132022\0\\#,ProcedureUnspecified,6-31+G**,\\0,2\N\C,1,1.28517\H,2,1.08798,1,121.834\C,1,1.44093,2,106.494,3,-175.243,0\H,4,1.08434,1,117.602,2,-165.666,0\C,4,1.48502,1,112.226,2,-16.5196,0\H,6,1.08532,4,128.814,1,-128.672,0\C,2,1.52328,1,113.445,3,171.635,0\H,8,1.0916,2,117.73,1,156.217,0\C,8,1.5273,2,104.353,1,-68.7919,0\H,10,1.08691,8,130.593,2,-72.2925,0\C,10,1.45646,8,92.349,2,85.5558,0\H,12,1.08457,10,128.717,8,161.938,0\\\@

 Total job time:  276.23s(wall), 190.84s(cpu) 
 Wed Mar  2 02:56:13 2022

        *************************************************************
        *                                                           *
        *  Thank you very much for using Q-Chem.  Have a nice day.  *
        *                                                           *
        *************************************************************


