13   
Frame   0 IRC: Energy =  -286.8593580000 ; +0.0000 kcal/mol
C        1.2492467599    0.2399271577    0.2518696042
C        0.5665165042   -1.1291107371   -0.2137731352
C       -0.7465313887   -0.8794381671   -0.7924339112
C       -1.0525385066    0.2225248534    0.2198319462
C       -0.4365393380    1.4758324814   -0.3885640269
N        0.8482919169    1.4553704079   -0.4100963746
H        2.2883692382    0.1483321757    0.5478890154
H        1.2045607104   -1.9985066332   -0.3292567308
H       -1.1636075705   -1.0702896872   -1.7778245157
H       -2.0578052420    0.3021627473    0.6377902282
H       -1.0066119584    2.2538801971   -0.8919196790
C        0.1487491307   -0.3520547596    1.0542026758
H        0.1578997443   -0.6686300362    2.0922849041
