
Running Job 1 of 1 irc_product.in
qchem irc_product.in_42129.0 ./irc_product.d/ 1
/home/leeping/opt/qchem/5.0.2-openmp/exe/qcprog.exe_s irc_product.in_42129.0 ./irc_product.d/
Check license passed

                  Welcome to Q-Chem
     A Quantum Leap Into The Future Of Chemistry


 Q-Chem 5.0, Q-Chem, Inc., Pleasanton, CA (2017)

 Yihan Shao,  Zhengting Gan,  E. Epifanovsky,  A. T. B. Gilbert,  M. Wormit,  
 J. Kussmann,  A. W. Lange,  A. Behn,  Jia Deng,  Xintian Feng,  D. Ghosh,  
 M. Goldey,  P. R. Horn,  L. D. Jacobson,  I. Kaliman,  T. Kus,  A. Landau,  
 Jie Liu,  E. I. Proynov,  R. M. Richard,  R. P. Steele,  E. J. Sundstrom,  
 H. L. Woodcock III,  P. M. Zimmerman,  D. Zuev,  B. Albrecht,  E. Alguire,  
 S. A. Baeppler,  D. Barton,  Z. Benda,  Y. A. Bernard,  E. J. Berquist,  
 K. B. Bravaya,  H. Burton,  D. Casanova,  Chun-Min Chang,  Yunqing Chen,  
 A. Chien,  K. D. Closser,  M. P. Coons,  S. Dasgupta,  A. L. Dempwolff,  
 M. Diedenhofen,  Hainam Do,  R. G. Edgar,  Po-Tung Fang,  S. Fatehi,  
 Qingguo Feng,  J. Fosso-Tande,  Qinghui Ge,  A. Ghysels,  G. Gidofalvi,  
 J. Gomes,  J. Gonthier,  A. Gunina,  M. W. D. Hanson-Heine,  
 P. H. P. Harbach,  A. W. Hauser,  J. E. Herr,  E. G. Hohenstein,  
 Z. C. Holden,  Kerwin Hui,  T.-C. Jagau,  Hyunjun Ji,  B. Kaduk,  
 K. Khistyaev,  Jaehoon Kim,  P. Klunzinger,  K. Koh,  D. Kosenkov,  
 L. Koulias,  T. Kowalczyk,  C. M. Krauter,  A. Kunitsa,  Ka Un Lao,  
 A. Laurent,  K. V. Lawler,  Joonho Lee,  D. Lefrancois,  S. Lehtola,  
 D. S. Levine,  Yi-Pei Li,  You-Sheng Lin,  Fenglai Liu,  E. Livshits,  
 A. Luenser,  P. Manohar,  E. Mansoor,  S. F. Manzer,  Shan-Ping Mao,  
 Yuezhi Mao,  N. Mardirossian,  A. V. Marenich,  T. Markovich,  
 L. A. Martinez-Martinez,  S. A. Maurer,  N. J. Mayhall,  S. C. McKenzie,  
 J.-M. Mewes,  A. F. Morrison,  J. W. Mullinax,  K. Nanda,  
 T. S. Nguyen-Beck,  R. Olivares-Amaya,  J. A. Parkhill,  T. M. Perrine,  
 F. Plasser,  S. Prager,  A. Prociuk,  E. Ramos,  D. R. Rehn,  F. Rob,  
 M. Schneider,  N. Sergueev,  S. M. Sharada,  S. Sharma,  D. W. Small,  
 T. Stauch,  T. Stein,  Yu-Chuan Su,  A. J. W. Thom,  A. Tkatchenko,  
 T. Tsuchimochi,  L. Vogt,  O. Vydrov,  M. A. Watson,  J. Wenzel,  
 M. de Wergifosse,  T. A. Wesolowski,  A. White,  J. Witte,  A. Yamada,  
 Jun Yang,  K. Yao,  S. Yeganeh,  S. R. Yost,  Zhi-Qiang You,  A. Zech,  
 Igor Ying Zhang,  Xing Zhang,  Yan Zhao,  Ying Zhu,  B. R. Brooks,  
 G. K. L. Chan,  C. J. Cramer,  M. S. Gordon,  W. J. Hehre,  A. Klamt,  
 M. W. Schmidt,  C. D. Sherrill,  D. G. Truhlar,  A. Aspuru-Guzik,  R. Baer,  
 A. T. Bell,  N. A. Besley,  Jeng-Da Chai,  R. A. DiStasio Jr.,  A. Dreuw,  
 B. D. Dunietz,  T. R. Furlani,  Chao-Ping Hsu,  Yousung Jung,  Jing Kong,  
 D. S. Lambrecht,  WanZhen Liang,  C. Ochsenfeld,  V. A. Rassolov,  
 L. V. Slipchenko,  J. E. Subotnik,  T. Van Voorhis,  J. M. Herbert,  
 A. I. Krylov,  P. M. W. Gill,  M. Head-Gordon

 Contributors to earlier versions of Q-Chem not listed above: 
 R. D. Adamson,  B. Austin,  J. Baker,  G. J. O. Beran,  K. Brandhorst,  
 S. T. Brown,  E. F. C. Byrd,  A. K. Chakraborty,  C.-L. Cheng,  
 Siu Hung Chien,  D. M. Chipman,  D. L. Crittenden,  H. Dachsel,  
 R. J. Doerksen,  A. D. Dutoi,  L. Fusti-Molnar,  W. A. Goddard III,  
 A. Golubeva-Zadorozhnaya,  S. R. Gwaltney,  G. Hawkins,  A. Heyden,  
 S. Hirata,  G. Kedziora,  F. J. Keil,  C. Kelley,  Jihan Kim,  R. A. King,  
 R. Z. Khaliullin,  P. P. Korambath,  W. Kurlancheek,  A. M. Lee,  M. S. Lee,  
 S. V. Levchenko,  Ching Yeh Lin,  D. Liotard,  R. C. Lochan,  I. Lotan,  
 P. E. Maslen,  N. Nair,  D. P. O'Neill,  D. Neuhauser,  E. Neuscamman,  
 C. M. Oana,  R. Olson,  B. Peters,  R. Peverati,  P. A. Pieniazek,  
 Y. M. Rhee,  J. Ritchie,  M. A. Rohrdanz,  E. Rosta,  N. J. Russ,  
 H. F. Schaefer III,  N. E. Schultz,  N. Shenvi,  A. C. Simmonett,  A. Sodt,  
 D. Stuck,  K. S. Thanthiriwatte,  V. Vanovschi,  Tao Wang,  A. Warshel,  
 C. F. Williams,  Q. Wu,  X. Xu,  W. Zhang

 Please cite Q-Chem as follows:
 Y. Shao et al., Mol. Phys. 113, 184-215 (2015)
 DOI: 10.1080/00268976.2014.952696

 Q-Chem 5.0.2 for Intel X86 EM64T Linux

 Parts of Q-Chem use Armadillo 5.200.1 (Boston Tea Smuggler).
 http://arma.sourceforge.net/

 Q-Chem begins on Wed Mar  2 02:57:45 2022  

Host: 
0

     Scratch files written to ./irc_product.d//
 Dec517 15110_ 26548  26544 5633   
Processing $rem in /home/leeping/opt/qchem/5.0.2-openmp/config/preferences.
 MEM_STATIC 2000
 MEM_TOTAL  8000
 SYMMETRY   OFF
 SYM_IGNORE TRUE 

Checking the input file for inconsistencies... 	...done.

--------------------------------------------------------------
User input:
--------------------------------------------------------------
$molecule
0 2
C        1.3066171171    0.2495066821    0.3273016824
C        0.5919526013   -1.0059755000   -0.2085288754
C       -0.6525449021   -0.3977588644   -0.9061328284
C       -1.0962696339    0.1955650325    0.4034201747
C       -0.4573765960    1.1126172798   -0.6574421102
N        0.8866973603    1.4200044116   -0.3448937814
H        2.3249194816    0.1888323168    0.6924864910
H        1.0932847117   -1.9418397766   -0.4254054185
H       -1.2297395727   -0.8126884696   -1.7241854420
H       -2.0908682386    0.3380551269    0.8087517799
H       -1.0554099860    1.8480605835   -1.1823199196
C        0.1481348486   -0.4109449737    1.1013324696
H        0.2306028086   -0.7834338490    2.1156157780
$end

$rem
method                b3lyp
basis                 6-31+g(d,p)
unrestricted          true
symmetry              off
sym_ignore            true
incdft                false
incfock               0
scf_convergence       8
thresh                14
jobtype               sp
scf_guess             core
scf_guess_mix         5
scf_algorithm         diis
max_scf_cycles        100
$end

--------------------------------------------------------------
 ----------------------------------------------------------------
             Standard Nuclear Orientation (Angstroms)
    I     Atom           X                Y                Z
 ----------------------------------------------------------------
    1      C       1.3066171171     0.2495066821     0.3273016824
    2      C       0.5919526013    -1.0059755000    -0.2085288754
    3      C      -0.6525449021    -0.3977588644    -0.9061328284
    4      C      -1.0962696339     0.1955650325     0.4034201747
    5      C      -0.4573765960     1.1126172798    -0.6574421102
    6      N       0.8866973603     1.4200044116    -0.3448937814
    7      H       2.3249194816     0.1888323168     0.6924864910
    8      H       1.0932847117    -1.9418397766    -0.4254054185
    9      H      -1.2297395727    -0.8126884696    -1.7241854420
   10      H      -2.0908682386     0.3380551269     0.8087517799
   11      H      -1.0554099860     1.8480605835    -1.1823199196
   12      C       0.1481348486    -0.4109449737     1.1013324696
   13      H       0.2306028086    -0.7834338490     2.1156157780
 ----------------------------------------------------------------
 Nuclear Repulsion Energy =   287.9430279410 hartrees
 There are       25 alpha and       24 beta electrons
 Requested basis set is 6-31+G(d,p)
 There are 53 shells and 163 basis functions

 Total QAlloc Memory Limit   8000 MB
 Mega-Array Size      1956 MB
 MEM_STATIC part      2000 MB

                       Distance Matrix (Angstroms)
             C (  1)   C (  2)   C (  3)   C (  4)   C (  5)   N (  6)
   C (  2)  1.540810
   C (  3)  2.403878  1.550920
   C (  4)  2.404697  2.160619  1.504611
   C (  5)  2.196896  2.406460  1.543105  1.540973
   N (  6)  1.413593  2.447621  2.447145  2.447730  1.413757
   H (  7)  1.083504  2.289666  3.430010  3.433386  3.227516  2.158802
   H (  8)  2.326817  1.083610  2.379749  3.170110  3.433380  3.369148
   H (  9)  3.430738  2.377633  1.083758  2.358197  2.332657  3.371449
   H ( 10)  3.432571  3.168407  2.356061  1.083431  2.327652  3.371559
   H ( 11)  3.226996  3.436218  2.298322  2.290629  1.083521  2.157845
   C ( 12)  1.541882  1.505580  2.161291  1.550316  2.404407  2.447329
   H ( 13)  2.328699  2.362572  3.171697  2.377108  3.429020  3.367448
             H (  7)   H (  8)   H (  9)   H ( 10)   H ( 11)   C ( 12)
   H (  8)  2.703030
   H (  9)  4.413496  2.891065
   H ( 10)  4.419838  4.106080  2.912306
   H ( 11)  4.206491  4.421895  2.720955  2.704932
   C ( 12)  2.294620  2.359635  3.169146  2.379021  3.430262
   H ( 13)  2.712335  2.922826  4.108227  2.890477  4.410779  1.083660

 
 A cutoff of  1.0D-14 yielded   1406 shell pairs
 There are     13526 function pairs
 
 -------------------------------------------------------
 OpenMP Integral Computing Module                       
 Release: version 1.0, May 2013, Q-Chem Inc. Pittsburgh 
 -------------------------------------------------------
 Integral Job Info:
 Integral job number is                      11
 Integral operator is                         1
 short-range coefficients                     0
 long-range coefficients              100000000
 Omega coefficients                           0
 if combine SR and LR in K                    0
 Integral screening is                        0
 Integral computing path is                   2
 max size of driver memory is            800000
 size of driver memory is                593474
 size of scratch memory is              2361544
 max col of scratch BK array               1296
 max len of scratch array in speh3          155
 max len of scratch index in speh4           18
 max int batch size is                      520
 min int batch size is                       52
 fixed nKL is                                52
 max L of basis functions is                  2
 order of int derivative is                   0
 number of shells is                         53
 number of basis is                         163
 number of cartesian basis is               163
 number of contracted shell pairs          1406
 number of primitive shell pairs           4900
 maxK2 (contraction) of shell pair           36
 max number of K2 of shell pair               1
 max number of CS2 of shell pair            126
 max number of PS2 of shell pair            696
 mem total for path MDJ                  535308
 -------------------------------------------------------
 Smallest overlap matrix eigenvalue = 1.75E-05

 Scale SEOQF with 1.000000e-01/1.000000e-01/1.000000e-01

 Standard Electronic Orientation quadrupole field applied
 Nucleus-field energy     =     0.0000000013 hartrees
 Guess MOs from core Hamiltonian diagonalization
 Mixing HOMO and LUMO in initial guess
 Adding  50% of the LUMO to the HOMO
 An unrestricted hybrid HF-DFT SCF calculation will be
 performed using Pulay DIIS extrapolation
 Exchange:     0.2000 Hartree-Fock + 0.0800 Slater + 0.7200 B88
 Correlation:  0.1900 VWN1RPA + 0.8100 LYP
 Using SG-1 standard quadrature grid
 SCF converges when DIIS error is below 1.0E-08
 using 4 threads for integral computing
 -------------------------------------------------------
 OpenMP Integral computing Module                
 Release: version 1.0, May 2013, Q-Chem Inc. Pittsburgh 
 -------------------------------------------------------
 -------------------------------------------------------
 OpenMP BLAS3 based DFT computing Module                
 Release: version 1.0, May 2013, Q-Chem Inc. Pittsburgh 
 -------------------------------------------------------
 ---------------------------------------
  Cycle       Energy         DIIS Error
 ---------------------------------------
    1    -239.3973052042      9.59E-02
    2    -210.5736519672      6.97E-02
    3    -266.5995456356      6.50E-02
    4    -271.7999533949      6.00E-02
    5    -279.8219592817      4.58E-02
    6    -284.6940446318      2.34E-02
    7    -286.0299827551      1.37E-02
    8    -286.7336592194      5.56E-03
    9    -286.8113526185      3.07E-03
   10    -286.8428313918      7.81E-04
   11    -286.8445844341      4.91E-04
   12    -286.8453792714      1.28E-04
   13    -286.8454319188      4.71E-05
   14    -286.8454409833      1.14E-05
   15    -286.8454415545      6.56E-06
   16    -286.8454418403      1.79E-06
   17    -286.8454419105      7.89E-07
   18    -286.8454419193      2.07E-07
   19    -286.8454419218      1.52E-07
   20    -286.8454419221      4.46E-08
   21    -286.8454419221      1.35E-08
   22    -286.8454419222      3.20E-09 Convergence criterion met
 ---------------------------------------
 <S^2> = 0.7562
 SCF time:  CPU 114.31 s  wall 62.78 s
 SCF   energy in the final basis set = -286.84544192
 Total energy in the final basis set = -286.84544192
 
 --------------------------------------------------------------
 
                    Orbital Energies (a.u.)
 --------------------------------------------------------------
 
 Alpha MOs
 -- Occupied --
-14.349 -10.225 -10.225 -10.216 -10.216 -10.216 -10.216  -0.996
 -0.846  -0.802  -0.657  -0.597  -0.582  -0.549  -0.540  -0.462
 -0.435  -0.424  -0.405  -0.393  -0.346  -0.286  -0.283  -0.257
 -0.223
 -- Virtual --
  0.002   0.015   0.016   0.026   0.039   0.043   0.058   0.069
  0.074   0.080   0.084   0.105   0.113   0.115   0.116   0.130
  0.134   0.141   0.156   0.160   0.166   0.178   0.183   0.187
  0.192   0.201   0.208   0.210   0.222   0.248   0.250   0.251
  0.271   0.274   0.280   0.301   0.306   0.318   0.345   0.351
  0.371   0.374   0.378   0.442   0.604   0.645   0.691   0.698
  0.715   0.724   0.735   0.748   0.761   0.773   0.778   0.789
  0.790   0.830   0.872   0.874   0.908   0.943   0.950   0.952
  0.981   0.997   1.037   1.052   1.078   1.087   1.163   1.193
  1.261   1.264   1.358   1.420   1.482   1.541   1.547   1.593
  1.596   1.620   1.647   1.666   1.723   1.782   1.813   1.917
  1.926   1.937   1.942   1.992   1.997   2.086   2.155   2.173
  2.216   2.255   2.257   2.330   2.363   2.369   2.373   2.389
  2.433   2.449   2.451   2.454   2.504   2.518   2.566   2.581
  2.601   2.605   2.674   2.695   2.700   2.726   2.748   2.834
  2.884   2.930   2.982   3.060   3.092   3.235   3.270   3.386
  3.454   3.590   3.793   4.135   4.481   4.485   4.553   4.612
  4.828   4.923
 
 Beta MOs
 -- Occupied --
-14.333 -10.226 -10.226 -10.215 -10.214 -10.214 -10.214  -0.986
 -0.822  -0.798  -0.652  -0.594  -0.577  -0.544  -0.536  -0.460
 -0.431  -0.400  -0.399  -0.387  -0.331  -0.278  -0.269  -0.253
 -- Virtual --
 -0.092   0.002   0.016   0.017   0.026   0.039   0.043   0.059
  0.071   0.074   0.085   0.086   0.105   0.115   0.116   0.118
  0.131   0.136   0.143   0.158   0.160   0.167   0.179   0.188
  0.190   0.192   0.201   0.210   0.211   0.225   0.250   0.254
  0.264   0.275   0.276   0.281   0.302   0.310   0.321   0.346
  0.351   0.373   0.383   0.385   0.446   0.605   0.648   0.693
  0.705   0.717   0.730   0.737   0.750   0.761   0.776   0.782
  0.791   0.792   0.840   0.873   0.875   0.908   0.945   0.952
  0.968   0.983   1.003   1.041   1.055   1.092   1.112   1.169
  1.195   1.264   1.265   1.360   1.432   1.504   1.547   1.551
  1.600   1.602   1.637   1.649   1.669   1.727   1.786   1.816
  1.922   1.932   1.940   1.945   1.993   2.013   2.087   2.169
  2.183   2.224   2.259   2.272   2.332   2.370   2.370   2.376
  2.390   2.434   2.450   2.454   2.455   2.506   2.519   2.575
  2.582   2.604   2.620   2.678   2.707   2.718   2.728   2.753
  2.838   2.884   2.933   2.985   3.062   3.096   3.236   3.270
  3.387   3.455   3.590   3.795   4.162   4.485   4.489   4.553
  4.613   4.831   4.927
 --------------------------------------------------------------
 
          Ground-State Mulliken Net Atomic Charges

     Atom                 Charge (a.u.)    Spin (a.u.)
  --------------------------------------------------------
      1 C                    -0.287955      -0.079904
      2 C                    -0.041136       0.087064
      3 C                    -0.040893       0.089178
      4 C                    -0.036661       0.086462
      5 C                    -0.292454      -0.080234
      6 N                    -0.069519       0.815269
      7 H                     0.141424       0.001059
      8 H                     0.131865      -0.002097
      9 H                     0.131729      -0.002165
     10 H                     0.131967      -0.002071
     11 H                     0.141312       0.001075
     12 C                    -0.041125       0.088548
     13 H                     0.131448      -0.002186
  --------------------------------------------------------
  Sum of atomic charges =     0.000000
  Sum of spin   charges =     1.000000

 -----------------------------------------------------------------
                    Cartesian Multipole Moments
 -----------------------------------------------------------------
    Charge (ESU x 10^10)
                 0.0000
    Dipole Moment (Debye)
         X      -1.3247      Y      -2.1183      Z       0.5194
       Tot       2.5518
    Quadrupole Moments (Debye-Ang)
        XX     -39.3299     XY      -4.6457     YY     -44.7494
        XZ       2.4570     YZ       0.4083     ZZ     -39.8310
    Octopole Moments (Debye-Ang^2)
       XXX     -11.5480    XXY      -8.5715    XYY      -9.5790
       YYY     -27.4552    XXZ       4.3059    XYZ       2.0059
       YYZ      -0.0986    XZZ      -6.7148    YZZ      -8.4855
       ZZZ       6.6988
    Hexadecapole Moments (Debye-Ang^3)
      XXXX    -237.1194   XXXY      -9.5320   XXYY     -87.9931
      XYYY     -23.0343   YYYY    -253.6721   XXXZ     -10.3911
      XXYZ       8.6835   XYYZ       0.4564   YYYZ      20.6659
      XXZZ     -69.5021   XYZZ      -2.7267   YYZZ     -68.1211
      XZZZ     -11.7755   YZZZ      16.2096   ZZZZ    -173.6161
 -----------------------------------------------------------------
Archival summary:
1\1\c8-66\SP\ProcedureUnspecified\6-31+G**\166(2)\hpark21\WedMar202:59:032022WedMar202:59:032022\0\\#,ProcedureUnspecified,6-31+G**,\\0,2\N\C,1,1.41359\H,2,1.0835,1,119.066\C,1,1.41376,2,101.976,3,179.748,0\H,4,1.08352,1,118.963,2,179.481,0\C,2,1.54081,1,111.811,3,-147.976,0\H,6,1.08361,2,123.968,1,135.565,0\C,6,1.50558,2,60.8003,1,-102.843,0\H,8,1.08366,6,130.997,2,-111.301,0\C,4,1.54097,1,111.8,2,31.5477,0\H,10,1.08343,4,124.049,1,136.015,0\C,10,1.50461,4,60.8706,1,-102.718,0\H,12,1.08376,10,130.608,4,-111.76,0\\\@

 Total job time:  78.66s(wall), 116.11s(cpu) 
 Wed Mar  2 02:59:03 2022

        *************************************************************
        *                                                           *
        *  Thank you very much for using Q-Chem.  Have a nice day.  *
        *                                                           *
        *************************************************************


