
Running Job 1 of 1 qcfsm.in
qchem qcfsm.in_18388.0 ./qcfsm.d/ 1
/home/leeping/opt/qchem/5.0.2-openmp/exe/qcprog.exe_s qcfsm.in_18388.0 ./qcfsm.d/
Check license passed

                  Welcome to Q-Chem
     A Quantum Leap Into The Future Of Chemistry


 Q-Chem 5.0, Q-Chem, Inc., Pleasanton, CA (2017)

 Yihan Shao,  Zhengting Gan,  E. Epifanovsky,  A. T. B. Gilbert,  M. Wormit,  
 J. Kussmann,  A. W. Lange,  A. Behn,  Jia Deng,  Xintian Feng,  D. Ghosh,  
 M. Goldey,  P. R. Horn,  L. D. Jacobson,  I. Kaliman,  T. Kus,  A. Landau,  
 Jie Liu,  E. I. Proynov,  R. M. Richard,  R. P. Steele,  E. J. Sundstrom,  
 H. L. Woodcock III,  P. M. Zimmerman,  D. Zuev,  B. Albrecht,  E. Alguire,  
 S. A. Baeppler,  D. Barton,  Z. Benda,  Y. A. Bernard,  E. J. Berquist,  
 K. B. Bravaya,  H. Burton,  D. Casanova,  Chun-Min Chang,  Yunqing Chen,  
 A. Chien,  K. D. Closser,  M. P. Coons,  S. Dasgupta,  A. L. Dempwolff,  
 M. Diedenhofen,  Hainam Do,  R. G. Edgar,  Po-Tung Fang,  S. Fatehi,  
 Qingguo Feng,  J. Fosso-Tande,  Qinghui Ge,  A. Ghysels,  G. Gidofalvi,  
 J. Gomes,  J. Gonthier,  A. Gunina,  M. W. D. Hanson-Heine,  
 P. H. P. Harbach,  A. W. Hauser,  J. E. Herr,  E. G. Hohenstein,  
 Z. C. Holden,  Kerwin Hui,  T.-C. Jagau,  Hyunjun Ji,  B. Kaduk,  
 K. Khistyaev,  Jaehoon Kim,  P. Klunzinger,  K. Koh,  D. Kosenkov,  
 L. Koulias,  T. Kowalczyk,  C. M. Krauter,  A. Kunitsa,  Ka Un Lao,  
 A. Laurent,  K. V. Lawler,  Joonho Lee,  D. Lefrancois,  S. Lehtola,  
 D. S. Levine,  Yi-Pei Li,  You-Sheng Lin,  Fenglai Liu,  E. Livshits,  
 A. Luenser,  P. Manohar,  E. Mansoor,  S. F. Manzer,  Shan-Ping Mao,  
 Yuezhi Mao,  N. Mardirossian,  A. V. Marenich,  T. Markovich,  
 L. A. Martinez-Martinez,  S. A. Maurer,  N. J. Mayhall,  S. C. McKenzie,  
 J.-M. Mewes,  A. F. Morrison,  J. W. Mullinax,  K. Nanda,  
 T. S. Nguyen-Beck,  R. Olivares-Amaya,  J. A. Parkhill,  T. M. Perrine,  
 F. Plasser,  S. Prager,  A. Prociuk,  E. Ramos,  D. R. Rehn,  F. Rob,  
 M. Schneider,  N. Sergueev,  S. M. Sharada,  S. Sharma,  D. W. Small,  
 T. Stauch,  T. Stein,  Yu-Chuan Su,  A. J. W. Thom,  A. Tkatchenko,  
 T. Tsuchimochi,  L. Vogt,  O. Vydrov,  M. A. Watson,  J. Wenzel,  
 M. de Wergifosse,  T. A. Wesolowski,  A. White,  J. Witte,  A. Yamada,  
 Jun Yang,  K. Yao,  S. Yeganeh,  S. R. Yost,  Zhi-Qiang You,  A. Zech,  
 Igor Ying Zhang,  Xing Zhang,  Yan Zhao,  Ying Zhu,  B. R. Brooks,  
 G. K. L. Chan,  C. J. Cramer,  M. S. Gordon,  W. J. Hehre,  A. Klamt,  
 M. W. Schmidt,  C. D. Sherrill,  D. G. Truhlar,  A. Aspuru-Guzik,  R. Baer,  
 A. T. Bell,  N. A. Besley,  Jeng-Da Chai,  R. A. DiStasio Jr.,  A. Dreuw,  
 B. D. Dunietz,  T. R. Furlani,  Chao-Ping Hsu,  Yousung Jung,  Jing Kong,  
 D. S. Lambrecht,  WanZhen Liang,  C. Ochsenfeld,  V. A. Rassolov,  
 L. V. Slipchenko,  J. E. Subotnik,  T. Van Voorhis,  J. M. Herbert,  
 A. I. Krylov,  P. M. W. Gill,  M. Head-Gordon

 Contributors to earlier versions of Q-Chem not listed above: 
 R. D. Adamson,  B. Austin,  J. Baker,  G. J. O. Beran,  K. Brandhorst,  
 S. T. Brown,  E. F. C. Byrd,  A. K. Chakraborty,  C.-L. Cheng,  
 Siu Hung Chien,  D. M. Chipman,  D. L. Crittenden,  H. Dachsel,  
 R. J. Doerksen,  A. D. Dutoi,  L. Fusti-Molnar,  W. A. Goddard III,  
 A. Golubeva-Zadorozhnaya,  S. R. Gwaltney,  G. Hawkins,  A. Heyden,  
 S. Hirata,  G. Kedziora,  F. J. Keil,  C. Kelley,  Jihan Kim,  R. A. King,  
 R. Z. Khaliullin,  P. P. Korambath,  W. Kurlancheek,  A. M. Lee,  M. S. Lee,  
 S. V. Levchenko,  Ching Yeh Lin,  D. Liotard,  R. C. Lochan,  I. Lotan,  
 P. E. Maslen,  N. Nair,  D. P. O'Neill,  D. Neuhauser,  E. Neuscamman,  
 C. M. Oana,  R. Olson,  B. Peters,  R. Peverati,  P. A. Pieniazek,  
 Y. M. Rhee,  J. Ritchie,  M. A. Rohrdanz,  E. Rosta,  N. J. Russ,  
 H. F. Schaefer III,  N. E. Schultz,  N. Shenvi,  A. C. Simmonett,  A. Sodt,  
 D. Stuck,  K. S. Thanthiriwatte,  V. Vanovschi,  Tao Wang,  A. Warshel,  
 C. F. Williams,  Q. Wu,  X. Xu,  W. Zhang

 Please cite Q-Chem as follows:
 Y. Shao et al., Mol. Phys. 113, 184-215 (2015)
 DOI: 10.1080/00268976.2014.952696

 Q-Chem 5.0.2 for Intel X86 EM64T Linux

 Parts of Q-Chem use Armadillo 5.200.1 (Boston Tea Smuggler).
 http://arma.sourceforge.net/

 Q-Chem begins on Tue Mar  1 21:59:34 2022  

Host: 
0

     Scratch files written to ./qcfsm.d//
 Dec517 15110_ 26548  26544 5633   
Processing $rem in /home/leeping/opt/qchem/5.0.2-openmp/config/preferences.
 MEM_STATIC 2000
 MEM_TOTAL  8000
 SYMMETRY   OFF
 SYM_IGNORE TRUE 
 Now reading second FSM geometry

Checking the input file for inconsistencies... 	...done.

--------------------------------------------------------------
User input:
--------------------------------------------------------------
$molecule
0 2
C        1.2472491268    0.2394747160    0.2457807437
C        0.5667876203   -1.1298321881   -0.2132234672
C       -0.7465851239   -0.8839705917   -0.7937796670
C       -1.0529889157    0.2208481240    0.2154257019
C       -0.4345983375    1.4782624648   -0.3837943237
N        0.8482346572    1.4590569046   -0.4110176070
H        2.2863941218    0.1492063717    0.5454966224
H        1.2042933028   -2.0016523227   -0.3222701238
H       -1.1571424385   -1.0756006705   -1.7824910181
H       -2.0600331140    0.2974793718    0.6313898476
H       -1.0059870640    2.2662697034   -0.8718905545
C        0.1477540711   -0.3538931714    1.0501095734
H        0.1566220930   -0.6656487114    2.0902642725
****
C        1.3036771046    0.2521507022    0.3283889540
C        0.5915042904   -1.0050810453   -0.2091711897
C       -0.6520526666   -0.3972929790   -0.9053245182
C       -1.0961669684    0.1941507747    0.4035704523
C       -0.4552002123    1.1111440604   -0.6552892467
N        0.8876513085    1.4247890594   -0.3429184567
H        2.3210492714    0.1923477668    0.6991771963
H        1.0935991318   -1.9407385553   -0.4282503835
H       -1.2293260194   -0.8063382412   -1.7269419756
H       -2.0894486930    0.3392599905    0.8133390363
H       -1.0546123746    1.8409509881   -1.1882437686
C        0.1479545765   -0.4131702463    1.0995957996
H        0.2313712508   -0.7921722750    2.1120681007
$end

$rem
method                b3lyp
basis                 6-31g(d)
unrestricted          true
symmetry              off
sym_ignore            true
incdft                false
incfock               0
scf_convergence       8
thresh                14
jobtype               fsm
scf_guess             core
scf_guess_mix         5
scf_algorithm         diis
max_scf_cycles        100
fsm_nnode             21
fsm_ngrad             6
fsm_mode              2
fsm_opt_mode          2
$end

--------------------------------------------------------------
 ----------------------------------------------------------------
             Standard Nuclear Orientation (Angstroms)
    I     Atom           X                Y                Z
 ----------------------------------------------------------------
    1      C       1.2472491268     0.2394747160     0.2457807437
    2      C       0.5667876203    -1.1298321881    -0.2132234672
    3      C      -0.7465851239    -0.8839705917    -0.7937796670
    4      C      -1.0529889157     0.2208481240     0.2154257019
    5      C      -0.4345983375     1.4782624648    -0.3837943237
    6      N       0.8482346572     1.4590569046    -0.4110176070
    7      H       2.2863941218     0.1492063717     0.5454966224
    8      H       1.2042933028    -2.0016523227    -0.3222701238
    9      H      -1.1571424385    -1.0756006705    -1.7824910181
   10      H      -2.0600331140     0.2974793718     0.6313898476
   11      H      -1.0059870640     2.2662697034    -0.8718905545
   12      C       0.1477540711    -0.3538931714     1.0501095734
   13      H       0.1566220930    -0.6656487114     2.0902642725
 ----------------------------------------------------------------
 Nuclear Repulsion Energy =   282.1761712716 hartrees
 There are       25 alpha and       24 beta electrons
 Requested basis set is 6-31G(d)
 There are 40 shells and 117 basis functions

 Total QAlloc Memory Limit   8000 MB
 Mega-Array Size      1956 MB
 MEM_STATIC part      2000 MB
 beginning FSman 

*******************************************
*******************************************
******** Starting FSM Calculation *********
*******************************************
*******************************************
-FSM parameters:
 Maximum displacement of each coordinate during optimization (Angstrom)      0.05
 Maximum optimization steps for each new node                                6
 The scaling factor for optimization (hartrees/Angstrom^2)                   1.75
 The number of LST interpolations used for reparameterization                100
-Aligning product structure to maximum coincidence with the reactant structure
 Total R --> P Distance 1.010251
 New node interpolation distace (Angstroms): 0.05
-Performing force calculation on reactant structure in state:0
 ----------------------------------------------------------------
             Standard Nuclear Orientation (Angstroms)
    I     Atom           X                Y                Z
 ----------------------------------------------------------------
    1      C       1.2472491268     0.2394747160     0.2457807437
    2      C       0.5667876203    -1.1298321881    -0.2132234672
    3      C      -0.7465851239    -0.8839705917    -0.7937796670
    4      C      -1.0529889157     0.2208481240     0.2154257019
    5      C      -0.4345983375     1.4782624648    -0.3837943237
    6      N       0.8482346572     1.4590569046    -0.4110176070
    7      H       2.2863941218     0.1492063717     0.5454966224
    8      H       1.2042933028    -2.0016523227    -0.3222701238
    9      H      -1.1571424385    -1.0756006705    -1.7824910181
   10      H      -2.0600331140     0.2974793718     0.6313898476
   11      H      -1.0059870640     2.2662697034    -0.8718905545
   12      C       0.1477540711    -0.3538931714     1.0501095734
   13      H       0.1566220930    -0.6656487114     2.0902642725
 ----------------------------------------------------------------
 Nuclear Repulsion Energy =   282.1761712716 hartrees
 There are       25 alpha and       24 beta electrons

                       Distance Matrix (Angstroms)
             C (  1)   C (  2)   C (  3)   C (  4)   C (  5)   N (  6)
   C (  2)  1.596469
   C (  3)  2.513601  1.456860
   C (  4)  2.300514  2.152151  1.527417
   C (  5)  2.181644  2.798933  2.417761  1.523996
   N (  6)  1.441519  2.611643  2.860024  2.353772  1.283266
   H (  7)  1.085265  2.273465  3.472762  3.356420  3.167613  2.167702
   H (  8)  2.312396  1.085530  2.297272  3.213090  3.847019  3.480110
   H (  9)  3.409459  2.331840  1.087580  2.383967  3.000107  3.510978
   H ( 10)  3.330191  3.106570  2.269819  1.092262  2.250974  3.300590
   H ( 11)  3.230195  3.800128  3.161867  2.316941  1.088889  2.074159
   C ( 12)  1.485907  1.540675  2.116779  1.571244  2.398335  2.431533
   H ( 13)  2.326120  2.385321  3.030042  2.400845  3.326689  3.353970
             H (  7)   H (  8)   H (  9)   H ( 10)   H ( 11)   C ( 12)
   H (  8)  2.559327
   H (  9)  4.333315  2.926806
   H ( 10)  4.349804  4.105034  2.920168
   H ( 11)  4.163018  4.837621  3.467007  2.692025
   C ( 12)  2.254224  2.390567  3.201131  2.339645  3.448254
   H ( 13)  2.754310  2.950058  4.110021  2.823029  4.326912  1.085906

 
 Requested basis set is 6-31G(d)
 There are 40 shells and 117 basis functions
 A cutoff of  1.0D-14 yielded    812 shell pairs
 There are      7084 function pairs
 
 -------------------------------------------------------
 OpenMP Integral Computing Module                       
 Release: version 1.0, May 2013, Q-Chem Inc. Pittsburgh 
 -------------------------------------------------------
 Integral Job Info:
 Integral job number is                      11
 Integral operator is                         1
 short-range coefficients                     0
 long-range coefficients              100000000
 Omega coefficients                           0
 if combine SR and LR in K                    0
 Integral screening is                        0
 Integral computing path is                   2
 max size of driver memory is            800000
 size of driver memory is                593474
 size of scratch memory is              2361544
 max col of scratch BK array               1296
 max len of scratch array in speh3          155
 max len of scratch index in speh4           18
 max int batch size is                      520
 min int batch size is                       52
 fixed nKL is                                52
 max L of basis functions is                  2
 order of int derivative is                   0
 number of shells is                         40
 number of basis is                         117
 number of cartesian basis is               117
 number of contracted shell pairs           812
 number of primitive shell pairs           3615
 maxK2 (contraction) of shell pair           36
 max number of K2 of shell pair               1
 max number of CS2 of shell pair             84
 max number of PS2 of shell pair            426
 mem total for path MDJ                  535308
 -------------------------------------------------------
 Smallest overlap matrix eigenvalue = 1.65E-03

 Scale SEOQF with 1.000000e-01/1.000000e-01/1.000000e-01

 Standard Electronic Orientation quadrupole field applied
 Nucleus-field energy     =     0.0000000028 hartrees
 Guess MOs from core Hamiltonian diagonalization
 Mixing HOMO and LUMO in initial guess
 Adding  50% of the LUMO to the HOMO
 An unrestricted hybrid HF-DFT SCF calculation will be
 performed using Pulay DIIS extrapolation
 Exchange:     0.2000 Hartree-Fock + 0.0800 Slater + 0.7200 B88
 Correlation:  0.1900 VWN1RPA + 0.8100 LYP
 Using SG-1 standard quadrature grid
 SCF converges when DIIS error is below 1.0E-08
 using 4 threads for integral computing
 -------------------------------------------------------
 OpenMP Integral computing Module                
 Release: version 1.0, May 2013, Q-Chem Inc. Pittsburgh 
 -------------------------------------------------------
 -------------------------------------------------------
 OpenMP BLAS3 based DFT computing Module                
 Release: version 1.0, May 2013, Q-Chem Inc. Pittsburgh 
 -------------------------------------------------------
 ---------------------------------------
  Cycle       Energy         DIIS Error
 ---------------------------------------
    1    -236.2955188231      1.34E-01
    2    -225.5835548400      1.11E-01
    3    -256.3179076644      1.01E-01
    4    -276.2575250169      7.30E-02
    5    -282.7132789547      4.35E-02
    6    -286.3484579006      1.59E-02
    7    -286.4802607422      1.33E-02
    8    -286.8089441142      3.98E-03
    9    -286.8267086889      2.56E-03
   10    -286.8380378570      2.98E-04
   11    -286.8382595270      1.46E-04
   12    -286.8383164411      5.21E-05
   13    -286.8383354451      2.62E-05
   14    -286.8383381104      8.20E-06
   15    -286.8383383469      1.53E-06
   16    -286.8383383677      3.90E-07
   17    -286.8383383721      2.67E-07
   18    -286.8383383729      7.81E-08
   19    -286.8383383733      1.64E-08
   20    -286.8383383733      7.75E-09 Convergence criterion met
 ---------------------------------------
 <S^2> = 0.7566
 SCF time:  CPU 52.25 s  wall 40.23 s
 SCF   energy in the final basis set = -286.83833837
 Total energy in the final basis set = -286.83833837
 
 --------------------------------------------------------------
 
                    Orbital Energies (a.u.)
 --------------------------------------------------------------
 
 Alpha MOs
 -- Occupied --
-14.320 -10.224 -10.220 -10.210 -10.209 -10.208 -10.206  -0.968
 -0.856  -0.749  -0.664  -0.606  -0.571  -0.535  -0.517  -0.467
 -0.439  -0.405  -0.400  -0.356  -0.336  -0.298  -0.274  -0.256
 -0.182
 -- Virtual --
  0.004   0.101   0.114   0.128   0.150   0.150   0.153   0.162
  0.177   0.200   0.221   0.262   0.280   0.296   0.348   0.391
  0.494   0.513   0.524   0.543   0.558   0.573   0.601   0.605
  0.605   0.659   0.675   0.677   0.720   0.742   0.770   0.777
  0.805   0.806   0.822   0.842   0.854   0.877   0.889   0.936
  0.954   0.973   1.043   1.096   1.206   1.237   1.327   1.390
  1.446   1.475   1.504   1.517   1.587   1.632   1.672   1.713
  1.743   1.828   1.873   1.881   1.933   1.954   1.988   2.026
  2.061   2.167   2.207   2.218   2.232   2.253   2.363   2.380
  2.456   2.490   2.502   2.541   2.590   2.626   2.664   2.676
  2.718   2.808   2.841   2.914   2.963   3.959   4.193   4.239
  4.362   4.433   4.508   4.641
 
 Beta MOs
 -- Occupied --
-14.319 -10.222 -10.219 -10.211 -10.209 -10.207 -10.193  -0.964
 -0.850  -0.741  -0.652  -0.601  -0.567  -0.528  -0.511  -0.461
 -0.434  -0.402  -0.394  -0.348  -0.332  -0.291  -0.262  -0.251
 -- Virtual --
 -0.062   0.019   0.102   0.118   0.134   0.151   0.156   0.157
  0.165   0.181   0.204   0.227   0.267   0.284   0.298   0.359
  0.394   0.497   0.518   0.532   0.553   0.561   0.578   0.607
  0.610   0.622   0.669   0.679   0.683   0.729   0.745   0.775
  0.786   0.808   0.809   0.824   0.844   0.858   0.883   0.892
  0.940   0.958   0.976   1.047   1.108   1.208   1.243   1.334
  1.392   1.449   1.481   1.513   1.525   1.593   1.640   1.677
  1.716   1.751   1.835   1.878   1.894   1.940   1.970   1.995
  2.034   2.069   2.172   2.222   2.226   2.242   2.270   2.368
  2.390   2.463   2.497   2.510   2.546   2.594   2.633   2.666
  2.684   2.725   2.813   2.845   2.917   2.965   3.961   4.208
  4.245   4.369   4.438   4.511   4.644
 --------------------------------------------------------------
 
          Ground-State Mulliken Net Atomic Charges

     Atom                 Charge (a.u.)    Spin (a.u.)
  --------------------------------------------------------
      1 C                    -0.019014       0.097062
      2 C                    -0.163826      -0.095908
      3 C                    -0.066359       0.888418
      4 C                    -0.258035      -0.065678
      5 C                     0.088818       0.047183
      6 N                    -0.342254       0.038949
      7 H                     0.151388       0.002857
      8 H                     0.147261       0.005283
      9 H                     0.136219      -0.019152
     10 H                     0.142807       0.022704
     11 H                     0.143045       0.001366
     12 C                    -0.108177       0.077694
     13 H                     0.148129      -0.000778
  --------------------------------------------------------
  Sum of atomic charges =    -0.000000
  Sum of spin   charges =     1.000000

 -----------------------------------------------------------------
                    Cartesian Multipole Moments
 -----------------------------------------------------------------
    Charge (ESU x 10^10)
                 0.0000
    Dipole Moment (Debye)
         X      -1.1706      Y      -1.4391      Z       0.8648
       Tot       2.0468
    Quadrupole Moments (Debye-Ang)
        XX     -38.8675     XY      -5.0035     YY     -42.9698
        XZ       2.2378     YZ       0.6293     ZZ     -39.4874
    Octopole Moments (Debye-Ang^2)
       XXX      -7.2024    XXY      -7.1261    XYY      -7.9114
       YYY     -18.6862    XXZ       4.0568    XYZ       2.2995
       YYZ       0.8608    XZZ      -5.5598    YZZ      -7.8200
       ZZZ       6.7937
    Hexadecapole Moments (Debye-Ang^3)
      XXXX    -221.6717   XXXY     -10.5441   XXYY     -92.3861
      XYYY     -25.8984   YYYY    -300.7712   XXXZ     -10.0864
      XXYZ       5.5164   XYYZ       1.0752   YYYZ       9.9632
      XXZZ     -63.3025   XYZZ      -2.2274   YYZZ     -73.1729
      XZZZ      -9.5526   YZZZ       9.1872   ZZZZ    -138.2322
 -----------------------------------------------------------------
 Calculating analytic gradient of the SCF energy
 Gradient of SCF Energy
            1           2           3           4           5           6
    1  -0.0000057   0.0001564  -0.0000244  -0.0000720   0.0000062   0.0000083
    2  -0.0000978   0.0000537  -0.0000011  -0.0000050   0.0000179   0.0000502
    3  -0.0000395  -0.0000346  -0.0000266   0.0000576  -0.0000423   0.0000237
            7           8           9          10          11          12
    1   0.0000012  -0.0000134   0.0000101  -0.0000086  -0.0000122  -0.0000540
    2   0.0000172  -0.0000046  -0.0000031  -0.0000195   0.0000121  -0.0000018
    3   0.0000121  -0.0000304  -0.0000073  -0.0000089   0.0000172   0.0000797
           13
    1   0.0000082
    2  -0.0000183
    3  -0.0000007
 Max gradient component =       1.564E-04
 RMS gradient           =       4.155E-05
 Gradient time:  CPU 7.93 s  wall 2.96 s
-Performing force calculation on product structure in state0
 ----------------------------------------------------------------
             Standard Nuclear Orientation (Angstroms)
    I     Atom           X                Y                Z
 ----------------------------------------------------------------
    1      C       1.3036771046     0.2521507022     0.3283889540
    2      C       0.5915042904    -1.0050810453    -0.2091711897
    3      C      -0.6520526666    -0.3972929790    -0.9053245182
    4      C      -1.0961669684     0.1941507747     0.4035704523
    5      C      -0.4552002123     1.1111440604    -0.6552892467
    6      N       0.8876513085     1.4247890594    -0.3429184567
    7      H       2.3210492714     0.1923477668     0.6991771963
    8      H       1.0935991318    -1.9407385553    -0.4282503835
    9      H      -1.2293260194    -0.8063382412    -1.7269419756
   10      H      -2.0894486930     0.3392599905     0.8133390363
   11      H      -1.0546123746     1.8409509881    -1.1882437686
   12      C       0.1479545765    -0.4131702463     1.0995957996
   13      H       0.2313712508    -0.7921722750     2.1120681007
 ----------------------------------------------------------------
 Nuclear Repulsion Energy =   288.0353484652 hartrees
 There are       25 alpha and       24 beta electrons

                       Distance Matrix (Angstroms)
             C (  1)   C (  2)   C (  3)   C (  4)   C (  5)   N (  6)
   C (  2)  1.541685
   C (  3)  2.401813  1.549345
   C (  4)  2.401722  2.159130  1.503413
   C (  5)  2.190694  2.402711  1.541639  1.540422
   N (  6)  1.413793  2.451502  2.450912  2.450969  1.413930
   H (  7)  1.084484  2.291344  3.429495  3.429979  3.222783  2.158589
   H (  8)  2.329249  1.084228  2.378471  3.169346  3.429915  3.372903
   H (  9)  3.429415  2.378771  1.084259  2.357497  2.329045  3.372691
   H ( 10)  3.428712  3.168641  2.358479  1.084240  2.328828  3.373193
   H ( 11)  3.222730  3.430478  2.291688  2.290753  1.084414  2.158739
   C ( 12)  1.540489  1.503318  2.158696  1.549558  2.401448  2.450733
   H ( 13)  2.328511  2.358639  3.168758  2.377847  3.428157  3.372326
             H (  7)   H (  8)   H (  9)   H ( 10)   H ( 11)   C ( 12)
   H (  8)  2.706988
   H (  9)  4.414589  2.892999
   H ( 10)  4.414421  4.107521  2.916373
   H ( 11)  4.204205  4.415153  2.707187  2.707821
   C ( 12)  2.291141  2.358394  3.168722  2.377828  3.429496
   H ( 13)  2.707821  2.918195  4.107534  2.890163  4.413519  1.084297

 
 Applying Cartesian multipole field
    Component          Value
    ---------          -----
     (2,0,0)        1.00000E-11
     (0,2,0)        2.00000E-11
     (0,0,2)       -3.00000E-11
 Nucleus-field energy     =     0.0000000013 hartrees
 Requested basis set is 6-31G(d)
 There are 40 shells and 117 basis functions
 A cutoff of  1.0D-14 yielded    812 shell pairs
 There are      7084 function pairs
 Smallest overlap matrix eigenvalue = 1.00E-03
 Guess MOs from core Hamiltonian diagonalization
 Mixing HOMO and LUMO in initial guess
 Adding  50% of the LUMO to the HOMO
 An unrestricted hybrid HF-DFT SCF calculation will be
 performed using Pulay DIIS extrapolation
 Exchange:     0.2000 Hartree-Fock + 0.0800 Slater + 0.7200 B88
 Correlation:  0.1900 VWN1RPA + 0.8100 LYP
 Using SG-1 standard quadrature grid
 SCF converges when DIIS error is below 1.0E-08
 using 4 threads for integral computing
 -------------------------------------------------------
 OpenMP Integral computing Module                
 Release: version 1.0, May 2013, Q-Chem Inc. Pittsburgh 
 -------------------------------------------------------
 -------------------------------------------------------
 OpenMP BLAS3 based DFT computing Module                
 Release: version 1.0, May 2013, Q-Chem Inc. Pittsburgh 
 -------------------------------------------------------
 ---------------------------------------
  Cycle       Energy         DIIS Error
 ---------------------------------------
    1    -239.7201399292      1.31E-01
    2    -233.1118787477      1.03E-01
    3    -266.5233554055      9.24E-02
    4    -280.1578093481      6.25E-02
    5    -283.9424947376      3.96E-02
    6    -286.1859942994      1.62E-02
    7    -286.7951474994      3.72E-03
    8    -286.8131708456      2.52E-03
    9    -286.8242605585      5.11E-04
   10    -286.8249236856      1.13E-04
   11    -286.8249699656      5.29E-05
   12    -286.8249819959      1.92E-05
   13    -286.8249846637      6.34E-06
   14    -286.8249849959      4.08E-06
   15    -286.8249851450      1.50E-06
   16    -286.8249851892      5.86E-07
   17    -286.8249851918      3.46E-07
   18    -286.8249851923      1.57E-07
   19    -286.8249851925      2.28E-08
   20    -286.8249851925      8.05E-09 Convergence criterion met
 ---------------------------------------
 <S^2> = 0.7558
 SCF time:  CPU 51.66 s  wall 38.87 s
 SCF   energy in the final basis set = -286.82498519
 Total energy in the final basis set = -286.82498519
 
 --------------------------------------------------------------
 
                    Orbital Energies (a.u.)
 --------------------------------------------------------------
 
 Alpha MOs
 -- Occupied --
-14.335 -10.215 -10.215 -10.207 -10.207 -10.207 -10.206  -0.986
 -0.837  -0.793  -0.649  -0.588  -0.574  -0.542  -0.533  -0.455
 -0.427  -0.415  -0.395  -0.384  -0.337  -0.275  -0.274  -0.248
 -0.212
 -- Virtual --
  0.090   0.094   0.117   0.147   0.150   0.156   0.167   0.180
  0.184   0.197   0.217   0.251   0.255   0.302   0.364   0.378
  0.477   0.520   0.537   0.541   0.562   0.565   0.574   0.608
  0.621   0.630   0.676   0.728   0.729   0.742   0.743   0.781
  0.786   0.801   0.828   0.831   0.848   0.856   0.918   0.938
  0.983   1.005   1.137   1.161   1.195   1.235   1.399   1.455
  1.490   1.538   1.622   1.629   1.653   1.658   1.667   1.691
  1.754   1.824   1.854   1.942   1.968   1.974   1.978   1.984
  2.043   2.128   2.134   2.242   2.272   2.404   2.412   2.489
  2.516   2.522   2.536   2.560   2.570   2.638   2.710   2.719
  2.757   2.769   2.837   2.881   2.932   3.847   4.233   4.317
  4.370   4.460   4.639   4.673
 
 Beta MOs
 -- Occupied --
-14.319 -10.217 -10.216 -10.205 -10.205 -10.205 -10.205  -0.976
 -0.811  -0.789  -0.644  -0.585  -0.568  -0.537  -0.529  -0.453
 -0.423  -0.392  -0.389  -0.378  -0.322  -0.269  -0.257  -0.244
 -- Virtual --
 -0.078   0.091   0.101   0.120   0.147   0.152   0.157   0.176
  0.182   0.188   0.202   0.225   0.259   0.259   0.302   0.367
  0.384   0.479   0.522   0.540   0.542   0.568   0.568   0.576
  0.613   0.621   0.639   0.679   0.732   0.733   0.743   0.782
  0.787   0.794   0.801   0.830   0.839   0.849   0.857   0.919
  0.944   1.003   1.007   1.141   1.164   1.205   1.236   1.401
  1.474   1.507   1.541   1.626   1.634   1.658   1.660   1.691
  1.696   1.758   1.827   1.858   1.947   1.970   1.979   1.982
  1.987   2.058   2.130   2.156   2.247   2.282   2.403   2.431
  2.502   2.523   2.529   2.541   2.565   2.603   2.640   2.714
  2.721   2.760   2.772   2.839   2.887   2.937   3.873   4.239
  4.320   4.370   4.462   4.641   4.676
 --------------------------------------------------------------
 
          Ground-State Mulliken Net Atomic Charges

     Atom                 Charge (a.u.)    Spin (a.u.)
  --------------------------------------------------------
      1 C                    -0.044903      -0.080336
      2 C                    -0.124822       0.089698
      3 C                    -0.124950       0.089630
      4 C                    -0.124786       0.088778
      5 C                    -0.044716      -0.080287
      6 N                    -0.285893       0.811416
      7 H                     0.149321       0.001045
      8 H                     0.144029      -0.002518
      9 H                     0.144057      -0.002516
     10 H                     0.143977      -0.002459
     11 H                     0.149304       0.001045
     12 C                    -0.124547       0.088968
     13 H                     0.143929      -0.002466
  --------------------------------------------------------
  Sum of atomic charges =     0.000000
  Sum of spin   charges =     1.000000

 -----------------------------------------------------------------
                    Cartesian Multipole Moments
 -----------------------------------------------------------------
    Charge (ESU x 10^10)
                -0.0000
    Dipole Moment (Debye)
         X      -1.2043      Y      -1.9307      Z       0.4671
       Tot       2.3230
    Quadrupole Moments (Debye-Ang)
        XX     -38.4278     XY      -4.1516     YY     -43.2978
        XZ       2.2397     YZ       0.3083     ZZ     -38.8911
    Octopole Moments (Debye-Ang^2)
       XXX     -10.8685    XXY      -7.8014    XYY      -8.4072
       YYY     -25.1483    XXZ       3.8514    XYZ       1.7084
       YYZ      -0.0661    XZZ      -6.1657    YZZ      -7.8555
       ZZZ       6.0526
    Hexadecapole Moments (Debye-Ang^3)
      XXXX    -226.5685   XXXY      -7.2706   XXYY     -82.5476
      XYYY     -19.0420   YYYY    -236.5161   XXXZ     -11.4769
      XXYZ       8.1544   XYYZ      -0.3959   YYYZ      19.6648
      XXZZ     -65.8540   XYZZ      -1.9034   YYZZ     -64.0261
      XZZZ     -12.2071   YZZZ      15.2981   ZZZZ    -164.0978
 -----------------------------------------------------------------
 Calculating analytic gradient of the SCF energy
 Gradient of SCF Energy
            1           2           3           4           5           6
    1   0.0000344  -0.0002454   0.0001524  -0.0000173  -0.0000775   0.0000224
    2   0.0001310  -0.0001161  -0.0002232   0.0000858   0.0000902  -0.0000618
    3  -0.0000261   0.0000786  -0.0000810  -0.0001638   0.0001624  -0.0000238
            7           8           9          10          11          12
    1   0.0000113   0.0000249  -0.0000720   0.0000158   0.0000014   0.0001559
    2  -0.0000363   0.0000107   0.0000527  -0.0000193  -0.0000097   0.0000470
    3  -0.0000421   0.0000205   0.0000313   0.0000528  -0.0000175  -0.0000166
           13
    1  -0.0000063
    2   0.0000491
    3   0.0000254
 Max gradient component =       2.454E-04
 RMS gradient           =       8.849E-05
 Gradient time:  CPU 7.96 s  wall 5.02 s

STARTING FREEZING STRING ITERATION # 1
 The distance between the innermost nodes (Angstroms): 1.010
-Adding two new nodes
 The distance between the previous and current R_nodes (Angstroms): 0.0509
 The distance between the previous and current P_nodes (Angstroms): 0.0501
-Optimizing new reactant side node
 Using BFGS, step: 2 E_tol 0.0134
 max_steps 6, node_spacing 0.0481, sigma 0.7000
 ----------------------------------------------------------------
             Standard Nuclear Orientation (Angstroms)
    I     Atom           X                Y                Z
 ----------------------------------------------------------------
    1      C       1.2503822473     0.2399607538     0.2502188968
    2      C       0.5686176046    -1.1236322991    -0.2128681715
    3      C      -0.7420751367    -0.8607311244    -0.8004940097
    4      C      -1.0560448808     0.2191856635     0.2271797793
    5      C      -0.4365296017     1.4610821859    -0.3987707473
    6      N       0.8526053660     1.4572666878    -0.4077318124
    7      H       2.2885921695     0.1512388808     0.5535107901
    8      H       1.1994414454    -1.9993534978    -0.3276894661
    9      H      -1.1619917675    -1.0622878999    -1.7823217677
   10      H      -2.0626809180     0.2991915330     0.6418298497
   11      H      -1.0091354318     2.2464980890    -0.8887051158
   12      C       0.1480528230    -0.3567804004     1.0530353877
   13      H       0.1605459321    -0.6721527440     2.0919451047
 ----------------------------------------------------------------
 Nuclear Repulsion Energy =   282.3961281492 hartrees
 There are       25 alpha and       24 beta electrons

                       Distance Matrix (Angstroms)
             C (  1)   C (  2)   C (  3)   C (  4)   C (  5)   N (  6)
   C (  2)  1.593311
   C (  3)  2.507071  1.460252
   C (  4)  2.306636  2.153214  1.523454
   C (  5)  2.181283  2.779502  2.376038  1.522472
   N (  6)  1.439778  2.603778  2.840842  2.361970  1.289172
   H (  7)  1.085236  2.273971  3.470210  3.361206  3.169987  2.166046
   H (  8)  2.313245  1.085362  2.299889  3.212011  3.828325  3.474899
   H (  9)  3.412715  2.337083  1.086711  2.385686  2.967812  3.506602
   H ( 10)  3.336653  3.111056  2.273701  1.091628  2.253266  3.307811
   H ( 11)  3.229359  3.782042  3.119932  2.314605  1.088481  2.078533
   C ( 12)  1.488538  1.538651  2.117042  1.569594  2.398771  2.433311
   H ( 13)  2.326295  2.383804  3.035867  2.398318  3.333295  3.355854
             H (  7)   H (  8)   H (  9)   H ( 10)   H ( 11)   C ( 12)
   H (  8)  2.566673
   H (  9)  4.339964  2.927527
   H ( 10)  4.354683  4.106668  2.922564
   H ( 11)  4.164746  4.818693  3.430741  2.691561
   C ( 12)  2.255996  2.389532  3.202063  2.342378  3.447680
   H ( 13)  2.751969  2.948796  4.112330  2.826496  4.332546  1.085794

 
 Applying Cartesian multipole field
    Component          Value
    ---------          -----
     (2,0,0)        1.00000E-11
     (0,2,0)        2.00000E-11
     (0,0,2)       -3.00000E-11
 Nucleus-field energy     =     0.0000000027 hartrees
 Requested basis set is 6-31G(d)
 There are 40 shells and 117 basis functions
 A cutoff of  1.0D-14 yielded    812 shell pairs
 There are      7084 function pairs
 Smallest overlap matrix eigenvalue = 1.58E-03
 Guess MOs from core Hamiltonian diagonalization
 Mixing HOMO and LUMO in initial guess
 Adding  50% of the LUMO to the HOMO
 An unrestricted hybrid HF-DFT SCF calculation will be
 performed using Pulay DIIS extrapolation
 Exchange:     0.2000 Hartree-Fock + 0.0800 Slater + 0.7200 B88
 Correlation:  0.1900 VWN1RPA + 0.8100 LYP
 Using SG-1 standard quadrature grid
 SCF converges when DIIS error is below 1.0E-08
 using 4 threads for integral computing
 -------------------------------------------------------
 OpenMP Integral computing Module                
 Release: version 1.0, May 2013, Q-Chem Inc. Pittsburgh 
 -------------------------------------------------------
 -------------------------------------------------------
 OpenMP BLAS3 based DFT computing Module                
 Release: version 1.0, May 2013, Q-Chem Inc. Pittsburgh 
 -------------------------------------------------------
 ---------------------------------------
  Cycle       Energy         DIIS Error
 ---------------------------------------
    1    -236.3737378520      1.34E-01
    2    -226.1857559775      1.10E-01
    3    -256.3508916819      1.01E-01
    4    -276.4285069642      7.26E-02
    5    -282.6961893689      4.35E-02
    6    -286.3553869866      1.57E-02
    7    -286.4670041873      1.35E-02
    8    -286.8089682928      3.93E-03
    9    -286.8256560873      2.66E-03
   10    -286.8376508335      3.11E-04
   11    -286.8378888751      1.56E-04
   12    -286.8379535573      5.61E-05
   13    -286.8379744033      2.75E-05
   14    -286.8379772124      8.21E-06
   15    -286.8379774538      1.51E-06
   16    -286.8379774799      3.83E-07
   17    -286.8379774868      2.01E-07
   18    -286.8379774886      9.31E-08
   19    -286.8379774892      3.68E-08
   20    -286.8379774894      2.32E-08
   21    -286.8379774896      9.12E-09 Convergence criterion met
 ---------------------------------------
 <S^2> = 0.7567
 SCF time:  CPU 54.35 s  wall 43.21 s
 SCF   energy in the final basis set = -286.83797749
 Total energy in the final basis set = -286.83797749
 
 --------------------------------------------------------------
 
                    Orbital Energies (a.u.)
 --------------------------------------------------------------
 
 Alpha MOs
 -- Occupied --
-14.319 -10.223 -10.220 -10.210 -10.208 -10.208 -10.206  -0.967
 -0.854  -0.750  -0.663  -0.605  -0.571  -0.536  -0.518  -0.465
 -0.438  -0.406  -0.400  -0.358  -0.337  -0.298  -0.273  -0.253
 -0.182
 -- Virtual --
  0.005   0.100   0.114   0.128   0.150   0.150   0.154   0.162
  0.177   0.201   0.221   0.261   0.280   0.294   0.350   0.393
  0.493   0.512   0.524   0.545   0.557   0.573   0.603   0.605
  0.605   0.660   0.673   0.680   0.721   0.742   0.772   0.781
  0.805   0.807   0.822   0.841   0.853   0.874   0.889   0.938
  0.960   0.974   1.043   1.099   1.207   1.241   1.327   1.392
  1.448   1.479   1.507   1.519   1.590   1.630   1.672   1.713
  1.740   1.830   1.877   1.884   1.931   1.961   1.988   2.028
  2.057   2.169   2.202   2.213   2.238   2.263   2.357   2.389
  2.450   2.494   2.503   2.545   2.589   2.628   2.665   2.678
  2.719   2.811   2.840   2.913   2.962   3.958   4.204   4.244
  4.361   4.436   4.512   4.643
 
 Beta MOs
 -- Occupied --
-14.318 -10.221 -10.219 -10.211 -10.209 -10.207 -10.194  -0.963
 -0.848  -0.743  -0.651  -0.601  -0.567  -0.529  -0.512  -0.459
 -0.434  -0.403  -0.393  -0.350  -0.332  -0.291  -0.262  -0.248
 -- Virtual --
 -0.062   0.022   0.102   0.118   0.134   0.151   0.156   0.158
  0.165   0.181   0.205   0.226   0.266   0.284   0.297   0.361
  0.395   0.497   0.519   0.531   0.553   0.559   0.578   0.607
  0.611   0.624   0.670   0.677   0.686   0.730   0.746   0.777
  0.790   0.808   0.810   0.824   0.843   0.857   0.879   0.892
  0.941   0.964   0.978   1.048   1.110   1.209   1.247   1.334
  1.394   1.451   1.485   1.519   1.526   1.598   1.638   1.676
  1.716   1.748   1.837   1.883   1.897   1.940   1.975   1.994
  2.037   2.064   2.173   2.217   2.221   2.247   2.281   2.364
  2.397   2.456   2.500   2.512   2.549   2.594   2.635   2.667
  2.686   2.727   2.816   2.845   2.915   2.963   3.960   4.220
  4.248   4.367   4.442   4.515   4.646
 --------------------------------------------------------------
 
          Ground-State Mulliken Net Atomic Charges

     Atom                 Charge (a.u.)    Spin (a.u.)
  --------------------------------------------------------
      1 C                    -0.020917       0.093180
      2 C                    -0.164742      -0.095435
      3 C                    -0.066165       0.890161
      4 C                    -0.258487      -0.065250
      5 C                     0.086688       0.039428
      6 N                    -0.343740       0.051503
      7 H                     0.150947       0.002707
      8 H                     0.147394       0.005260
      9 H                     0.137979      -0.022562
     10 H                     0.143906       0.023026
     11 H                     0.143162       0.001256
     12 C                    -0.103661       0.077640
     13 H                     0.147636      -0.000913
  --------------------------------------------------------
  Sum of atomic charges =    -0.000000
  Sum of spin   charges =     1.000000

 -----------------------------------------------------------------
                    Cartesian Multipole Moments
 -----------------------------------------------------------------
    Charge (ESU x 10^10)
                -0.0000
    Dipole Moment (Debye)
         X      -1.2367      Y      -1.4961      Z       0.8480
       Tot       2.1182
    Quadrupole Moments (Debye-Ang)
        XX     -38.8025     XY      -4.9816     YY     -43.0143
        XZ       2.2674     YZ       0.6470     ZZ     -39.4579
    Octopole Moments (Debye-Ang^2)
       XXX      -7.5809    XXY      -7.2070    XYY      -8.0282
       YYY     -19.1369    XXZ       4.0706    XYZ       2.2732
       YYZ       0.8066    XZZ      -5.6928    YZZ      -7.8939
       ZZZ       6.7303
    Hexadecapole Moments (Debye-Ang^3)
      XXXX    -221.9850   XXXY     -10.3664   XXYY     -91.7786
      XYYY     -25.5773   YYYY    -297.2683   XXXZ     -10.1589
      XXYZ       5.7552   XYYZ       1.0746   YYYZ      10.5411
      XXZZ     -63.4503   XYZZ      -2.1976   YYZZ     -72.6298
      XZZZ      -9.5652   YZZZ       9.7509   ZZZZ    -139.5018
 -----------------------------------------------------------------
 Calculating analytic gradient of the SCF energy
 Gradient of SCF Energy
            1           2           3           4           5           6
    1   0.0001924   0.0009721   0.0000624  -0.0024062  -0.0064154   0.0076780
    2   0.0001614  -0.0003868   0.0055617  -0.0008710  -0.0052260   0.0009943
    3  -0.0010584   0.0014734  -0.0016241   0.0039892  -0.0047633   0.0020322
            7           8           9          10          11          12
    1   0.0000478  -0.0000838  -0.0000417   0.0001610  -0.0000074  -0.0003119
    2   0.0001936  -0.0000490  -0.0004834  -0.0000164   0.0003063  -0.0003151
    3  -0.0001681   0.0000305   0.0001361   0.0000273   0.0007240  -0.0007501
           13
    1   0.0001528
    2   0.0001304
    3  -0.0000487
 Max gradient component =       7.678E-03
 RMS gradient           =       2.362E-03
 Gradient time:  CPU 7.53 s  wall 2.51 s
 ----------------------------------------------------------------
             Standard Nuclear Orientation (Angstroms)
    I     Atom           X                Y                Z
 ----------------------------------------------------------------
    1      C       1.2513746897     0.2396505869     0.2563827982
    2      C       0.5662198377    -1.1190863541    -0.2178624885
    3      C      -0.7399686928    -0.8686561792    -0.7983836464
    4      C      -1.0491467626     0.2214043733     0.2194525210
    5      C      -0.4147448395     1.4710206631    -0.3897923030
    6      N       0.8276053660     1.4528101136    -0.4132058186
    7      H       2.2896174437     0.1515898487     0.5583533071
    8      H       1.1973790208    -1.9979977229    -0.3305228947
    9      H      -1.1643537568    -1.0536713266    -1.7830011207
   10      H      -2.0648181909     0.2999650513     0.6472576202
   11      H      -1.0108374829     2.2355284766    -0.8999487130
   12      C       0.1493978113    -0.3571160149     1.0573163469
   13      H       0.1620554363    -0.6759556793     2.0930930972
 ----------------------------------------------------------------
 Nuclear Repulsion Energy =   283.1133939740 hartrees
 There are       25 alpha and       24 beta electrons

                       Distance Matrix (Angstroms)
             C (  1)   C (  2)   C (  3)   C (  4)   C (  5)   N (  6)
   C (  2)  1.593898
   C (  3)  2.511240  1.451154
   C (  4)  2.300890  2.144194  1.523093
   C (  5)  2.170200  2.774979  2.397250  1.528132
   N (  6)  1.449029  2.592515  2.827518  2.332127  1.242704
   H (  7)  1.084845  2.277549  3.472755  3.356646  3.154909  2.185081
   H (  8)  2.313967  1.087906  2.290769  3.205479  3.825774  3.471548
   H (  9)  3.415774  2.334271  1.088028  2.376744  2.979432  3.482340
   H ( 10)  3.339694  3.111993  2.282713  1.104888  2.273672  3.289339
   H ( 11)  3.230826  3.769057  3.117635  2.304609  1.095472  2.056560
   C ( 12)  1.487272  1.542861  2.120441  1.572645  2.398846  2.428628
   H ( 13)  2.323458  2.387515  3.035032  2.404744  3.332705  3.355016
             H (  7)   H (  8)   H (  9)   H ( 10)   H ( 11)   C ( 12)
   H (  8)  2.569788
   H (  9)  4.343330  2.929032
   H ( 10)  4.357870  4.108360  2.923923
   H ( 11)  4.166827  4.808660  3.409132  2.692792
   C ( 12)  2.255723  2.390995  3.206016  2.345774  3.449469
   H ( 13)  2.750778  2.948492  4.114139  2.828750  4.337132  1.083814

 
 Applying Cartesian multipole field
    Component          Value
    ---------          -----
     (2,0,0)        1.00000E-11
     (0,2,0)        2.00000E-11
     (0,0,2)       -3.00000E-11
 Nucleus-field energy     =     0.0000000027 hartrees
 Requested basis set is 6-31G(d)
 There are 40 shells and 117 basis functions
 A cutoff of  1.0D-14 yielded    812 shell pairs
 There are      7084 function pairs
 Smallest overlap matrix eigenvalue = 1.63E-03
 Guess MOs from core Hamiltonian diagonalization
 Mixing HOMO and LUMO in initial guess
 Adding  50% of the LUMO to the HOMO
 An unrestricted hybrid HF-DFT SCF calculation will be
 performed using Pulay DIIS extrapolation
 Exchange:     0.2000 Hartree-Fock + 0.0800 Slater + 0.7200 B88
 Correlation:  0.1900 VWN1RPA + 0.8100 LYP
 Using SG-1 standard quadrature grid
 SCF converges when DIIS error is below 1.0E-08
 using 4 threads for integral computing
 -------------------------------------------------------
 OpenMP Integral computing Module                
 Release: version 1.0, May 2013, Q-Chem Inc. Pittsburgh 
 -------------------------------------------------------
 -------------------------------------------------------
 OpenMP BLAS3 based DFT computing Module                
 Release: version 1.0, May 2013, Q-Chem Inc. Pittsburgh 
 -------------------------------------------------------
 ---------------------------------------
  Cycle       Energy         DIIS Error
 ---------------------------------------
    1    -236.1518699469      1.34E-01
    2    -225.0623595233      1.10E-01
    3    -255.5860011002      1.03E-01
    4    -278.3693426306      6.57E-02
    5    -282.2872948617      4.70E-02
    6    -286.3158167236      1.57E-02
    7    -286.4809202105      1.31E-02
    8    -286.8154724742      3.08E-03
    9    -286.8195486982      3.12E-03
   10    -286.8355841871      2.61E-04
   11    -286.8358143219      1.42E-04
   12    -286.8358734952      5.64E-05
   13    -286.8358967781      1.73E-05
   14    -286.8358983393      7.90E-06
   15    -286.8358985214      1.18E-06
   16    -286.8358985532      4.68E-07
   17    -286.8358985625      2.64E-07
   18    -286.8358985654      1.23E-07
   19    -286.8358985663      3.34E-08
   20    -286.8358985666      1.69E-08
   21    -286.8358985667      4.57E-09 Convergence criterion met
 ---------------------------------------
 <S^2> = 0.7564
 SCF time:  CPU 54.10 s  wall 38.30 s
 SCF   energy in the final basis set = -286.83589857
 Total energy in the final basis set = -286.83589857
 
 --------------------------------------------------------------
 
                    Orbital Energies (a.u.)
 --------------------------------------------------------------
 
 Alpha MOs
 -- Occupied --
-14.316 -10.225 -10.216 -10.209 -10.208 -10.208 -10.204  -0.974
 -0.862  -0.748  -0.663  -0.606  -0.571  -0.536  -0.514  -0.466
 -0.440  -0.406  -0.404  -0.357  -0.336  -0.296  -0.275  -0.259
 -0.180
 -- Virtual --
  0.014   0.100   0.114   0.128   0.149   0.150   0.152   0.161
  0.177   0.200   0.220   0.265   0.280   0.297   0.349   0.395
  0.494   0.512   0.523   0.542   0.560   0.574   0.602   0.605
  0.607   0.659   0.680   0.695   0.725   0.739   0.774   0.777
  0.805   0.806   0.820   0.841   0.854   0.876   0.890   0.937
  0.951   0.982   1.044   1.101   1.209   1.246   1.330   1.384
  1.455   1.477   1.509   1.520   1.590   1.634   1.674   1.718
  1.746   1.824   1.873   1.886   1.927   1.956   1.990   2.035
  2.056   2.170   2.212   2.228   2.240   2.265   2.368   2.388
  2.474   2.500   2.510   2.555   2.598   2.629   2.674   2.678
  2.720   2.811   2.845   2.945   2.984   3.979   4.201   4.244
  4.360   4.438   4.508   4.642
 
 Beta MOs
 -- Occupied --
-14.316 -10.223 -10.216 -10.210 -10.209 -10.206 -10.191  -0.970
 -0.856  -0.740  -0.652  -0.601  -0.567  -0.528  -0.509  -0.460
 -0.436  -0.404  -0.397  -0.349  -0.331  -0.289  -0.263  -0.253
 -- Virtual --
 -0.060   0.028   0.102   0.118   0.134   0.150   0.156   0.157
  0.164   0.181   0.204   0.226   0.269   0.284   0.299   0.361
  0.397   0.497   0.518   0.530   0.552   0.563   0.579   0.607
  0.610   0.625   0.669   0.685   0.699   0.732   0.743   0.778
  0.788   0.808   0.810   0.822   0.843   0.858   0.882   0.895
  0.940   0.956   0.985   1.049   1.112   1.211   1.252   1.337
  1.386   1.458   1.483   1.519   1.527   1.597   1.642   1.679
  1.721   1.755   1.830   1.878   1.898   1.935   1.972   1.996
  2.045   2.064   2.173   2.226   2.240   2.250   2.280   2.373
  2.398   2.482   2.504   2.520   2.559   2.601   2.636   2.678
  2.683   2.729   2.817   2.849   2.947   2.986   3.981   4.215
  4.250   4.366   4.444   4.511   4.645
 --------------------------------------------------------------
 
          Ground-State Mulliken Net Atomic Charges

     Atom                 Charge (a.u.)    Spin (a.u.)
  --------------------------------------------------------
      1 C                    -0.024038       0.098636
      2 C                    -0.165618      -0.096084
      3 C                    -0.065893       0.888411
      4 C                    -0.262047      -0.066085
      5 C                     0.097452       0.041850
      6 N                    -0.331936       0.041244
      7 H                     0.152281       0.002569
      8 H                     0.146340       0.005737
      9 H                     0.135558      -0.020803
     10 H                     0.140312       0.023958
     11 H                     0.138357       0.002255
     12 C                    -0.108837       0.079186
     13 H                     0.148069      -0.000874
  --------------------------------------------------------
  Sum of atomic charges =    -0.000000
  Sum of spin   charges =     1.000000

 -----------------------------------------------------------------
                    Cartesian Multipole Moments
 -----------------------------------------------------------------
    Charge (ESU x 10^10)
                -0.0000
    Dipole Moment (Debye)
         X      -1.0842      Y      -1.4019      Z       0.8669
       Tot       1.9729
    Quadrupole Moments (Debye-Ang)
        XX     -38.8195     XY      -4.8270     YY     -42.9846
        XZ       2.2749     YZ       0.6266     ZZ     -39.3952
    Octopole Moments (Debye-Ang^2)
       XXX      -7.0259    XXY      -7.0207    XYY      -7.5934
       YYY     -18.8150    XXZ       4.0585    XYZ       2.2511
       YYZ       1.0065    XZZ      -5.5668    YZZ      -7.7501
       ZZZ       6.6685
    Hexadecapole Moments (Debye-Ang^3)
      XXXX    -219.9988   XXXY      -9.7448   XXYY     -91.4830
      XYYY     -24.3883   YYYY    -297.7121   XXXZ     -10.1449
      XXYZ       5.6042   XYYZ       0.8052   YYYZ      10.6970
      XXZZ     -63.1154   XYZZ      -2.1468   YYZZ     -72.7322
      XZZZ      -9.7193   YZZZ       9.2630   ZZZZ    -139.6270
 -----------------------------------------------------------------
 Calculating analytic gradient of the SCF energy
 Gradient of SCF Energy
            1           2           3           4           5           6
    1   0.0039335  -0.0064359   0.0058395   0.0068105   0.0576995  -0.0575213
    2  -0.0003717   0.0037384   0.0002788   0.0004945  -0.0026103   0.0004432
    3   0.0024554  -0.0029036   0.0003676  -0.0052074   0.0001515  -0.0006730
            7           8           9          10          11          12
    1  -0.0001858   0.0003536  -0.0012316  -0.0069872  -0.0030095   0.0002914
    2  -0.0009733  -0.0014103   0.0003707  -0.0001169   0.0007859  -0.0011411
    3   0.0007714   0.0000384  -0.0002205   0.0040794  -0.0017992   0.0039825
           13
    1   0.0004432
    2   0.0005121
    3  -0.0010424
 Max gradient component =       5.770E-02
 RMS gradient           =       1.334E-02
 Gradient time:  CPU 7.56 s  wall 2.77 s
WARNING!!!!! energy has increased from optimization step!
 ----------------------------------------------------------------
             Standard Nuclear Orientation (Angstroms)
    I     Atom           X                Y                Z
 ----------------------------------------------------------------
    1      C       1.2487931945     0.2398534780     0.2546308002
    2      C       0.5700511576    -1.1217004106    -0.2161188465
    3      C      -0.7437800336    -0.8700537261    -0.7982343508
    4      C      -1.0531429986     0.2211868675     0.2219701821
    5      C      -0.4499419446     1.4735143724    -0.3890489623
    6      N       0.8625505910     1.4526426601    -0.4129638120
    7      H       2.2896059691     0.1520815147     0.5574390118
    8      H       1.1974166147    -1.9972514131    -0.3302771598
    9      H      -1.1633347602    -1.0546096147    -1.7828534085
   10      H      -2.0603821364     0.2999490907     0.6441886057
   11      H      -1.0088251962     2.2360822090    -0.8979256250
   12      C       0.1491961719    -0.3562738843     1.0547085021
   13      H       0.1615732496    -0.6759353023     2.0936237659
 ----------------------------------------------------------------
 Nuclear Repulsion Energy =   281.9377262385 hartrees
 There are       25 alpha and       24 beta electrons

                       Distance Matrix (Angstroms)
             C (  1)   C (  2)   C (  3)   C (  4)   C (  5)   N (  6)
   C (  2)  1.592522
   C (  3)  2.512124  1.458882
   C (  4)  2.302244  2.151750  1.525559
   C (  5)  2.195893  2.793820  2.397099  1.518394
   N (  6)  1.437263  2.598374  2.850202  2.364214  1.312876
   H (  7)  1.087515  2.275474  3.476211  3.360251  3.185459  2.160932
   H (  8)  2.312876  1.083148  2.292990  3.208031  3.842325  3.467094
   H (  9)  3.412527  2.337474  1.086076  2.378890  2.973723  3.502445
   H ( 10)  3.332568  3.111333  2.276605  1.094990  2.244628  3.315088
   H ( 11)  3.226477  3.772587  3.119017  2.305631  1.073693  2.085908
   C ( 12)  1.484791  1.542076  2.120088  1.572429  2.406559  2.436209
   H ( 13)  2.324352  2.387566  3.036477  2.404881  3.340322  3.362320
             H (  7)   H (  8)   H (  9)   H ( 10)   H ( 11)   C ( 12)
   H (  8)  2.569153
   H (  9)  4.342335  2.927746
   H ( 10)  4.353365  4.103653  2.920626
   H ( 11)  4.164228  4.807374  3.411103  2.689331
   C ( 12)  2.255450  2.389510  3.203462  2.341237  3.445882
   H ( 13)  2.752090  2.948583  4.114104  2.826712  4.335787  1.087052

 
 Applying Cartesian multipole field
    Component          Value
    ---------          -----
     (2,0,0)        1.00000E-11
     (0,2,0)        2.00000E-11
     (0,0,2)       -3.00000E-11
 Nucleus-field energy     =     0.0000000027 hartrees
 Requested basis set is 6-31G(d)
 There are 40 shells and 117 basis functions
 A cutoff of  1.0D-14 yielded    812 shell pairs
 There are      7084 function pairs
 Smallest overlap matrix eigenvalue = 1.65E-03
 Guess MOs from core Hamiltonian diagonalization
 Mixing HOMO and LUMO in initial guess
 Adding  50% of the LUMO to the HOMO
 An unrestricted hybrid HF-DFT SCF calculation will be
 performed using Pulay DIIS extrapolation
 Exchange:     0.2000 Hartree-Fock + 0.0800 Slater + 0.7200 B88
 Correlation:  0.1900 VWN1RPA + 0.8100 LYP
 Using SG-1 standard quadrature grid
 SCF converges when DIIS error is below 1.0E-08
 using 4 threads for integral computing
 -------------------------------------------------------
 OpenMP Integral computing Module                
 Release: version 1.0, May 2013, Q-Chem Inc. Pittsburgh 
 -------------------------------------------------------
 -------------------------------------------------------
 OpenMP BLAS3 based DFT computing Module                
 Release: version 1.0, May 2013, Q-Chem Inc. Pittsburgh 
 -------------------------------------------------------
 ---------------------------------------
  Cycle       Energy         DIIS Error
 ---------------------------------------
    1    -235.9256767179      1.35E-01
    2    -230.6128674075      1.08E-01
    3    -258.7691460752      1.02E-01
    4    -276.9795875206      7.17E-02
    5    -284.0265602654      3.68E-02
    6    -286.5631485640      1.15E-02
    7    -286.6537926762      1.00E-02
    8    -286.8293245165      1.87E-03
    9    -286.8346970058      1.24E-03
   10    -286.8369780576      2.94E-04
   11    -286.8371081083      6.86E-05
   12    -286.8371187907      2.54E-05
   13    -286.8371219088      7.18E-06
   14    -286.8371230786      2.96E-06
   15    -286.8371235090      2.07E-06
   16    -286.8371237338      6.60E-07
   17    -286.8371238273      3.05E-07
   18    -286.8371238818      2.08E-07
   19    -286.8371238902      8.97E-08
   20    -286.8371238919      2.01E-08
   21    -286.8371238920      4.95E-09 Convergence criterion met
 ---------------------------------------
 <S^2> = 0.7568
 SCF time:  CPU 54.30 s  wall 44.36 s
 SCF   energy in the final basis set = -286.83712389
 Total energy in the final basis set = -286.83712389
 
 --------------------------------------------------------------
 
                    Orbital Energies (a.u.)
 --------------------------------------------------------------
 
 Alpha MOs
 -- Occupied --
-14.321 -10.223 -10.221 -10.211 -10.209 -10.208 -10.207  -0.964
 -0.850  -0.751  -0.664  -0.606  -0.572  -0.536  -0.518  -0.466
 -0.437  -0.406  -0.399  -0.356  -0.337  -0.299  -0.271  -0.252
 -0.184
 -- Virtual --
 -0.001   0.100   0.113   0.128   0.149   0.153   0.153   0.162
  0.177   0.200   0.219   0.263   0.280   0.295   0.348   0.387
  0.494   0.513   0.524   0.544   0.556   0.572   0.603   0.604
  0.606   0.656   0.665   0.678   0.720   0.740   0.768   0.775
  0.805   0.810   0.822   0.842   0.854   0.876   0.890   0.939
  0.953   0.969   1.038   1.100   1.206   1.239   1.330   1.386
  1.440   1.469   1.507   1.517   1.591   1.631   1.672   1.712
  1.741   1.832   1.880   1.886   1.930   1.956   1.985   2.019
  2.058   2.167   2.199   2.213   2.227   2.253   2.355   2.385
  2.440   2.485   2.503   2.538   2.584   2.629   2.658   2.675
  2.716   2.809   2.838   2.898   2.952   3.945   4.199   4.243
  4.359   4.435   4.510   4.641
 
 Beta MOs
 -- Occupied --
-14.320 -10.221 -10.220 -10.212 -10.209 -10.207 -10.194  -0.960
 -0.844  -0.744  -0.652  -0.601  -0.568  -0.528  -0.512  -0.460
 -0.433  -0.403  -0.392  -0.349  -0.332  -0.293  -0.261  -0.247
 -- Virtual --
 -0.064   0.016   0.102   0.117   0.134   0.154   0.157   0.157
  0.165   0.181   0.204   0.225   0.268   0.283   0.297   0.359
  0.390   0.497   0.519   0.531   0.554   0.559   0.578   0.607
  0.609   0.624   0.661   0.673   0.684   0.729   0.744   0.773
  0.785   0.809   0.813   0.824   0.844   0.858   0.881   0.894
  0.942   0.957   0.973   1.043   1.111   1.208   1.245   1.337
  1.388   1.443   1.474   1.517   1.525   1.598   1.639   1.677
  1.715   1.749   1.839   1.886   1.898   1.938   1.971   1.992
  2.026   2.066   2.171   2.211   2.222   2.238   2.270   2.361
  2.395   2.446   2.493   2.510   2.543   2.588   2.635   2.660
  2.683   2.724   2.815   2.843   2.900   2.954   3.947   4.215
  4.247   4.365   4.440   4.513   4.645
 --------------------------------------------------------------
 
          Ground-State Mulliken Net Atomic Charges

     Atom                 Charge (a.u.)    Spin (a.u.)
  --------------------------------------------------------
      1 C                    -0.014993       0.092636
      2 C                    -0.165916      -0.095266
      3 C                    -0.063468       0.885766
      4 C                    -0.257344      -0.065523
      5 C                     0.081644       0.044061
      6 N                    -0.349179       0.048286
      7 H                     0.151008       0.002785
      8 H                     0.147776       0.004982
      9 H                     0.137877      -0.020125
     10 H                     0.143187       0.023335
     11 H                     0.146727       0.001062
     12 C                    -0.105721       0.079076
     13 H                     0.148402      -0.001078
  --------------------------------------------------------
  Sum of atomic charges =    -0.000000
  Sum of spin   charges =     1.000000

 -----------------------------------------------------------------
                    Cartesian Multipole Moments
 -----------------------------------------------------------------
    Charge (ESU x 10^10)
                -0.0000
    Dipole Moment (Debye)
         X      -1.2508      Y      -1.4962      Z       0.8527
       Tot       2.1284
    Quadrupole Moments (Debye-Ang)
        XX     -38.8652     XY      -5.0576     YY     -43.0279
        XZ       2.3495     YZ       0.5952     ZZ     -39.4380
    Octopole Moments (Debye-Ang^2)
       XXX      -7.5732    XXY      -7.2109    XYY      -8.1424
       YYY     -19.1187    XXZ       4.0373    XYZ       2.4037
       YYZ       0.7179    XZZ      -5.7452    YZZ      -7.9002
       ZZZ       6.6975
    Hexadecapole Moments (Debye-Ang^3)
      XXXX    -223.1211   XXXY     -10.5262   XXYY     -92.1219
      XYYY     -25.8155   YYYY    -298.0467   XXXZ      -9.9641
      XXYZ       5.6974   XYYZ       1.2329   YYYZ      10.0343
      XXZZ     -63.5817   XYZZ      -2.3823   YYZZ     -72.7085
      XZZZ      -9.4284   YZZZ       9.3788   ZZZZ    -139.3979
 -----------------------------------------------------------------
 Calculating analytic gradient of the SCF energy
 Gradient of SCF Energy
            1           2           3           4           5           6
    1  -0.0023173   0.0023658  -0.0005184   0.0021909  -0.0385048   0.0319251
    2  -0.0010620   0.0009993   0.0010196  -0.0008813   0.0081385  -0.0030814
    3   0.0008018   0.0001469  -0.0023509  -0.0010955  -0.0051705   0.0000321
            7           8           9          10          11          12
    1   0.0014188  -0.0014085  -0.0002136  -0.0012979   0.0049014   0.0011055
    2   0.0006409   0.0009628   0.0004978   0.0009052  -0.0074339  -0.0004745
    3   0.0002463   0.0000761   0.0008482   0.0009953   0.0042204   0.0004395
           13
    1   0.0003532
    2  -0.0002310
    3   0.0008102
 Max gradient component =       3.850E-02
 RMS gradient           =       8.384E-03
 Gradient time:  CPU 7.91 s  wall 3.92 s
 FSM gradient convergence criteria satisfied
done with opt_step_by_gradient, Reactant, iter1
-Optimizing new product side node
 Using BFGS, step: 2 E_tol 0.0133532
 max_steps 6, node_spacing 0.0481072, sigma 0.7000000
 ----------------------------------------------------------------
             Standard Nuclear Orientation (Angstroms)
    I     Atom           X                Y                Z
 ----------------------------------------------------------------
    1      C       1.3011231937     0.2513889277     0.3245508535
    2      C       0.5906546863    -1.0115622079    -0.2092267211
    3      C      -0.6562496339    -0.4215972819    -0.9014765693
    4      C      -1.0947558876     0.1952017265     0.3967313000
    5      C      -0.4547729276     1.1301219876    -0.6435510850
    6      N       0.8875811401     1.4268852930    -0.3458092013
    7      H       2.3197589210     0.1900260379     0.6916970553
    8      H       1.0997402708    -1.9445999171    -0.4230658068
    9      H      -1.2276167546    -0.8210952245    -1.7312654395
   10      H      -2.0891317939     0.3369676145     0.8054790185
   11      H      -1.0528342831     1.8637002848    -1.1730492411
   12      C       0.1482360784    -0.4101862854     1.0975418172
   13      H       0.2277761846    -0.7859723406     2.1115713992
 ----------------------------------------------------------------
 Nuclear Repulsion Energy =   287.6194738247 hartrees
 There are       25 alpha and       24 beta electrons

                       Distance Matrix (Angstroms)
             C (  1)   C (  2)   C (  3)   C (  4)   C (  5)   N (  6)
   C (  2)  1.544257
   C (  3)  2.405694  1.543386
   C (  4)  2.397625  2.159647  1.502688
   C (  5)  2.189193  2.422471  1.585860  1.538129
   N (  6)  1.414988  2.460253  2.471653  2.449096  1.406639
   H (  7)  1.084519  2.290258  3.430585  3.427235  3.219425  2.158095
   H (  8)  2.328487  1.084184  2.373165  3.172796  3.452396  3.379037
   H (  9)  3.430908  2.378863  1.083794  2.361966  2.363823  3.383337
   H ( 10)  3.425266  3.166925  2.354202  1.084415  2.323771  3.372567
   H ( 11)  3.222339  3.449224  2.335298  2.291256  1.084520  2.154146
   C ( 12)  1.537643  1.505002  2.154855  1.550051  2.401577  2.450454
   H ( 13)  2.328440  2.359804  3.161128  2.377492  3.424615  3.372062
             H (  7)   H (  8)   H (  9)   H ( 10)   H ( 11)   C ( 12)
   H (  8)  2.699587
   H (  9)  4.413274  2.896591
   H ( 10)  4.412806  4.108987  2.918628
   H ( 11)  4.201529  4.438378  2.747777  2.705439
   C ( 12)  2.289209  2.360515  3.172376  2.376837  3.430556
   H ( 13)  2.710167  2.920124  4.109355  2.887029  4.410154  1.084342

 
 Applying Cartesian multipole field
    Component          Value
    ---------          -----
     (2,0,0)        1.00000E-11
     (0,2,0)        2.00000E-11
     (0,0,2)       -3.00000E-11
 Nucleus-field energy     =     0.0000000014 hartrees
 Requested basis set is 6-31G(d)
 There are 40 shells and 117 basis functions
 A cutoff of  1.0D-14 yielded    812 shell pairs
 There are      7084 function pairs
 Smallest overlap matrix eigenvalue = 9.97E-04
 Guess MOs from core Hamiltonian diagonalization
 Mixing HOMO and LUMO in initial guess
 Adding  50% of the LUMO to the HOMO
 An unrestricted hybrid HF-DFT SCF calculation will be
 performed using Pulay DIIS extrapolation
 Exchange:     0.2000 Hartree-Fock + 0.0800 Slater + 0.7200 B88
 Correlation:  0.1900 VWN1RPA + 0.8100 LYP
 Using SG-1 standard quadrature grid
 SCF converges when DIIS error is below 1.0E-08
 using 4 threads for integral computing
 -------------------------------------------------------
 OpenMP Integral computing Module                
 Release: version 1.0, May 2013, Q-Chem Inc. Pittsburgh 
 -------------------------------------------------------
 -------------------------------------------------------
 OpenMP BLAS3 based DFT computing Module                
 Release: version 1.0, May 2013, Q-Chem Inc. Pittsburgh 
 -------------------------------------------------------
 ---------------------------------------
  Cycle       Energy         DIIS Error
 ---------------------------------------
    1    -239.8643798828      1.31E-01
    2    -232.7125085289      1.02E-01
    3    -264.9481337226      9.58E-02
    4    -281.3186231518      5.61E-02
    5    -283.6850290260      4.11E-02
    6    -286.0888385648      1.78E-02
    7    -286.7920201593      3.45E-03
    8    -286.8070203120      3.03E-03
    9    -286.8234027919      3.62E-04
   10    -286.8241484503      2.31E-04
   11    -286.8243120660      8.85E-05
   12    -286.8243572760      2.30E-05
   13    -286.8243632429      1.47E-05
   14    -286.8243645215      6.28E-06
   15    -286.8243650203      1.52E-06
   16    -286.8243650629      8.06E-07
   17    -286.8243650740      3.81E-07
   18    -286.8243650775      8.38E-08
   19    -286.8243650777      2.13E-08
   20    -286.8243650777      1.63E-08
   21    -286.8243650777      4.84E-09 Convergence criterion met
 ---------------------------------------
 <S^2> = 0.7562
 SCF time:  CPU 54.32 s  wall 29.68 s
 SCF   energy in the final basis set = -286.82436508
 Total energy in the final basis set = -286.82436508
 
 --------------------------------------------------------------
 
                    Orbital Energies (a.u.)
 --------------------------------------------------------------
 
 Alpha MOs
 -- Occupied --
-14.335 -10.216 -10.215 -10.209 -10.207 -10.207 -10.206  -0.984
 -0.838  -0.789  -0.650  -0.589  -0.573  -0.541  -0.533  -0.453
 -0.429  -0.414  -0.395  -0.384  -0.338  -0.276  -0.271  -0.248
 -0.211
 -- Virtual --
  0.090   0.093   0.118   0.148   0.148   0.155   0.165   0.178
  0.182   0.196   0.216   0.250   0.256   0.298   0.366   0.379
  0.478   0.520   0.538   0.541   0.555   0.565   0.574   0.604
  0.620   0.631   0.675   0.727   0.728   0.742   0.744   0.782
  0.788   0.800   0.829   0.831   0.848   0.855   0.917   0.938
  0.983   1.005   1.135   1.161   1.194   1.233   1.402   1.455
  1.489   1.537   1.609   1.628   1.644   1.659   1.663   1.694
  1.749   1.827   1.858   1.930   1.967   1.971   1.978   1.984
  2.044   2.127   2.138   2.240   2.268   2.397   2.411   2.487
  2.513   2.522   2.534   2.558   2.571   2.633   2.701   2.714
  2.758   2.767   2.839   2.879   2.930   3.848   4.230   4.315
  4.366   4.456   4.637   4.671
 
 Beta MOs
 -- Occupied --
-14.319 -10.218 -10.216 -10.207 -10.206 -10.205 -10.205  -0.974
 -0.813  -0.786  -0.644  -0.586  -0.567  -0.536  -0.529  -0.451
 -0.424  -0.392  -0.390  -0.378  -0.323  -0.268  -0.258  -0.243
 -- Virtual --
 -0.079   0.091   0.101   0.121   0.148   0.150   0.157   0.175
  0.181   0.185   0.201   0.224   0.258   0.260   0.299   0.369
  0.385   0.480   0.521   0.541   0.542   0.561   0.568   0.576
  0.609   0.620   0.640   0.678   0.732   0.732   0.743   0.783
  0.787   0.796   0.801   0.831   0.839   0.849   0.856   0.918
  0.944   1.000   1.010   1.139   1.163   1.204   1.234   1.403
  1.473   1.507   1.540   1.614   1.633   1.648   1.663   1.686
  1.700   1.753   1.830   1.863   1.935   1.970   1.976   1.981
  1.988   2.059   2.130   2.159   2.246   2.277   2.397   2.429
  2.501   2.520   2.528   2.540   2.565   2.603   2.634   2.705
  2.716   2.761   2.769   2.841   2.885   2.936   3.874   4.237
  4.318   4.365   4.458   4.640   4.674
 --------------------------------------------------------------
 
          Ground-State Mulliken Net Atomic Charges

     Atom                 Charge (a.u.)    Spin (a.u.)
  --------------------------------------------------------
      1 C                    -0.046189      -0.078978
      2 C                    -0.124532       0.084939
      3 C                    -0.126690       0.117390
      4 C                    -0.127300       0.083048
      5 C                    -0.043077      -0.086913
      6 N                    -0.285510       0.800389
      7 H                     0.148945       0.001067
      8 H                     0.144247      -0.002709
      9 H                     0.144776      -0.003915
     10 H                     0.143858      -0.001579
     11 H                     0.149106       0.001177
     12 C                    -0.121298       0.088967
     13 H                     0.143663      -0.002882
  --------------------------------------------------------
  Sum of atomic charges =     0.000000
  Sum of spin   charges =     1.000000

 -----------------------------------------------------------------
                    Cartesian Multipole Moments
 -----------------------------------------------------------------
    Charge (ESU x 10^10)
                 0.0000
    Dipole Moment (Debye)
         X      -1.2334      Y      -1.9199      Z       0.5004
       Tot       2.3361
    Quadrupole Moments (Debye-Ang)
        XX     -38.4463     XY      -4.1661     YY     -43.2284
        XZ       2.2409     YZ       0.3705     ZZ     -38.9810
    Octopole Moments (Debye-Ang^2)
       XXX     -10.8168    XXY      -7.8132    XYY      -8.4345
       YYY     -24.8610    XXZ       3.8372    XYZ       1.6937
       YYZ      -0.0912    XZZ      -6.1716    YZZ      -7.9265
       ZZZ       6.1646
    Hexadecapole Moments (Debye-Ang^3)
      XXXX    -226.5239   XXXY      -7.3948   XXYY     -82.9097
      XYYY     -19.3040   YYYY    -238.9872   XXXZ     -11.4169
      XXYZ       8.0707   XYYZ      -0.3034   YYYZ      19.2513
      XXZZ     -65.7639   XYZZ      -1.8189   YYZZ     -64.3105
      XZZZ     -12.0633   YZZZ      15.3080   ZZZZ    -163.2151
 -----------------------------------------------------------------
 Calculating analytic gradient of the SCF energy
 Gradient of SCF Energy
            1           2           3           4           5           6
    1  -0.0008713  -0.0013901  -0.0002683  -0.0000158   0.0014952   0.0002630
    2   0.0009818  -0.0016041  -0.0134506   0.0011829   0.0104057   0.0008054
    3   0.0005913  -0.0007891  -0.0011517   0.0008097   0.0026542  -0.0005524
            7           8           9          10          11          12
    1   0.0000377   0.0001448   0.0003390   0.0000615   0.0001833   0.0000445
    2  -0.0000265   0.0000486  -0.0000620  -0.0000513   0.0010124   0.0007952
    3  -0.0002412  -0.0000956  -0.0002013  -0.0004564   0.0006508  -0.0010721
           13
    1  -0.0000236
    2  -0.0000376
    3  -0.0001463
 Max gradient component =       1.345E-02
 RMS gradient           =       2.837E-03
 Gradient time:  CPU 7.92 s  wall 2.73 s
 ----------------------------------------------------------------
             Standard Nuclear Orientation (Angstroms)
    I     Atom           X                Y                Z
 ----------------------------------------------------------------
    1      C       1.3020535193     0.2475720336     0.3196507638
    2      C       0.5946676969    -1.0114535241    -0.2065996663
    3      C      -0.6586081858    -0.3965972819    -0.8949204628
    4      C      -1.0935756331     0.1921963371     0.3888127652
    5      C      -0.4593348639     1.1111486716    -0.6432787639
    6      N       0.8866528688     1.4258780905    -0.3462715189
    7      H       2.3187010337     0.1882620792     0.6866309449
    8      H       1.1042919550    -1.9478495691    -0.4184988024
    9      H      -1.2274667318    -0.8327990616    -1.7341835124
   10      H      -2.0892505623     0.3352482627     0.8007356622
   11      H      -1.0520496134     1.8788030624    -1.1632588058
   12      C       0.1484181646    -0.4103352113     1.0995377557
   13      H       0.2250095446    -0.7807952732     2.1117710216
 ----------------------------------------------------------------
 Nuclear Repulsion Energy =   288.3058617418 hartrees
 There are       25 alpha and       24 beta electrons

                       Distance Matrix (Angstroms)
             C (  1)   C (  2)   C (  3)   C (  4)   C (  5)   N (  6)
   C (  2)  1.537036
   C (  3)  2.394646  1.556449
   C (  4)  2.397267  2.157187  1.477784
   C (  5)  2.185289  2.409782  1.541535  1.520509
   N (  6)  1.415774  2.458729  2.451584  2.446145  1.413843
   H (  7)  1.082481  2.282426  3.421657  3.425251  3.215255  2.156233
   H (  8)  2.324618  1.086948  2.396076  3.172092  3.442808  3.381512
   H (  9)  3.432770  2.384450  1.103737  2.361283  2.357760  3.390785
   H ( 10)  3.426379  3.167293  2.336148  1.086974  2.311671  3.370623
   H ( 11)  3.225172  3.461280  2.324704  2.292443  1.100447  2.152017
   C ( 12)  1.540110  1.505482  2.151591  1.552650  2.392005  2.450925
   H ( 13)  2.330077  2.358960  3.157306  2.377807  3.411463  3.368850
             H (  7)   H (  8)   H (  9)   H ( 10)   H ( 11)   C ( 12)
   H (  8)  2.694267
   H (  9)  4.413413  2.900252
   H ( 10)  4.411877  4.110691  2.921099
   H ( 11)  4.200236  4.455081  2.776601  2.704741
   C ( 12)  2.288873  2.362643  3.178287  2.377465  3.435335
   H ( 13)  2.711760  2.921886  4.111418  2.884470  4.407966  1.080612

 
 Applying Cartesian multipole field
    Component          Value
    ---------          -----
     (2,0,0)        1.00000E-11
     (0,2,0)        2.00000E-11
     (0,0,2)       -3.00000E-11
 Nucleus-field energy     =     0.0000000014 hartrees
 Requested basis set is 6-31G(d)
 There are 40 shells and 117 basis functions
 A cutoff of  1.0D-14 yielded    812 shell pairs
 There are      7084 function pairs
 Smallest overlap matrix eigenvalue = 9.85E-04
 Guess MOs from core Hamiltonian diagonalization
 Mixing HOMO and LUMO in initial guess
 Adding  50% of the LUMO to the HOMO
 An unrestricted hybrid HF-DFT SCF calculation will be
 performed using Pulay DIIS extrapolation
 Exchange:     0.2000 Hartree-Fock + 0.0800 Slater + 0.7200 B88
 Correlation:  0.1900 VWN1RPA + 0.8100 LYP
 Using SG-1 standard quadrature grid
 SCF converges when DIIS error is below 1.0E-08
 using 4 threads for integral computing
 -------------------------------------------------------
 OpenMP Integral computing Module                
 Release: version 1.0, May 2013, Q-Chem Inc. Pittsburgh 
 -------------------------------------------------------
 -------------------------------------------------------
 OpenMP BLAS3 based DFT computing Module                
 Release: version 1.0, May 2013, Q-Chem Inc. Pittsburgh 
 -------------------------------------------------------
 ---------------------------------------
  Cycle       Energy         DIIS Error
 ---------------------------------------
    1    -239.5335074428      1.32E-01
    2    -233.3968556789      1.04E-01
    3    -266.8730163880      9.09E-02
    4    -276.5698142856      7.41E-02
    5    -283.2447224662      4.39E-02
    6    -285.9134289196      2.00E-02
    7    -286.5070942427      1.12E-02
    8    -286.7603125681      5.70E-03
    9    -286.8176896381      1.46E-03
   10    -286.8214981308      9.77E-04
   11    -286.8236423494      1.43E-04
   12    -286.8237532043      6.85E-05
   13    -286.8237754251      2.55E-05
   14    -286.8237830476      6.48E-06
   15    -286.8237840924      3.19E-06
   16    -286.8237842831      1.64E-06
   17    -286.8237843297      5.29E-07
   18    -286.8237843386      1.47E-07
   19    -286.8237843388      9.61E-08
   20    -286.8237843389      2.17E-08
   21    -286.8237843389      5.95E-09 Convergence criterion met
 ---------------------------------------
 <S^2> = 0.7557
 SCF time:  CPU 54.78 s  wall 41.57 s
 SCF   energy in the final basis set = -286.82378434
 Total energy in the final basis set = -286.82378434
 
 --------------------------------------------------------------
 
                    Orbital Energies (a.u.)
 --------------------------------------------------------------
 
 Alpha MOs
 -- Occupied --
-14.335 -10.216 -10.215 -10.208 -10.207 -10.207 -10.205  -0.988
 -0.838  -0.796  -0.647  -0.588  -0.574  -0.542  -0.531  -0.456
 -0.426  -0.414  -0.392  -0.386  -0.334  -0.276  -0.274  -0.252
 -0.212
 -- Virtual --
  0.087   0.097   0.113   0.145   0.149   0.156   0.166   0.180
  0.187   0.199   0.219   0.249   0.257   0.303   0.364   0.378
  0.476   0.521   0.536   0.539   0.563   0.570   0.574   0.610
  0.624   0.630   0.678   0.727   0.730   0.743   0.744   0.776
  0.786   0.796   0.824   0.830   0.845   0.852   0.916   0.937
  0.982   1.002   1.139   1.164   1.197   1.235   1.403   1.454
  1.492   1.537   1.625   1.629   1.655   1.663   1.668   1.683
  1.757   1.822   1.850   1.946   1.968   1.970   1.983   1.988
  2.044   2.129   2.131   2.244   2.277   2.411   2.418   2.491
  2.521   2.527   2.537   2.555   2.570   2.643   2.715   2.722
  2.754   2.775   2.839   2.883   2.935   3.846   4.234   4.316
  4.373   4.460   4.645   4.672
 
 Beta MOs
 -- Occupied --
-14.319 -10.217 -10.216 -10.207 -10.206 -10.205 -10.204  -0.978
 -0.813  -0.792  -0.642  -0.585  -0.568  -0.537  -0.528  -0.454
 -0.423  -0.391  -0.386  -0.380  -0.319  -0.270  -0.258  -0.247
 -- Virtual --
 -0.077   0.088   0.104   0.116   0.145   0.151   0.157   0.176
  0.182   0.190   0.205   0.228   0.258   0.261   0.303   0.367
  0.384   0.478   0.522   0.539   0.540   0.569   0.573   0.575
  0.614   0.625   0.639   0.681   0.732   0.734   0.745   0.777
  0.788   0.794   0.796   0.827   0.837   0.846   0.853   0.916
  0.943   1.002   1.005   1.143   1.166   1.207   1.236   1.404
  1.473   1.509   1.540   1.629   1.633   1.659   1.667   1.688
  1.692   1.761   1.825   1.854   1.951   1.972   1.973   1.985
  1.993   2.060   2.133   2.152   2.250   2.287   2.412   2.436
  2.504   2.526   2.533   2.543   2.561   2.602   2.645   2.718
  2.724   2.757   2.777   2.841   2.888   2.940   3.872   4.240
  4.319   4.372   4.461   4.647   4.676
 --------------------------------------------------------------
 
          Ground-State Mulliken Net Atomic Charges

[...]
 
          Ground-State Mulliken Net Atomic Charges

     Atom                 Charge (a.u.)    Spin (a.u.)
  --------------------------------------------------------
      1 C                    -0.047862      -0.047740
      2 C                    -0.127552       0.025111
      3 C                    -0.124356       0.406578
      4 C                    -0.152781       0.035907
      5 C                    -0.016116      -0.143250
      6 N                    -0.301895       0.647625
      7 H                     0.148406       0.000676
      8 H                     0.145155      -0.001786
      9 H                     0.150358      -0.018378
     10 H                     0.145246       0.007051
     11 H                     0.148321       0.002996
     12 C                    -0.108876       0.090169
     13 H                     0.141951      -0.004957
  --------------------------------------------------------
  Sum of atomic charges =    -0.000000
  Sum of spin   charges =     1.000000

 -----------------------------------------------------------------
                    Cartesian Multipole Moments
 -----------------------------------------------------------------
    Charge (ESU x 10^10)
                -0.0000
    Dipole Moment (Debye)
         X      -1.4505      Y      -1.9426      Z       0.5831
       Tot       2.4935
    Quadrupole Moments (Debye-Ang)
        XX     -38.3619     XY      -4.3389     YY     -43.0671
        XZ       2.3968     YZ       0.7188     ZZ     -39.3069
    Octopole Moments (Debye-Ang^2)
       XXX     -10.5121    XXY      -7.9057    XYY      -8.5874
       YYY     -23.5560    XXZ       3.8712    XYZ       1.7812
       YYZ      -0.0478    XZZ      -6.4391    YZZ      -8.2467
       ZZZ       6.4276
    Hexadecapole Moments (Debye-Ang^3)
      XXXX    -224.7780   XXXY      -7.2105   XXYY     -84.2480
      XYYY     -19.6888   YYYY    -250.5528   XXXZ     -10.2860
      XXYZ       7.9268   XYYZ       0.6797   YYYZ      17.7139
      XXZZ     -65.2933   XYZZ      -1.4223   YYZZ     -65.9418
      XZZZ     -10.4731   YZZZ      15.3540   ZZZZ    -157.8140
 -----------------------------------------------------------------
 Calculating analytic gradient of the SCF energy
 Gradient of SCF Energy
            1           2           3           4           5           6
    1   0.0058340   0.0081543   0.0018490  -0.0001073   0.0025011  -0.0024347
    2   0.0034224  -0.0221494  -0.0060972  -0.0007522   0.0067815   0.0001119
    3   0.0026570  -0.0053905   0.0054124   0.0069304   0.0028461  -0.0001421
            7           8           9          10          11          12
    1  -0.0031585  -0.0046783  -0.0015858   0.0015554  -0.0001844  -0.0086028
    2  -0.0006510   0.0104753  -0.0038857   0.0000035   0.0048498   0.0112867
    3  -0.0025645   0.0025626  -0.0054206  -0.0024521   0.0018192  -0.0165352
           13
    1   0.0008579
    2  -0.0033955
    3   0.0102773
 Max gradient component =       2.215E-02
 RMS gradient           =       6.512E-03
 Gradient time:  CPU 7.79 s  wall 2.60 s
 ----------------------------------------------------------------
             Standard Nuclear Orientation (Angstroms)
    I     Atom           X                Y                Z
 ----------------------------------------------------------------
    1      C       1.2922032838     0.2386225977     0.2991615715
    2      C       0.6027249182    -1.0451262658    -0.2162169724
    3      C      -0.6740819195    -0.5292591280    -0.8761279639
    4      C      -1.0835758541     0.1930976774     0.3582033650
    5      C      -0.4500535930     1.2383179353    -0.5595972041
    6      N       0.8729103418     1.4229046681    -0.3777834308
    7      H       2.3118960801     0.1724479142     0.6469228256
    8      H       1.1313131932    -1.9549333944    -0.3938047641
    9      H      -1.2198439674    -0.8912430271    -1.7497535735
   10      H      -2.0852227731     0.3202064346     0.7523892247
   11      H      -1.0442919089     1.9735564559    -1.0970671201
   12      C       0.1412730825    -0.3900009848     1.0855308808
   13      H       0.2007507899    -0.7524534308     2.1248563931
 ----------------------------------------------------------------
 Nuclear Repulsion Energy =   286.3437307792 hartrees
 There are       25 alpha and       24 beta electrons

                       Distance Matrix (Angstroms)
             C (  1)   C (  2)   C (  3)   C (  4)   C (  5)   N (  6)
   C (  2)  1.545641
   C (  3)  2.416035  1.527035
   C (  4)  2.376949  2.169509  1.487635
   C (  5)  2.184563  2.537788  1.809616  1.528461
   N (  6)  1.427090  2.488027  2.540172  2.425271  1.348096
   H (  7)  1.079394  2.269089  3.424637  3.407787  3.196895  2.164335
   H (  8)  2.306030  1.067095  2.350454  3.175734  3.567221  3.387745
   H (  9)  3.432933  2.386875  1.091838  2.374415  2.558140  3.408402
   H ( 10)  3.408677  3.166606  2.316242  1.083898  2.288671  3.353175
   H ( 11)  3.227795  3.549790  2.539676  2.299867  1.087460  2.120436
   C ( 12)  1.529112  1.528618  2.128920  1.539241  2.389045  2.441968
   H ( 13)  2.346628  2.393296  3.133856  2.380047  3.404851  3.383369
             H (  7)   H (  8)   H (  9)   H ( 10)   H ( 11)   C ( 12)
   H (  8)  2.646250
   H (  9)  4.398714  2.915129
   H ( 10)  4.400865  4.103185  2.911565
   H ( 11)  4.189211  4.545423  2.943449  2.690277
   C ( 12)  2.284804  2.370153  3.184764  2.360649  3.428659
   H ( 13)  2.738004  2.942033  4.129159  2.874011  4.400233  1.102319

 
 Applying Cartesian multipole field
    Component          Value
    ---------          -----
     (2,0,0)        1.00000E-11
     (0,2,0)        2.00000E-11
     (0,0,2)       -3.00000E-11
 Nucleus-field energy     =     0.0000000017 hartrees
 Requested basis set is 6-31G(d)
 There are 40 shells and 117 basis functions
 A cutoff of  1.0D-14 yielded    812 shell pairs
 There are      7084 function pairs
 Smallest overlap matrix eigenvalue = 1.01E-03
 Guess MOs from core Hamiltonian diagonalization
 Mixing HOMO and LUMO in initial guess
 Adding  50% of the LUMO to the HOMO
 An unrestricted hybrid HF-DFT SCF calculation will be
 performed using Pulay DIIS extrapolation
 Exchange:     0.2000 Hartree-Fock + 0.0800 Slater + 0.7200 B88
 Correlation:  0.1900 VWN1RPA + 0.8100 LYP
 Using SG-1 standard quadrature grid
 SCF converges when DIIS error is below 1.0E-08
 using 4 threads for integral computing
 -------------------------------------------------------
 OpenMP Integral computing Module                
 Release: version 1.0, May 2013, Q-Chem Inc. Pittsburgh 
 -------------------------------------------------------
 -------------------------------------------------------
 OpenMP BLAS3 based DFT computing Module                
 Release: version 1.0, May 2013, Q-Chem Inc. Pittsburgh 
 -------------------------------------------------------
 ---------------------------------------
  Cycle       Energy         DIIS Error
 ---------------------------------------
    1    -238.4055043854      1.34E-01
    2    -233.4469115667      1.06E-01
    3    -267.6811727972      8.85E-02
    4    -273.3343949638      7.68E-02
    5    -281.3652058291      5.27E-02
    6    -285.4007807335      2.62E-02
    7    -286.1847737430      1.72E-02
    8    -286.6613031058      8.15E-03
    9    -286.7776532522      4.45E-03
   10    -286.8114624797      8.13E-04
   11    -286.8137925679      5.04E-04
   12    -286.8143939747      2.35E-04
   13    -286.8146335128      1.37E-04
   14    -286.8147395289      4.83E-05
   15    -286.8147501855      1.03E-05
   16    -286.8147509546      1.86E-06
   17    -286.8147510585      8.86E-07
   18    -286.8147510860      3.99E-07
   19    -286.8147510908      1.61E-07
   20    -286.8147510916      6.69E-08
   21    -286.8147510918      3.64E-08
   22    -286.8147510918      6.87E-09 Convergence criterion met
 ---------------------------------------
 <S^2> = 0.7682
 SCF time:  CPU 56.90 s  wall 43.14 s
 SCF   energy in the final basis set = -286.81475109
 Total energy in the final basis set = -286.81475109
 
 --------------------------------------------------------------
 
                    Orbital Energies (a.u.)
 --------------------------------------------------------------
 
 Alpha MOs
 -- Occupied --
-14.324 -10.220 -10.219 -10.215 -10.210 -10.208 -10.204  -0.979
 -0.842  -0.776  -0.654  -0.594  -0.572  -0.539  -0.531  -0.447
 -0.441  -0.410  -0.403  -0.379  -0.342  -0.280  -0.267  -0.245
 -0.194
 -- Virtual --
  0.073   0.092   0.105   0.123   0.150   0.154   0.160   0.169
  0.181   0.202   0.215   0.252   0.263   0.291   0.372   0.395
  0.482   0.510   0.529   0.541   0.548   0.570   0.573   0.601
  0.616   0.647   0.673   0.724   0.733   0.742   0.755   0.790
  0.797   0.806   0.827   0.829   0.849   0.854   0.908   0.943
  0.986   1.010   1.111   1.155   1.193   1.225   1.405   1.455
  1.469   1.496   1.533   1.619   1.626   1.655   1.659   1.708
  1.733   1.832   1.868   1.893   1.956   1.979   1.987   2.027
  2.062   2.135   2.163   2.229   2.285   2.374   2.402   2.473
  2.488   2.512   2.547   2.560   2.590   2.609   2.661   2.693
  2.748   2.789   2.840   2.894   2.939   3.890   4.216   4.317
  4.341   4.453   4.608   4.671
 
 Beta MOs
 -- Occupied --
-14.312 -10.222 -10.215 -10.214 -10.209 -10.206 -10.203  -0.969
 -0.824  -0.771  -0.645  -0.591  -0.567  -0.534  -0.525  -0.445
 -0.435  -0.400  -0.394  -0.370  -0.328  -0.274  -0.253  -0.230
 -- Virtual --
 -0.079   0.086   0.098   0.112   0.128   0.150   0.157   0.162
  0.175   0.183   0.208   0.220   0.258   0.269   0.292   0.377
  0.399   0.484   0.514   0.530   0.544   0.556   0.574   0.578
  0.606   0.618   0.655   0.677   0.730   0.738   0.746   0.780
  0.798   0.800   0.811   0.830   0.837   0.851   0.854   0.910
  0.948   0.995   1.019   1.116   1.159   1.201   1.228   1.408
  1.464   1.484   1.507   1.536   1.626   1.635   1.662   1.673
  1.713   1.740   1.839   1.873   1.898   1.961   1.981   1.994
  2.031   2.073   2.140   2.180   2.235   2.294   2.378   2.416
  2.483   2.498   2.523   2.556   2.569   2.595   2.626   2.666
  2.697   2.751   2.792   2.843   2.899   2.944   3.910   4.226
  4.322   4.339   4.455   4.613   4.675
 --------------------------------------------------------------
 
          Ground-State Mulliken Net Atomic Charges

     Atom                 Charge (a.u.)    Spin (a.u.)
  --------------------------------------------------------
      1 C                    -0.047487      -0.043901
      2 C                    -0.128756       0.019678
      3 C                    -0.122490       0.433335
      4 C                    -0.156579       0.031521
      5 C                    -0.012819      -0.146207
      6 N                    -0.304223       0.630221
      7 H                     0.148404       0.000633
      8 H                     0.145170      -0.001600
      9 H                     0.150725      -0.019796
     10 H                     0.145321       0.007907
     11 H                     0.148315       0.003188
     12 C                    -0.107634       0.089966
     13 H                     0.142056      -0.004945
  --------------------------------------------------------
  Sum of atomic charges =    -0.000000
  Sum of spin   charges =     1.000000

 -----------------------------------------------------------------
                    Cartesian Multipole Moments
 -----------------------------------------------------------------
    Charge (ESU x 10^10)
                -0.0000
    Dipole Moment (Debye)
         X      -1.4686      Y      -1.9473      Z       0.5835
       Tot       2.5078
    Quadrupole Moments (Debye-Ang)
        XX     -38.3598     XY      -4.3525     YY     -43.0868
        XZ       2.4254     YZ       0.7268     ZZ     -39.2943
    Octopole Moments (Debye-Ang^2)
       XXX     -10.5185    XXY      -7.9053    XYY      -8.5983
       YYY     -23.5563    XXZ       3.8700    XYZ       1.8048
       YYZ      -0.0369    XZZ      -6.4821    YZZ      -8.2583
       ZZZ       6.3747
    Hexadecapole Moments (Debye-Ang^3)
      XXXX    -224.6429   XXXY      -7.2253   XXYY     -84.3496
      XYYY     -19.7099   YYYY    -251.4180   XXXZ     -10.2026
      XXYZ       7.9197   XYYZ       0.7322   YYYZ      17.6201
      XXZZ     -65.2173   XYZZ      -1.4649   YYZZ     -66.0401
      XZZZ     -10.3474   YZZZ      15.2641   ZZZZ    -157.4634
 -----------------------------------------------------------------
 Calculating analytic gradient of the SCF energy
 Gradient of SCF Energy
            1           2           3           4           5           6
    1   0.0061018   0.0081240   0.0022904  -0.0003367   0.0017989  -0.0019485
    2   0.0033663  -0.0218170  -0.0041869  -0.0009760   0.0052159   0.0000040
    3   0.0027210  -0.0053565   0.0049671   0.0072895   0.0015031   0.0002387
            7           8           9          10          11          12
    1  -0.0030802  -0.0048929  -0.0016400   0.0013878  -0.0001346  -0.0086743
    2  -0.0006238   0.0106107  -0.0036205   0.0000643   0.0042709   0.0110994
    3  -0.0024895   0.0025589  -0.0051492  -0.0021496   0.0018971  -0.0163814
           13
    1   0.0010043
    2  -0.0034071
    3   0.0103509
 Max gradient component =       2.182E-02
 RMS gradient           =       6.368E-03
 Gradient time:  CPU 7.63 s  wall 3.29 s
 E1 = -286.8149572, E2 = -286.8147511, Emax = -286.8148456
 Iteration 5, Curvature = -0.5074326
 Curvature, final (in Hartree/Bohr^2) = -0.1420956
 ----------------------------------------------------------------
             Standard Nuclear Orientation (Angstroms)
    I     Atom           X                Y                Z
 ----------------------------------------------------------------
    1      C       1.2925486420     0.2387220203     0.2992060469
    2      C       0.6026039043    -1.0448595786    -0.2158772988
    3      C      -0.6737704194    -0.5259070848    -0.8768954672
    4      C      -1.0839480474     0.1928656405     0.3593203374
    5      C      -0.4505212911     1.2350227918    -0.5621894658
    6      N       0.8733074126     1.4228975976    -0.3769622823
    7      H       2.3121287688     0.1724650267     0.6470768929
    8      H       1.1310975597    -1.9548044578    -0.3938457926
    9      H      -1.2198187755    -0.8908145864    -1.7494215132
   10      H      -2.0855531828     0.3202215649     0.7528298083
   11      H      -1.0443341748     1.9730328413    -1.0969474755
   12      C       0.1412966212    -0.3902588351     1.0855364403
   13      H       0.2009631934    -0.7524459124     2.1248804154
 ----------------------------------------------------------------
 Nuclear Repulsion Energy =   286.3742365572 hartrees
 There are       25 alpha and       24 beta electrons
 Requested basis set is 6-31G(d)
 There are 40 shells and 117 basis functions
 Geometry Optimization Parameters
   NAtoms,    NIC,     NZ,  NCons,   NDum,   NFix, NCnnct, MaxDiis
       13     151       0       0       0       0       0       0


** GEOMETRY OPTIMIZATION IN DELOCALIZED INTERNAL COORDINATES **
   Searching for a Minimum

   Optimization Cycle:   1

                       Coordinates (Angstroms)
     ATOM                X               Y               Z
      1  C         1.2925486420    0.2387220203    0.2992060469
      2  C         0.6026039043   -1.0448595786   -0.2158772988
      3  C        -0.6737704194   -0.5259070848   -0.8768954672
      4  C        -1.0839480474    0.1928656405    0.3593203374
      5  C        -0.4505212911    1.2350227918   -0.5621894658
      6  N         0.8733074126    1.4228975976   -0.3769622823
      7  H         2.3121287688    0.1724650267    0.6470768929
      8  H         1.1310975597   -1.9548044578   -0.3938457926
      9  H        -1.2198187755   -0.8908145864   -1.7494215132
     10  H        -2.0855531828    0.3202215649    0.7528298083
     11  H        -1.0443341748    1.9730328413   -1.0969474755
     12  C         0.1412966212   -0.3902588351    1.0855364403
     13  H         0.2009631934   -0.7524459124    2.1248804154
   Point Group: c1    Number of degrees of freedom:    33


   Energy is   -286.814751092


 Attempting to Generate Delocalized Internal Coordinates

 33 Hessian modes will be used to form the next step
  Hessian Eigenvalues:
     0.012038    0.014058    0.015445    0.017830    0.018296    0.019837
     0.021723    0.023807    0.051374    0.054470    0.065441    0.069845
     0.076459    0.085366    0.091107    0.106685    0.117362    0.139058
     0.153829    0.168191    0.198640    0.227650    0.245364    0.272879
     0.283422    0.334335    0.345739    0.350719    0.355577    0.360757
     0.365571    0.375825    0.477288

 Minimum Search - Taking Simple RFO Step
 Searching for Lamda that Minimizes Along All modes
 Value Taken    Lamda =  -0.00258294
 Step Taken.  Stepsize is  0.193620

                             Maximum     Tolerance    Cnvgd?
         Gradient           0.011276      0.000300      NO
         Displacement       0.104860      0.001200      NO
         Energy change     *********      0.000001      NO


 New Cartesian Coordinates Obtained by Inverse Iteration

 Displacement from previous Coordinates is:  0.178976
 ----------------------------------------------------------------
             Standard Nuclear Orientation (Angstroms)
    I     Atom           X                Y                Z
 ----------------------------------------------------------------
    1      C       1.2894896980     0.2424476249     0.3120398859
    2      C       0.6004902624    -1.0268513121    -0.2177277144
    3      C      -0.6791641257    -0.5115031047    -0.8718189525
    4      C      -1.0809978684     0.1979155161     0.3666358470
    5      C      -0.4505210357     1.2252964157    -0.5712221666
    6      N       0.8728273475     1.4200164030    -0.3769571657
    7      H       2.3105744271     0.1825501350     0.6730604650
    8      H       1.1318451339    -1.9506289610    -0.4153674465
    9      H      -1.2316425760    -0.8640758377    -1.7336705612
   10      H      -2.0816383921     0.3274994783     0.7701195549
   11      H      -1.0387841572     1.9320868201    -1.1465349762
   12      C       0.1473107141    -0.4026827178     1.0954940539
   13      H       0.2062107832    -0.7759334316     2.1126598221
 ----------------------------------------------------------------
 Nuclear Repulsion Energy =   286.8017488230 hartrees
 There are       25 alpha and       24 beta electrons

































 Eigenvalues after right structure
 -0.1703118 -0.0000000 -0.0000000 0.0000000 0.0000000 0.0000000 0.0000241 0.0170904 0.0391357 0.0422956 0.0459951 0.0477840 0.0653473 0.0751034 0.0836963 0.0899562 0.0939143 0.1403595 0.1533492 0.1691702 0.2232707 0.2477323 0.2635117 0.2703133 0.3083382 0.3748917 0.4179828 0.4825175 0.5530103 0.7147233 0.7509757 0.9648385 1.0944703 1.1584198 1.2376308 1.2483446 1.2846764 1.4065903 1.5328787
Archival summary:
1\1\c8-66\JobtypUnspecified\ProcedureUnspecified\6-31G*\166(2)\hpark21\TueMar123:13:022022TueMar123:13:022022\0\\#,JobtypUnspecified,ProcedureUnspecified,6-31G*,\\0,2\N\C,1,1.35163\H,2,1.08471,1,120.886\C,1,1.42653,2,103.678,3,-175.314,0\H,4,1.08468,1,118.77,2,-174.474,0\C,2,1.52728,1,114.382,3,-164.183,0\H,6,1.08668,2,121.865,1,142.424,0\C,6,1.48274,2,72.3665,1,-93.2158,0\H,8,1.08274,6,133.029,2,-102.232,0\C,8,1.52674,6,91.7655,2,99.272,0\H,10,1.08387,8,128.351,6,149.276,0\C,10,1.52299,8,88.95,6,4.43611,0\H,12,1.08509,10,130.629,8,139.285,0\\\@

 Total job time:  4407.29s(wall), 5943.53s(cpu) 
 Tue Mar  1 23:13:02 2022

        *************************************************************
        *                                                           *
        *  Thank you very much for using Q-Chem.  Have a nice day.  *
        *                                                           *
        *************************************************************


