
Running Job 1 of 1 qcts2.in
qchem qcts2.in_26955.0 ./qcts2.d/ 1
/home/leeping/opt/qchem/5.0.2-openmp/exe/qcprog.exe_s qcts2.in_26955.0 ./qcts2.d/
Check license passed

                  Welcome to Q-Chem
     A Quantum Leap Into The Future Of Chemistry


 Q-Chem 5.0, Q-Chem, Inc., Pleasanton, CA (2017)

 Yihan Shao,  Zhengting Gan,  E. Epifanovsky,  A. T. B. Gilbert,  M. Wormit,  
 J. Kussmann,  A. W. Lange,  A. Behn,  Jia Deng,  Xintian Feng,  D. Ghosh,  
 M. Goldey,  P. R. Horn,  L. D. Jacobson,  I. Kaliman,  T. Kus,  A. Landau,  
 Jie Liu,  E. I. Proynov,  R. M. Richard,  R. P. Steele,  E. J. Sundstrom,  
 H. L. Woodcock III,  P. M. Zimmerman,  D. Zuev,  B. Albrecht,  E. Alguire,  
 S. A. Baeppler,  D. Barton,  Z. Benda,  Y. A. Bernard,  E. J. Berquist,  
 K. B. Bravaya,  H. Burton,  D. Casanova,  Chun-Min Chang,  Yunqing Chen,  
 A. Chien,  K. D. Closser,  M. P. Coons,  S. Dasgupta,  A. L. Dempwolff,  
 M. Diedenhofen,  Hainam Do,  R. G. Edgar,  Po-Tung Fang,  S. Fatehi,  
 Qingguo Feng,  J. Fosso-Tande,  Qinghui Ge,  A. Ghysels,  G. Gidofalvi,  
 J. Gomes,  J. Gonthier,  A. Gunina,  M. W. D. Hanson-Heine,  
 P. H. P. Harbach,  A. W. Hauser,  J. E. Herr,  E. G. Hohenstein,  
 Z. C. Holden,  Kerwin Hui,  T.-C. Jagau,  Hyunjun Ji,  B. Kaduk,  
 K. Khistyaev,  Jaehoon Kim,  P. Klunzinger,  K. Koh,  D. Kosenkov,  
 L. Koulias,  T. Kowalczyk,  C. M. Krauter,  A. Kunitsa,  Ka Un Lao,  
 A. Laurent,  K. V. Lawler,  Joonho Lee,  D. Lefrancois,  S. Lehtola,  
 D. S. Levine,  Yi-Pei Li,  You-Sheng Lin,  Fenglai Liu,  E. Livshits,  
 A. Luenser,  P. Manohar,  E. Mansoor,  S. F. Manzer,  Shan-Ping Mao,  
 Yuezhi Mao,  N. Mardirossian,  A. V. Marenich,  T. Markovich,  
 L. A. Martinez-Martinez,  S. A. Maurer,  N. J. Mayhall,  S. C. McKenzie,  
 J.-M. Mewes,  A. F. Morrison,  J. W. Mullinax,  K. Nanda,  
 T. S. Nguyen-Beck,  R. Olivares-Amaya,  J. A. Parkhill,  T. M. Perrine,  
 F. Plasser,  S. Prager,  A. Prociuk,  E. Ramos,  D. R. Rehn,  F. Rob,  
 M. Schneider,  N. Sergueev,  S. M. Sharada,  S. Sharma,  D. W. Small,  
 T. Stauch,  T. Stein,  Yu-Chuan Su,  A. J. W. Thom,  A. Tkatchenko,  
 T. Tsuchimochi,  L. Vogt,  O. Vydrov,  M. A. Watson,  J. Wenzel,  
 M. de Wergifosse,  T. A. Wesolowski,  A. White,  J. Witte,  A. Yamada,  
 Jun Yang,  K. Yao,  S. Yeganeh,  S. R. Yost,  Zhi-Qiang You,  A. Zech,  
 Igor Ying Zhang,  Xing Zhang,  Yan Zhao,  Ying Zhu,  B. R. Brooks,  
 G. K. L. Chan,  C. J. Cramer,  M. S. Gordon,  W. J. Hehre,  A. Klamt,  
 M. W. Schmidt,  C. D. Sherrill,  D. G. Truhlar,  A. Aspuru-Guzik,  R. Baer,  
 A. T. Bell,  N. A. Besley,  Jeng-Da Chai,  R. A. DiStasio Jr.,  A. Dreuw,  
 B. D. Dunietz,  T. R. Furlani,  Chao-Ping Hsu,  Yousung Jung,  Jing Kong,  
 D. S. Lambrecht,  WanZhen Liang,  C. Ochsenfeld,  V. A. Rassolov,  
 L. V. Slipchenko,  J. E. Subotnik,  T. Van Voorhis,  J. M. Herbert,  
 A. I. Krylov,  P. M. W. Gill,  M. Head-Gordon

 Contributors to earlier versions of Q-Chem not listed above: 
 R. D. Adamson,  B. Austin,  J. Baker,  G. J. O. Beran,  K. Brandhorst,  
 S. T. Brown,  E. F. C. Byrd,  A. K. Chakraborty,  C.-L. Cheng,  
 Siu Hung Chien,  D. M. Chipman,  D. L. Crittenden,  H. Dachsel,  
 R. J. Doerksen,  A. D. Dutoi,  L. Fusti-Molnar,  W. A. Goddard III,  
 A. Golubeva-Zadorozhnaya,  S. R. Gwaltney,  G. Hawkins,  A. Heyden,  
 S. Hirata,  G. Kedziora,  F. J. Keil,  C. Kelley,  Jihan Kim,  R. A. King,  
 R. Z. Khaliullin,  P. P. Korambath,  W. Kurlancheek,  A. M. Lee,  M. S. Lee,  
 S. V. Levchenko,  Ching Yeh Lin,  D. Liotard,  R. C. Lochan,  I. Lotan,  
 P. E. Maslen,  N. Nair,  D. P. O'Neill,  D. Neuhauser,  E. Neuscamman,  
 C. M. Oana,  R. Olson,  B. Peters,  R. Peverati,  P. A. Pieniazek,  
 Y. M. Rhee,  J. Ritchie,  M. A. Rohrdanz,  E. Rosta,  N. J. Russ,  
 H. F. Schaefer III,  N. E. Schultz,  N. Shenvi,  A. C. Simmonett,  A. Sodt,  
 D. Stuck,  K. S. Thanthiriwatte,  V. Vanovschi,  Tao Wang,  A. Warshel,  
 C. F. Williams,  Q. Wu,  X. Xu,  W. Zhang

 Please cite Q-Chem as follows:
 Y. Shao et al., Mol. Phys. 113, 184-215 (2015)
 DOI: 10.1080/00268976.2014.952696

 Q-Chem 5.0.2 for Intel X86 EM64T Linux

 Parts of Q-Chem use Armadillo 5.200.1 (Boston Tea Smuggler).
 http://arma.sourceforge.net/

 Q-Chem begins on Tue Mar  1 23:29:14 2022  

Host: 
0

     Scratch files written to ./qcts2.d//
 Dec517 15110_ 26548  26544 5633   
Processing $rem in /home/leeping/opt/qchem/5.0.2-openmp/config/preferences.
 MEM_STATIC 2000
 MEM_TOTAL  8000
 SYMMETRY   OFF
 SYM_IGNORE TRUE 

Checking the input file for inconsistencies... 	...done.

--------------------------------------------------------------
User input:
--------------------------------------------------------------
$molecule
0 2
C        1.2876038416    0.2386410957    0.3030429905
C        0.6006103315   -1.0315480416   -0.2151223961
C       -0.6818119828   -0.5466875834   -0.8638848106
C       -1.0796018777    0.1983095164    0.3543473636
C       -0.4469097100    1.2579465208   -0.5368276513
N        0.8706245166    1.4235013203   -0.3853395351
H        2.3109143137    0.1803299701    0.6585790020
H        1.1302045148   -1.9580830527   -0.4061364024
H       -1.2212163308   -0.8576167314   -1.7492607362
H       -2.0793991958    0.3228800339    0.7644001837
H       -1.0436345423    1.9337557960   -1.1404132233
C        0.1502455163   -0.3974376720    1.0974321517
H        0.1983708159   -0.7678541439    2.1158937091
$end

$rem
method                b3lyp
basis                 6-31+g(d,p)
unrestricted          true
symmetry              off
sym_ignore            true
incdft                false
incfock               0
scf_convergence       8
thresh                14
jobtype               sp
scf_guess             core
scf_guess_mix         5
scf_algorithm         diis
max_scf_cycles        100
$end

--------------------------------------------------------------
 ----------------------------------------------------------------
             Standard Nuclear Orientation (Angstroms)
    I     Atom           X                Y                Z
 ----------------------------------------------------------------
    1      C       1.2876038416     0.2386410957     0.3030429905
    2      C       0.6006103315    -1.0315480416    -0.2151223961
    3      C      -0.6818119828    -0.5466875834    -0.8638848106
    4      C      -1.0796018777     0.1983095164     0.3543473636
    5      C      -0.4469097100     1.2579465208    -0.5368276513
    6      N       0.8706245166     1.4235013203    -0.3853395351
    7      H       2.3109143137     0.1803299701     0.6585790020
    8      H       1.1302045148    -1.9580830527    -0.4061364024
    9      H      -1.2212163308    -0.8576167314    -1.7492607362
   10      H      -2.0793991958     0.3228800339     0.7644001837
   11      H      -1.0436345423     1.9337557960    -1.1404132233
   12      C       0.1502455163    -0.3974376720     1.0974321517
   13      H       0.1983708159    -0.7678541439     2.1158937091
 ----------------------------------------------------------------
 Nuclear Repulsion Energy =   286.4237201254 hartrees
 There are       25 alpha and       24 beta electrons
 Requested basis set is 6-31+G(d,p)
 There are 53 shells and 163 basis functions

 Total QAlloc Memory Limit   8000 MB
 Mega-Array Size      1956 MB
 MEM_STATIC part      2000 MB

                       Distance Matrix (Angstroms)
             C (  1)   C (  2)   C (  3)   C (  4)   C (  5)   N (  6)
   C (  2)  1.534222
   C (  3)  2.420136  1.516769
   C (  4)  2.368105  2.158694  1.482345
   C (  5)  2.180115  2.538223  1.849013  1.522276
   N (  6)  1.432353  2.475712  2.553568  2.419011  1.336508
   H (  7)  1.084883  2.270934  3.435529  3.404186  3.193094  2.170179
   H (  8)  2.313721  1.084169  2.342002  3.179876  3.584301  3.391597
   H (  9)  3.421682  2.388071  1.082370  2.358008  2.558350  3.382245
   H ( 10)  3.399508  3.158543  2.315321  1.087776  2.287480  3.352001
   H ( 11)  3.223609  3.514645  2.521901  2.290715  1.084949  2.120114
   C ( 12)  1.526183  1.525688  2.135734  1.555511  2.401603  2.456293
   H ( 13)  2.342197  2.380119  3.114918  2.381120  3.399586  3.392658
             H (  7)   H (  8)   H (  9)   H ( 10)   H ( 11)   C ( 12)
   H (  8)  2.664677
   H (  9)  4.398974  2.923044
   H ( 10)  4.393902  4.107859  2.906638
   H ( 11)  4.190927  4.517870  2.862515  2.701119
   C ( 12)  2.279232  2.378372  3.193170  2.366661  3.444962
   H ( 13)  2.735993  2.940339  4.118580  2.864345  4.409627  1.084799

 
 A cutoff of  1.0D-14 yielded   1405 shell pairs
 There are     13517 function pairs
 
 -------------------------------------------------------
 OpenMP Integral Computing Module                       
 Release: version 1.0, May 2013, Q-Chem Inc. Pittsburgh 
 -------------------------------------------------------
 Integral Job Info:
 Integral job number is                      11
 Integral operator is                         1
 short-range coefficients                     0
 long-range coefficients              100000000
 Omega coefficients                           0
 if combine SR and LR in K                    0
 Integral screening is                        0
 Integral computing path is                   2
 max size of driver memory is            800000
 size of driver memory is                593474
 size of scratch memory is              2361544
 max col of scratch BK array               1296
 max len of scratch array in speh3          155
 max len of scratch index in speh4           18
 max int batch size is                      520
 min int batch size is                       52
 fixed nKL is                                52
 max L of basis functions is                  2
 order of int derivative is                   0
 number of shells is                         53
 number of basis is                         163
 number of cartesian basis is               163
 number of contracted shell pairs          1405
 number of primitive shell pairs           4888
 maxK2 (contraction) of shell pair           36
 max number of K2 of shell pair               1
 max number of CS2 of shell pair            126
 max number of PS2 of shell pair            702
 mem total for path MDJ                  535308
 -------------------------------------------------------
 Smallest overlap matrix eigenvalue = 1.83E-05

 Scale SEOQF with 1.000000e-01/1.000000e-01/1.000000e-01

 Standard Electronic Orientation quadrupole field applied
 Nucleus-field energy     =     0.0000000017 hartrees
 Guess MOs from core Hamiltonian diagonalization
 Mixing HOMO and LUMO in initial guess
 Adding  50% of the LUMO to the HOMO
 An unrestricted hybrid HF-DFT SCF calculation will be
 performed using Pulay DIIS extrapolation
 Exchange:     0.2000 Hartree-Fock + 0.0800 Slater + 0.7200 B88
 Correlation:  0.1900 VWN1RPA + 0.8100 LYP
 Using SG-1 standard quadrature grid
 SCF converges when DIIS error is below 1.0E-08
 using 4 threads for integral computing
 -------------------------------------------------------
 OpenMP Integral computing Module                
 Release: version 1.0, May 2013, Q-Chem Inc. Pittsburgh 
 -------------------------------------------------------
 -------------------------------------------------------
 OpenMP BLAS3 based DFT computing Module                
 Release: version 1.0, May 2013, Q-Chem Inc. Pittsburgh 
 -------------------------------------------------------
 ---------------------------------------
  Cycle       Energy         DIIS Error
 ---------------------------------------
    1    -237.9463270450      9.75E-02
    2    -212.1860040357      7.18E-02
    3    -265.8960088734      6.84E-02
    4    -272.8223929955      5.76E-02
    5    -277.0623849377      4.77E-02
    6    -284.9060049252      2.20E-02
    7    -286.0777062571      1.34E-02
    8    -286.6468164846      6.91E-03
    9    -286.8046275856      2.89E-03
   10    -286.8302964208      1.23E-03
   11    -286.8358750099      2.70E-04
   12    -286.8363104077      2.51E-04
   13    -286.8366124140      5.45E-05
   14    -286.8366981455      2.25E-05
   15    -286.8367087002      1.51E-05
   16    -286.8367142465      2.55E-06
   17    -286.8367145439      9.33E-07
   18    -286.8367145717      4.53E-07
   19    -286.8367145834      1.71E-07
   20    -286.8367145864      5.17E-08
   21    -286.8367145867      1.74E-08
   22    -286.8367145867      6.14E-09 Convergence criterion met
 ---------------------------------------
 <S^2> = 0.7707
 SCF time:  CPU 114.21 s  wall 57.69 s
 SCF   energy in the final basis set = -286.83671459
 Total energy in the final basis set = -286.83671459
 
 --------------------------------------------------------------
 
                    Orbital Energies (a.u.)
 --------------------------------------------------------------
 
 Alpha MOs
 -- Occupied --
-14.336 -10.230 -10.230 -10.225 -10.221 -10.216 -10.214  -0.990
 -0.854  -0.786  -0.664  -0.603  -0.582  -0.550  -0.537  -0.456
 -0.451  -0.418  -0.414  -0.387  -0.350  -0.293  -0.279  -0.256
 -0.202
 -- Virtual --
  0.001   0.015   0.016   0.020   0.037   0.043   0.058   0.060
  0.071   0.076   0.084   0.092   0.109   0.112   0.117   0.118
  0.125   0.138   0.148   0.160   0.162   0.174   0.180   0.187
  0.192   0.197   0.208   0.216   0.223   0.245   0.251   0.253
  0.263   0.270   0.285   0.295   0.304   0.320   0.338   0.344
  0.361   0.374   0.417   0.455   0.606   0.653   0.678   0.691
  0.710   0.730   0.740   0.747   0.760   0.775   0.785   0.789
  0.801   0.830   0.857   0.892   0.903   0.923   0.945   0.961
  0.979   1.017   1.039   1.052   1.085   1.101   1.137   1.199
  1.239   1.259   1.361   1.416   1.418   1.489   1.537   1.541
  1.580   1.611   1.632   1.674   1.697   1.779   1.814   1.881
  1.911   1.939   1.966   2.001   2.016   2.114   2.145   2.158
  2.186   2.248   2.292   2.332   2.353   2.361   2.375   2.395
  2.416   2.449   2.459   2.477   2.503   2.517   2.552   2.570
  2.599   2.625   2.634   2.673   2.696   2.723   2.764   2.790
  2.869   2.936   2.973   3.067   3.090   3.239   3.279   3.376
  3.480   3.561   3.781   4.166   4.456   4.511   4.540   4.608
  4.802   4.929
 
 Beta MOs
 -- Occupied --
-14.325 -10.232 -10.226 -10.222 -10.220 -10.214 -10.214  -0.981
 -0.838  -0.781  -0.654  -0.601  -0.576  -0.544  -0.531  -0.453
 -0.446  -0.410  -0.403  -0.378  -0.338  -0.287  -0.266  -0.241
 -- Virtual --
 -0.093   0.001   0.016   0.016   0.023   0.038   0.043   0.059
  0.068   0.072   0.082   0.086   0.095   0.111   0.114   0.118
  0.122   0.128   0.139   0.149   0.162   0.163   0.176   0.181
  0.189   0.193   0.198   0.209   0.219   0.226   0.246   0.255
  0.261   0.265   0.272   0.290   0.296   0.306   0.323   0.340
  0.345   0.363   0.380   0.422   0.460   0.608   0.657   0.687
  0.698   0.716   0.734   0.742   0.751   0.762   0.781   0.787
  0.791   0.803   0.836   0.861   0.893   0.906   0.924   0.946
  0.972   0.981   1.023   1.043   1.056   1.104   1.107   1.146
  1.202   1.244   1.262   1.363   1.422   1.428   1.506   1.541
  1.552   1.588   1.616   1.643   1.676   1.703   1.785   1.819
  1.885   1.916   1.943   1.974   2.008   2.022   2.118   2.154
  2.166   2.195   2.252   2.301   2.338   2.356   2.364   2.379
  2.397   2.421   2.454   2.462   2.482   2.505   2.519   2.557
  2.573   2.604   2.632   2.644   2.681   2.703   2.727   2.769
  2.799   2.871   2.940   2.976   3.069   3.093   3.240   3.280
  3.378   3.481   3.561   3.784   4.185   4.465   4.513   4.538
  4.609   4.808   4.933
 --------------------------------------------------------------
 
          Ground-State Mulliken Net Atomic Charges

     Atom                 Charge (a.u.)    Spin (a.u.)
  --------------------------------------------------------
      1 C                    -0.277215      -0.017433
      2 C                    -0.023252      -0.034320
      3 C                    -0.141113       0.573402
      4 C                     0.042333      -0.027847
      5 C                    -0.236333      -0.147011
      6 N                    -0.112123       0.567271
      7 H                     0.140492       0.000703
      8 H                     0.134713      -0.000633
      9 H                     0.140920      -0.023695
     10 H                     0.130893       0.012357
     11 H                     0.140638       0.003632
     12 C                    -0.070553       0.098004
     13 H                     0.130602      -0.004429
  --------------------------------------------------------
  Sum of atomic charges =    -0.000000
  Sum of spin   charges =     1.000000

 -----------------------------------------------------------------
                    Cartesian Multipole Moments
 -----------------------------------------------------------------
    Charge (ESU x 10^10)
                -0.0000
    Dipole Moment (Debye)
         X      -1.6731      Y      -2.1545      Z       0.6802
       Tot       2.8113
    Quadrupole Moments (Debye-Ang)
        XX     -39.3357     XY      -4.8936     YY     -44.8817
        XZ       2.7552     YZ       0.7734     ZZ     -40.1420
    Octopole Moments (Debye-Ang^2)
       XXX     -11.4168    XXY      -8.6196    XYY      -9.5663
       YYY     -26.3242    XXZ       4.3238    XYZ       2.3695
       YYZ       0.2160    XZZ      -7.3616    YZZ      -9.0305
       ZZZ       6.7370
    Hexadecapole Moments (Debye-Ang^3)
      XXXX    -234.9337   XXXY      -9.8160   XXYY     -90.4304
      XYYY     -23.9191   YYYY    -273.3622   XXXZ      -9.0835
      XXYZ       8.5860   XYYZ       1.4361   YYYZ      18.6696
      XXZZ     -68.4767   XYZZ      -2.9734   YYZZ     -70.4238
      XZZZ      -9.4424   YZZZ      16.0650   ZZZZ    -166.9448
 -----------------------------------------------------------------
Archival summary:
1\1\c8-66\SP\ProcedureUnspecified\6-31+G**\166(2)\hpark21\TueMar123:30:232022TueMar123:30:232022\0\\#,ProcedureUnspecified,6-31+G**,\\0,2\N\C,1,1.33651\H,2,1.08495,1,121.877\C,1,1.43235,2,103.827,3,-171.993,0\H,4,1.08488,1,118.461,2,-172.544,0\C,2,1.52228,1,115.442,3,-171.073,0\H,6,1.08778,2,121.532,1,144.229,0\C,6,1.48235,2,75.9475,1,-89.6843,0\H,8,1.08237,6,133.07,2,-97.6249,0\C,8,1.51677,6,92.0649,2,97.7218,0\H,10,1.08417,8,127.65,6,149.732,0\C,10,1.52569,8,89.1711,6,5.5287,0\H,12,1.0848,10,130.744,8,137.405,0\\\@

 Total job time:  68.40s(wall), 115.98s(cpu) 
 Tue Mar  1 23:30:23 2022

        *************************************************************
        *                                                           *
        *  Thank you very much for using Q-Chem.  Have a nice day.  *
        *                                                           *
        *************************************************************


