
Running Job 1 of 1 qcts1.in
qchem qcts1.in_26005.0 ./qcts1.d/ 1
/home/leeping/opt/qchem/5.0.2-openmp/exe/qcprog.exe_s qcts1.in_26005.0 ./qcts1.d/
Check license passed

                  Welcome to Q-Chem
     A Quantum Leap Into The Future Of Chemistry


 Q-Chem 5.0, Q-Chem, Inc., Pleasanton, CA (2017)

 Yihan Shao,  Zhengting Gan,  E. Epifanovsky,  A. T. B. Gilbert,  M. Wormit,  
 J. Kussmann,  A. W. Lange,  A. Behn,  Jia Deng,  Xintian Feng,  D. Ghosh,  
 M. Goldey,  P. R. Horn,  L. D. Jacobson,  I. Kaliman,  T. Kus,  A. Landau,  
 Jie Liu,  E. I. Proynov,  R. M. Richard,  R. P. Steele,  E. J. Sundstrom,  
 H. L. Woodcock III,  P. M. Zimmerman,  D. Zuev,  B. Albrecht,  E. Alguire,  
 S. A. Baeppler,  D. Barton,  Z. Benda,  Y. A. Bernard,  E. J. Berquist,  
 K. B. Bravaya,  H. Burton,  D. Casanova,  Chun-Min Chang,  Yunqing Chen,  
 A. Chien,  K. D. Closser,  M. P. Coons,  S. Dasgupta,  A. L. Dempwolff,  
 M. Diedenhofen,  Hainam Do,  R. G. Edgar,  Po-Tung Fang,  S. Fatehi,  
 Qingguo Feng,  J. Fosso-Tande,  Qinghui Ge,  A. Ghysels,  G. Gidofalvi,  
 J. Gomes,  J. Gonthier,  A. Gunina,  M. W. D. Hanson-Heine,  
 P. H. P. Harbach,  A. W. Hauser,  J. E. Herr,  E. G. Hohenstein,  
 Z. C. Holden,  Kerwin Hui,  T.-C. Jagau,  Hyunjun Ji,  B. Kaduk,  
 K. Khistyaev,  Jaehoon Kim,  P. Klunzinger,  K. Koh,  D. Kosenkov,  
 L. Koulias,  T. Kowalczyk,  C. M. Krauter,  A. Kunitsa,  Ka Un Lao,  
 A. Laurent,  K. V. Lawler,  Joonho Lee,  D. Lefrancois,  S. Lehtola,  
 D. S. Levine,  Yi-Pei Li,  You-Sheng Lin,  Fenglai Liu,  E. Livshits,  
 A. Luenser,  P. Manohar,  E. Mansoor,  S. F. Manzer,  Shan-Ping Mao,  
 Yuezhi Mao,  N. Mardirossian,  A. V. Marenich,  T. Markovich,  
 L. A. Martinez-Martinez,  S. A. Maurer,  N. J. Mayhall,  S. C. McKenzie,  
 J.-M. Mewes,  A. F. Morrison,  J. W. Mullinax,  K. Nanda,  
 T. S. Nguyen-Beck,  R. Olivares-Amaya,  J. A. Parkhill,  T. M. Perrine,  
 F. Plasser,  S. Prager,  A. Prociuk,  E. Ramos,  D. R. Rehn,  F. Rob,  
 M. Schneider,  N. Sergueev,  S. M. Sharada,  S. Sharma,  D. W. Small,  
 T. Stauch,  T. Stein,  Yu-Chuan Su,  A. J. W. Thom,  A. Tkatchenko,  
 T. Tsuchimochi,  L. Vogt,  O. Vydrov,  M. A. Watson,  J. Wenzel,  
 M. de Wergifosse,  T. A. Wesolowski,  A. White,  J. Witte,  A. Yamada,  
 Jun Yang,  K. Yao,  S. Yeganeh,  S. R. Yost,  Zhi-Qiang You,  A. Zech,  
 Igor Ying Zhang,  Xing Zhang,  Yan Zhao,  Ying Zhu,  B. R. Brooks,  
 G. K. L. Chan,  C. J. Cramer,  M. S. Gordon,  W. J. Hehre,  A. Klamt,  
 M. W. Schmidt,  C. D. Sherrill,  D. G. Truhlar,  A. Aspuru-Guzik,  R. Baer,  
 A. T. Bell,  N. A. Besley,  Jeng-Da Chai,  R. A. DiStasio Jr.,  A. Dreuw,  
 B. D. Dunietz,  T. R. Furlani,  Chao-Ping Hsu,  Yousung Jung,  Jing Kong,  
 D. S. Lambrecht,  WanZhen Liang,  C. Ochsenfeld,  V. A. Rassolov,  
 L. V. Slipchenko,  J. E. Subotnik,  T. Van Voorhis,  J. M. Herbert,  
 A. I. Krylov,  P. M. W. Gill,  M. Head-Gordon

 Contributors to earlier versions of Q-Chem not listed above: 
 R. D. Adamson,  B. Austin,  J. Baker,  G. J. O. Beran,  K. Brandhorst,  
 S. T. Brown,  E. F. C. Byrd,  A. K. Chakraborty,  C.-L. Cheng,  
 Siu Hung Chien,  D. M. Chipman,  D. L. Crittenden,  H. Dachsel,  
 R. J. Doerksen,  A. D. Dutoi,  L. Fusti-Molnar,  W. A. Goddard III,  
 A. Golubeva-Zadorozhnaya,  S. R. Gwaltney,  G. Hawkins,  A. Heyden,  
 S. Hirata,  G. Kedziora,  F. J. Keil,  C. Kelley,  Jihan Kim,  R. A. King,  
 R. Z. Khaliullin,  P. P. Korambath,  W. Kurlancheek,  A. M. Lee,  M. S. Lee,  
 S. V. Levchenko,  Ching Yeh Lin,  D. Liotard,  R. C. Lochan,  I. Lotan,  
 P. E. Maslen,  N. Nair,  D. P. O'Neill,  D. Neuhauser,  E. Neuscamman,  
 C. M. Oana,  R. Olson,  B. Peters,  R. Peverati,  P. A. Pieniazek,  
 Y. M. Rhee,  J. Ritchie,  M. A. Rohrdanz,  E. Rosta,  N. J. Russ,  
 H. F. Schaefer III,  N. E. Schultz,  N. Shenvi,  A. C. Simmonett,  A. Sodt,  
 D. Stuck,  K. S. Thanthiriwatte,  V. Vanovschi,  Tao Wang,  A. Warshel,  
 C. F. Williams,  Q. Wu,  X. Xu,  W. Zhang

 Please cite Q-Chem as follows:
 Y. Shao et al., Mol. Phys. 113, 184-215 (2015)
 DOI: 10.1080/00268976.2014.952696

 Q-Chem 5.0.2 for Intel X86 EM64T Linux

 Parts of Q-Chem use Armadillo 5.200.1 (Boston Tea Smuggler).
 http://arma.sourceforge.net/

 Q-Chem begins on Tue Mar  1 23:14:32 2022  

Host: 
0

     Scratch files written to ./qcts1.d//
 Dec517 15110_ 26548  26544 5633   
Processing $rem in /home/leeping/opt/qchem/5.0.2-openmp/config/preferences.
 MEM_STATIC 2000
 MEM_TOTAL  8000
 SYMMETRY   OFF
 SYM_IGNORE TRUE 

Checking the input file for inconsistencies... 	...done.

--------------------------------------------------------------
User input:
--------------------------------------------------------------
$molecule
0 2
C        1.2894896980    0.2424476249    0.3120398859
C        0.6004902624   -1.0268513121   -0.2177277144
C       -0.6791641257   -0.5115031047   -0.8718189525
C       -1.0809978684    0.1979155161    0.3666358470
C       -0.4505210357    1.2252964157   -0.5712221666
N        0.8728273475    1.4200164030   -0.3769571657
H        2.3105744271    0.1825501350    0.6730604650
H        1.1318451339   -1.9506289610   -0.4153674465
H       -1.2316425760   -0.8640758377   -1.7336705612
H       -2.0816383921    0.3274994783    0.7701195549
H       -1.0387841572    1.9320868201   -1.1465349762
C        0.1473107141   -0.4026827178    1.0954940539
H        0.2062107832   -0.7759334316    2.1126598221
$end

$rem
method                b3lyp
basis                 6-31g(d)
unrestricted          true
symmetry              off
sym_ignore            true
incdft                false
incfock               0
scf_convergence       6
thresh                14
jobtype               sp
scf_guess             read
scf_algorithm         diis
max_scf_cycles        100
stability_analysis    true
max_cis_cycles        100
cis_n_roots           4
$end

--------------------------------------------------------------
 ----------------------------------------------------------------
             Standard Nuclear Orientation (Angstroms)
    I     Atom           X                Y                Z
 ----------------------------------------------------------------
    1      C       1.2894896980     0.2424476249     0.3120398859
    2      C       0.6004902624    -1.0268513121    -0.2177277144
    3      C      -0.6791641257    -0.5115031047    -0.8718189525
    4      C      -1.0809978684     0.1979155161     0.3666358470
    5      C      -0.4505210357     1.2252964157    -0.5712221666
    6      N       0.8728273475     1.4200164030    -0.3769571657
    7      H       2.3105744271     0.1825501350     0.6730604650
    8      H       1.1318451339    -1.9506289610    -0.4153674465
    9      H      -1.2316425760    -0.8640758377    -1.7336705612
   10      H      -2.0816383921     0.3274994783     0.7701195549
   11      H      -1.0387841572     1.9320868201    -1.1465349762
   12      C       0.1473107141    -0.4026827178     1.0954940539
   13      H       0.2062107832    -0.7759334316     2.1126598221
 ----------------------------------------------------------------
 Nuclear Repulsion Energy =   286.8017488249 hartrees
 There are       25 alpha and       24 beta electrons
 Requested basis set is 6-31G(d)
 There are 40 shells and 117 basis functions

 Total QAlloc Memory Limit   8000 MB
 Mega-Array Size      1956 MB
 MEM_STATIC part      2000 MB

                       Distance Matrix (Angstroms)
             C (  1)   C (  2)   C (  3)   C (  4)   C (  5)   N (  6)
   C (  2)  1.538341
   C (  3)  2.417760  1.526740
   C (  4)  2.371534  2.160772  1.482739
   C (  5)  2.184898  2.510329  1.777388  1.527282
   N (  6)  1.426532  2.467120  2.526724  2.421548  1.351631
   H (  7)  1.084683  2.276081  3.436117  3.405421  3.203000  2.168174
   H (  8)  2.315936  1.083866  2.357793  3.181894  3.551714  3.380801
   H (  9)  3.430078  2.383546  1.082741  2.358348  2.515336  3.389180
   H ( 10)  3.403171  3.162898  2.316640  1.086680  2.294729  3.352349
   H ( 11)  3.225396  3.507879  2.485141  2.301916  1.084708  2.123376
   C ( 12)  1.527929  1.522994  2.136638  1.549417  2.405340  2.452900
   H ( 13)  2.335129  2.376788  3.124248  2.377790  3.411662  3.385966
             H (  7)   H (  8)   H (  9)   H ( 10)   H ( 11)   C ( 12)
   H (  8)  2.669182
   H (  9)  4.408524  2.916264
   H ( 10)  4.395676  4.113602  2.900226
   H ( 11)  4.194044  4.507962  2.863642  2.708470
   C ( 12)  2.280495  2.376583  3.180970  2.367963  3.447414
   H ( 13)  2.723873  2.937283  4.107243  2.873018  4.416530  1.085086

 
 A cutoff of  1.0D-14 yielded    812 shell pairs
 There are      7084 function pairs
 Smallest overlap matrix eigenvalue = 1.00E-03

 Scale SEOQF with 1.000000e-01/1.000000e-01/1.000000e-01

 Standard Electronic Orientation quadrupole field applied
 Nucleus-field energy     =     0.0000000017 hartrees
 Guess MOs from SCF MO coefficient file
 Reading MOs from coefficient file
 Reading MOs from coefficient file
 An unrestricted hybrid HF-DFT SCF calculation will be
 performed using Pulay DIIS extrapolation
 Exchange:     0.2000 Hartree-Fock + 0.0800 Slater + 0.7200 B88
 Correlation:  0.1900 VWN1RPA + 0.8100 LYP
 Using SG-1 standard quadrature grid
 SCF converges when DIIS error is below 1.0E-06
Using Q-Chem read-in guess as SCF_GUESS READ specified.

 -------------------------------------------------------
 OpenMP BLAS3 based DFT computing Module                
 -------------------------------------------------------
 ---------------------------------------
  Cycle       Energy         DIIS Error
 ---------------------------------------
    1    -286.8165982148      1.43E-09
    2    -286.8165982148      2.11E-09 Convergence criterion met
 ---------------------------------------
 <S^2> = 0.7654
 SCF time:  CPU 3.39 s  wall 7.22 s
 SCF   energy in the final basis set = -286.81659821
 Total energy in the final basis set = -286.81659821
 
 Direct TDDFT/TDA calculation will be performed
 Exchange:     0.2000 Hartree-Fock + 0.0800 Slater + 0.7200 B88
 Correlation:  0.1900 VWN1RPA + 0.8100 LYP
 Using SG-1 standard quadrature grid
 CIS energy converged when residual is below 10e- 6
 ---------------------------------------------------
 Iter    Rts Conv    Rts Left    Ttl Dev     Max Dev
 ---------------------------------------------------
   1         0           4      0.006121    0.002086
   2         0           4      0.001490    0.000451
   3         0           4      0.000570    0.000267
   4         0           4      0.000237    0.000156
   5         0           4      0.000092    0.000071
   6         0           4      0.000030    0.000026
   7         3           1      0.000009    0.000008
   8         3           1      0.000002    0.000002
   9         4           0      0.000001    0.000000    Roots Converged
 ---------------------------------------------------
 
 ---------------------------------------------------
         TDDFT/TDA Excitation Energies              
 ---------------------------------------------------

 Excited state   1: excitation energy (eV) =    2.6943
 Total energy for state  1:                  -286.71758586 au
    <S**2>     :  0.7749
    Trans. Mom.:  0.2756 X   0.1424 Y   0.0671 Z
    Strength   :     0.0066509457
    D( 23) --> S(  1) amplitude = -0.4817 beta
    D( 24) --> S(  1) amplitude =  0.8482 beta

 Excited state   2: excitation energy (eV) =    2.8775
 Total energy for state  2:                  -286.71085134 au
    <S**2>     :  0.7777
    Trans. Mom.:  0.1373 X   0.0972 Y   0.0163 Z
    Strength   :     0.0020133264
    D( 22) --> S(  1) amplitude =  0.1683 beta
    D( 23) --> S(  1) amplitude =  0.8404 beta
    D( 24) --> S(  1) amplitude =  0.4976 beta

 Excited state   3: excitation energy (eV) =    3.8816
 Total energy for state  3:                  -286.67395112 au
    <S**2>     :  0.7855
    Trans. Mom.:  0.1693 X  -0.0940 Y   0.1658 Z
    Strength   :     0.0061813077
    D( 22) --> S(  1) amplitude =  0.9718 beta
    D( 23) --> S(  1) amplitude = -0.2090 beta

 Excited state   4: excitation energy (eV) =    5.2639
 Total energy for state  4:                  -286.62315216 au
    <S**2>     :  0.7993
    Trans. Mom.: -0.1120 X  -0.1590 Y   0.0532 Z
    Strength   :     0.0052444532
    S(  1) --> V(  1) amplitude = -0.3725 alpha
    D( 21) --> S(  1) amplitude =  0.9054 beta
 
 ---------------------------------------------------

 Stability analysis will be performed
 ---------------------------------------------------
 Iter    Rts Conv    Rts Left    Ttl Dev     Max Dev
 ---------------------------------------------------
   1         0           8      0.006253    0.000965
   2         0           8      0.001868    0.000476
   3         0           8      0.000847    0.000307
   4         3           5      0.000406    0.000191
   5         3           5      0.000215    0.000119
   6         4           4      0.000084    0.000058
   7         4           4      0.000032    0.000022
   8         7           1      0.000012    0.000008
   9         7           1      0.000007    0.000003
  10         7           1      0.000004    0.000001
  11         8           0      0.000004    0.000001    Roots Converged
 UKS-> UKS   stable,    smallest eigenvalue:      0.0886720
 UKS->CUKS   stable,    smallest eigenvalue:      0.0974533
 ---------------------------------------------------
  SETman timing summary (seconds)
  CPU time                76.14s
  System time              0.00s
  Wall time              106.96s
 
 --------------------------------------------------------------
 
                    Orbital Energies (a.u.)
 --------------------------------------------------------------
 
 Alpha MOs
 -- Occupied --
-14.325 -10.219 -10.218 -10.215 -10.210 -10.206 -10.204  -0.981
 -0.842  -0.779  -0.653  -0.594  -0.572  -0.541  -0.530  -0.449
 -0.439  -0.411  -0.403  -0.380  -0.341  -0.280  -0.268  -0.246
 -0.195
 -- Virtual --
  0.079   0.093   0.111   0.122   0.148   0.154   0.160   0.170
  0.181   0.201   0.216   0.255   0.262   0.292   0.371   0.394
  0.480   0.512   0.529   0.541   0.551   0.570   0.574   0.602
  0.617   0.646   0.674   0.727   0.730   0.742   0.753   0.789
  0.798   0.804   0.829   0.830   0.848   0.852   0.910   0.945
  0.985   1.008   1.115   1.158   1.197   1.228   1.402   1.459
  1.480   1.498   1.541   1.618   1.631   1.655   1.663   1.703
  1.738   1.832   1.866   1.897   1.961   1.976   1.985   2.024
  2.059   2.134   2.167   2.236   2.279   2.378   2.406   2.479
  2.494   2.514   2.550   2.554   2.600   2.607   2.668   2.696
  2.752   2.792   2.841   2.891   2.940   3.887   4.223   4.316
  4.344   4.453   4.615   4.672
 
 Beta MOs
 -- Occupied --
-14.312 -10.221 -10.216 -10.212 -10.209 -10.205 -10.204  -0.971
 -0.823  -0.775  -0.645  -0.591  -0.567  -0.536  -0.525  -0.446
 -0.434  -0.399  -0.394  -0.371  -0.327  -0.274  -0.254  -0.232
 -- Virtual --
 -0.079   0.089   0.100   0.118   0.127   0.149   0.156   0.163
  0.175   0.183   0.207   0.223   0.260   0.268   0.293   0.375
  0.398   0.483   0.516   0.530   0.543   0.558   0.576   0.577
  0.607   0.619   0.654   0.678   0.732   0.736   0.745   0.782
  0.794   0.801   0.808   0.831   0.838   0.850   0.853   0.912
  0.950   0.995   1.017   1.120   1.162   1.205   1.230   1.404
  1.473   1.494   1.505   1.545   1.624   1.640   1.661   1.679
  1.708   1.744   1.838   1.871   1.902   1.967   1.979   1.990
  2.028   2.070   2.139   2.183   2.242   2.288   2.381   2.420
  2.490   2.503   2.524   2.555   2.567   2.604   2.624   2.673
  2.700   2.755   2.795   2.844   2.896   2.944   3.908   4.231
  4.321   4.342   4.455   4.621   4.675
 --------------------------------------------------------------
 
          Ground-State Mulliken Net Atomic Charges

     Atom                 Charge (a.u.)    Spin (a.u.)
  --------------------------------------------------------
      1 C                    -0.048392      -0.050397
      2 C                    -0.132548       0.030192
      3 C                    -0.119242       0.381477
      4 C                    -0.157862       0.039572
      5 C                    -0.015442      -0.137364
      6 N                    -0.301401       0.663439
      7 H                     0.148296       0.000693
      8 H                     0.144418      -0.001987
      9 H                     0.150118      -0.017188
     10 H                     0.143982       0.006772
     11 H                     0.149404       0.002898
     12 C                    -0.104401       0.086607
     13 H                     0.143069      -0.004712
  --------------------------------------------------------
  Sum of atomic charges =    -0.000000
  Sum of spin   charges =     1.000000

 -----------------------------------------------------------------
                    Cartesian Multipole Moments
 -----------------------------------------------------------------
    Charge (ESU x 10^10)
                -0.0000
    Dipole Moment (Debye)
         X      -1.4412      Y      -1.9339      Z       0.5676
       Tot       2.4778
    Quadrupole Moments (Debye-Ang)
        XX     -38.4308     XY      -4.2455     YY     -43.1532
        XZ       2.4998     YZ       0.6002     ZZ     -39.1115
    Octopole Moments (Debye-Ang^2)
       XXX     -10.5722    XXY      -7.9502    XYY      -8.4665
       YYY     -23.8817    XXZ       3.7684    XYZ       1.8922
       YYZ      -0.1081    XZZ      -6.4851    YZZ      -8.1716
       ZZZ       6.0059
    Hexadecapole Moments (Debye-Ang^3)
      XXXX    -225.2099   XXXY      -6.9743   XXYY     -84.0609
      XYYY     -19.0301   YYYY    -249.0546   XXXZ     -10.2193
      XXYZ       8.1448   XYYZ       0.5501   YYYZ      18.1861
      XXZZ     -65.0473   XYZZ      -1.6937   YYZZ     -65.2816
      XZZZ     -10.5891   YZZZ      15.1498   ZZZZ    -158.2789
 -----------------------------------------------------------------
Archival summary:
1\1\c8-66\SP\ProcedureUnspecified\6-31G*\166(2)\hpark21\TueMar123:16:332022TueMar123:16:332022\0\\#,ProcedureUnspecified,6-31G*,\\0,2\N\C,1,1.35163\H,2,1.08471,1,120.886\C,1,1.42653,2,103.678,3,-175.314,0\H,4,1.08468,1,118.77,2,-174.474,0\C,2,1.52728,1,114.382,3,-164.183,0\H,6,1.08668,2,121.865,1,142.424,0\C,6,1.48274,2,72.3665,1,-93.2158,0\H,8,1.08274,6,133.029,2,-102.232,0\C,8,1.52674,6,91.7655,2,99.272,0\H,10,1.08387,8,128.351,6,149.276,0\C,10,1.52299,8,88.95,6,4.43611,0\H,12,1.08509,10,130.629,8,139.285,0\\\@

 Total job time:  120.16s(wall), 79.73s(cpu) 
 Tue Mar  1 23:16:33 2022

        *************************************************************
        *                                                           *
        *  Thank you very much for using Q-Chem.  Have a nice day.  *
        *                                                           *
        *************************************************************


