
Running Job 1 of 1 qcts2.in
qchem qcts2.in_27386.0 ./qcts2.d/ 1
/home/leeping/opt/qchem/5.0.2-openmp/exe/qcprog.exe_s qcts2.in_27386.0 ./qcts2.d/
Check license passed

                  Welcome to Q-Chem
     A Quantum Leap Into The Future Of Chemistry


 Q-Chem 5.0, Q-Chem, Inc., Pleasanton, CA (2017)

 Yihan Shao,  Zhengting Gan,  E. Epifanovsky,  A. T. B. Gilbert,  M. Wormit,  
 J. Kussmann,  A. W. Lange,  A. Behn,  Jia Deng,  Xintian Feng,  D. Ghosh,  
 M. Goldey,  P. R. Horn,  L. D. Jacobson,  I. Kaliman,  T. Kus,  A. Landau,  
 Jie Liu,  E. I. Proynov,  R. M. Richard,  R. P. Steele,  E. J. Sundstrom,  
 H. L. Woodcock III,  P. M. Zimmerman,  D. Zuev,  B. Albrecht,  E. Alguire,  
 S. A. Baeppler,  D. Barton,  Z. Benda,  Y. A. Bernard,  E. J. Berquist,  
 K. B. Bravaya,  H. Burton,  D. Casanova,  Chun-Min Chang,  Yunqing Chen,  
 A. Chien,  K. D. Closser,  M. P. Coons,  S. Dasgupta,  A. L. Dempwolff,  
 M. Diedenhofen,  Hainam Do,  R. G. Edgar,  Po-Tung Fang,  S. Fatehi,  
 Qingguo Feng,  J. Fosso-Tande,  Qinghui Ge,  A. Ghysels,  G. Gidofalvi,  
 J. Gomes,  J. Gonthier,  A. Gunina,  M. W. D. Hanson-Heine,  
 P. H. P. Harbach,  A. W. Hauser,  J. E. Herr,  E. G. Hohenstein,  
 Z. C. Holden,  Kerwin Hui,  T.-C. Jagau,  Hyunjun Ji,  B. Kaduk,  
 K. Khistyaev,  Jaehoon Kim,  P. Klunzinger,  K. Koh,  D. Kosenkov,  
 L. Koulias,  T. Kowalczyk,  C. M. Krauter,  A. Kunitsa,  Ka Un Lao,  
 A. Laurent,  K. V. Lawler,  Joonho Lee,  D. Lefrancois,  S. Lehtola,  
 D. S. Levine,  Yi-Pei Li,  You-Sheng Lin,  Fenglai Liu,  E. Livshits,  
 A. Luenser,  P. Manohar,  E. Mansoor,  S. F. Manzer,  Shan-Ping Mao,  
 Yuezhi Mao,  N. Mardirossian,  A. V. Marenich,  T. Markovich,  
 L. A. Martinez-Martinez,  S. A. Maurer,  N. J. Mayhall,  S. C. McKenzie,  
 J.-M. Mewes,  A. F. Morrison,  J. W. Mullinax,  K. Nanda,  
 T. S. Nguyen-Beck,  R. Olivares-Amaya,  J. A. Parkhill,  T. M. Perrine,  
 F. Plasser,  S. Prager,  A. Prociuk,  E. Ramos,  D. R. Rehn,  F. Rob,  
 M. Schneider,  N. Sergueev,  S. M. Sharada,  S. Sharma,  D. W. Small,  
 T. Stauch,  T. Stein,  Yu-Chuan Su,  A. J. W. Thom,  A. Tkatchenko,  
 T. Tsuchimochi,  L. Vogt,  O. Vydrov,  M. A. Watson,  J. Wenzel,  
 M. de Wergifosse,  T. A. Wesolowski,  A. White,  J. Witte,  A. Yamada,  
 Jun Yang,  K. Yao,  S. Yeganeh,  S. R. Yost,  Zhi-Qiang You,  A. Zech,  
 Igor Ying Zhang,  Xing Zhang,  Yan Zhao,  Ying Zhu,  B. R. Brooks,  
 G. K. L. Chan,  C. J. Cramer,  M. S. Gordon,  W. J. Hehre,  A. Klamt,  
 M. W. Schmidt,  C. D. Sherrill,  D. G. Truhlar,  A. Aspuru-Guzik,  R. Baer,  
 A. T. Bell,  N. A. Besley,  Jeng-Da Chai,  R. A. DiStasio Jr.,  A. Dreuw,  
 B. D. Dunietz,  T. R. Furlani,  Chao-Ping Hsu,  Yousung Jung,  Jing Kong,  
 D. S. Lambrecht,  WanZhen Liang,  C. Ochsenfeld,  V. A. Rassolov,  
 L. V. Slipchenko,  J. E. Subotnik,  T. Van Voorhis,  J. M. Herbert,  
 A. I. Krylov,  P. M. W. Gill,  M. Head-Gordon

 Contributors to earlier versions of Q-Chem not listed above: 
 R. D. Adamson,  B. Austin,  J. Baker,  G. J. O. Beran,  K. Brandhorst,  
 S. T. Brown,  E. F. C. Byrd,  A. K. Chakraborty,  C.-L. Cheng,  
 Siu Hung Chien,  D. M. Chipman,  D. L. Crittenden,  H. Dachsel,  
 R. J. Doerksen,  A. D. Dutoi,  L. Fusti-Molnar,  W. A. Goddard III,  
 A. Golubeva-Zadorozhnaya,  S. R. Gwaltney,  G. Hawkins,  A. Heyden,  
 S. Hirata,  G. Kedziora,  F. J. Keil,  C. Kelley,  Jihan Kim,  R. A. King,  
 R. Z. Khaliullin,  P. P. Korambath,  W. Kurlancheek,  A. M. Lee,  M. S. Lee,  
 S. V. Levchenko,  Ching Yeh Lin,  D. Liotard,  R. C. Lochan,  I. Lotan,  
 P. E. Maslen,  N. Nair,  D. P. O'Neill,  D. Neuhauser,  E. Neuscamman,  
 C. M. Oana,  R. Olson,  B. Peters,  R. Peverati,  P. A. Pieniazek,  
 Y. M. Rhee,  J. Ritchie,  M. A. Rohrdanz,  E. Rosta,  N. J. Russ,  
 H. F. Schaefer III,  N. E. Schultz,  N. Shenvi,  A. C. Simmonett,  A. Sodt,  
 D. Stuck,  K. S. Thanthiriwatte,  V. Vanovschi,  Tao Wang,  A. Warshel,  
 C. F. Williams,  Q. Wu,  X. Xu,  W. Zhang

 Please cite Q-Chem as follows:
 Y. Shao et al., Mol. Phys. 113, 184-215 (2015)
 DOI: 10.1080/00268976.2014.952696

 Q-Chem 5.0.2 for Intel X86 EM64T Linux

 Parts of Q-Chem use Armadillo 5.200.1 (Boston Tea Smuggler).
 http://arma.sourceforge.net/

 Q-Chem begins on Tue Mar  1 23:35:57 2022  

Host: 
0

     Scratch files written to ./qcts2.d//
 Dec517 15110_ 26548  26544 5633   
Processing $rem in /home/leeping/opt/qchem/5.0.2-openmp/config/preferences.
 MEM_STATIC 2000
 MEM_TOTAL  8000
 SYMMETRY   OFF
 SYM_IGNORE TRUE 

Checking the input file for inconsistencies... 	...done.

--------------------------------------------------------------
User input:
--------------------------------------------------------------
$molecule
0 2
C        1.2876038416    0.2386410957    0.3030429905
C        0.6006103315   -1.0315480416   -0.2151223961
C       -0.6818119828   -0.5466875834   -0.8638848106
C       -1.0796018777    0.1983095164    0.3543473636
C       -0.4469097100    1.2579465208   -0.5368276513
N        0.8706245166    1.4235013203   -0.3853395351
H        2.3109143137    0.1803299701    0.6585790020
H        1.1302045148   -1.9580830527   -0.4061364024
H       -1.2212163308   -0.8576167314   -1.7492607362
H       -2.0793991958    0.3228800339    0.7644001837
H       -1.0436345423    1.9337557960   -1.1404132233
C        0.1502455163   -0.3974376720    1.0974321517
H        0.1983708159   -0.7678541439    2.1158937091
$end

$rem
method                b3lyp
basis                 6-31+g(d,p)
unrestricted          true
symmetry              off
sym_ignore            true
incdft                false
incfock               0
scf_convergence       8
thresh                14
jobtype               freq
scf_guess             read
scf_algorithm         diis
max_scf_cycles        100
$end

--------------------------------------------------------------
 ----------------------------------------------------------------
             Standard Nuclear Orientation (Angstroms)
    I     Atom           X                Y                Z
 ----------------------------------------------------------------
    1      C       1.2876038416     0.2386410957     0.3030429905
    2      C       0.6006103315    -1.0315480416    -0.2151223961
    3      C      -0.6818119828    -0.5466875834    -0.8638848106
    4      C      -1.0796018777     0.1983095164     0.3543473636
    5      C      -0.4469097100     1.2579465208    -0.5368276513
    6      N       0.8706245166     1.4235013203    -0.3853395351
    7      H       2.3109143137     0.1803299701     0.6585790020
    8      H       1.1302045148    -1.9580830527    -0.4061364024
    9      H      -1.2212163308    -0.8576167314    -1.7492607362
   10      H      -2.0793991958     0.3228800339     0.7644001837
   11      H      -1.0436345423     1.9337557960    -1.1404132233
   12      C       0.1502455163    -0.3974376720     1.0974321517
   13      H       0.1983708159    -0.7678541439     2.1158937091
 ----------------------------------------------------------------
 Nuclear Repulsion Energy =   286.4237201254 hartrees
 There are       25 alpha and       24 beta electrons
 Requested basis set is 6-31+G(d,p)
 There are 53 shells and 163 basis functions

 Total QAlloc Memory Limit   8000 MB
 Mega-Array Size      1956 MB
 MEM_STATIC part      2000 MB

                       Distance Matrix (Angstroms)
             C (  1)   C (  2)   C (  3)   C (  4)   C (  5)   N (  6)
   C (  2)  1.534222
   C (  3)  2.420136  1.516769
   C (  4)  2.368105  2.158694  1.482345
   C (  5)  2.180115  2.538223  1.849013  1.522276
   N (  6)  1.432353  2.475712  2.553568  2.419011  1.336508
   H (  7)  1.084883  2.270934  3.435529  3.404186  3.193094  2.170179
   H (  8)  2.313721  1.084169  2.342002  3.179876  3.584301  3.391597
   H (  9)  3.421682  2.388071  1.082370  2.358008  2.558350  3.382245
   H ( 10)  3.399508  3.158543  2.315321  1.087776  2.287480  3.352001
   H ( 11)  3.223609  3.514645  2.521901  2.290715  1.084949  2.120114
   C ( 12)  1.526183  1.525688  2.135734  1.555511  2.401603  2.456293
   H ( 13)  2.342197  2.380119  3.114918  2.381120  3.399586  3.392658
             H (  7)   H (  8)   H (  9)   H ( 10)   H ( 11)   C ( 12)
   H (  8)  2.664677
   H (  9)  4.398974  2.923044
   H ( 10)  4.393902  4.107859  2.906638
   H ( 11)  4.190927  4.517870  2.862515  2.701119
   C ( 12)  2.279232  2.378372  3.193170  2.366661  3.444962
   H ( 13)  2.735993  2.940339  4.118580  2.864345  4.409627  1.084799

 
 A cutoff of  1.0D-14 yielded   1405 shell pairs
 There are     13517 function pairs
 Smallest overlap matrix eigenvalue = 1.83E-05
 Guess MOs from SCF MO coefficient file
 Reading MOs from coefficient file
 Reading MOs from coefficient file
 An unrestricted hybrid HF-DFT SCF calculation will be
 performed using Pulay DIIS extrapolation
 Exchange:     0.2000 Hartree-Fock + 0.0800 Slater + 0.7200 B88
 Correlation:  0.1900 VWN1RPA + 0.8100 LYP
 Using SG-1 standard quadrature grid
 SCF converges when DIIS error is below 1.0E-08
Using Q-Chem read-in guess as SCF_GUESS READ specified.

 -------------------------------------------------------
 OpenMP BLAS3 based DFT computing Module                
 -------------------------------------------------------
 ---------------------------------------
  Cycle       Energy         DIIS Error
 ---------------------------------------
    1    -286.8367145867      1.29E-09
    2    -286.8367145867      2.35E-09 Convergence criterion met
 ---------------------------------------
 <S^2> = 0.7707
 SCF time:  CPU 6.85 s  wall 16.85 s
 SCF   energy in the final basis set = -286.83671459
 Total energy in the final basis set = -286.83671459
 
 --------------------------------------------------------------
 
                    Orbital Energies (a.u.)
 --------------------------------------------------------------
 
 Alpha MOs
 -- Occupied --
-14.336 -10.230 -10.230 -10.225 -10.221 -10.216 -10.214  -0.990
 -0.854  -0.786  -0.664  -0.603  -0.582  -0.550  -0.537  -0.456
 -0.451  -0.418  -0.414  -0.387  -0.350  -0.293  -0.279  -0.256
 -0.202
 -- Virtual --
  0.001   0.015   0.016   0.020   0.037   0.043   0.058   0.060
  0.071   0.076   0.084   0.092   0.109   0.112   0.117   0.118
  0.125   0.138   0.148   0.160   0.162   0.174   0.180   0.187
  0.192   0.197   0.208   0.216   0.223   0.245   0.251   0.253
  0.263   0.270   0.285   0.295   0.304   0.320   0.338   0.344
  0.361   0.374   0.417   0.455   0.606   0.653   0.678   0.691
  0.710   0.730   0.740   0.747   0.760   0.775   0.785   0.789
  0.801   0.830   0.857   0.892   0.903   0.923   0.945   0.961
  0.979   1.017   1.039   1.052   1.085   1.101   1.137   1.199
  1.239   1.259   1.361   1.416   1.418   1.489   1.537   1.541
  1.580   1.611   1.632   1.674   1.697   1.779   1.814   1.881
  1.911   1.939   1.966   2.001   2.016   2.114   2.145   2.158
  2.186   2.248   2.292   2.332   2.353   2.361   2.375   2.395
  2.416   2.449   2.459   2.477   2.503   2.517   2.552   2.570
  2.599   2.625   2.634   2.673   2.696   2.723   2.764   2.790
  2.869   2.936   2.973   3.067   3.090   3.239   3.279   3.376
  3.480   3.561   3.781   4.166   4.456   4.511   4.540   4.608
  4.802   4.929
 
 Beta MOs
 -- Occupied --
-14.325 -10.232 -10.226 -10.222 -10.220 -10.214 -10.214  -0.981
 -0.838  -0.781  -0.654  -0.601  -0.576  -0.544  -0.531  -0.453
 -0.446  -0.410  -0.403  -0.378  -0.338  -0.287  -0.266  -0.241
 -- Virtual --
 -0.093   0.001   0.016   0.016   0.023   0.038   0.043   0.059
  0.068   0.072   0.082   0.086   0.095   0.111   0.114   0.118
  0.122   0.128   0.139   0.149   0.162   0.163   0.176   0.181
  0.189   0.193   0.198   0.209   0.219   0.226   0.246   0.255
  0.261   0.265   0.272   0.290   0.296   0.306   0.323   0.340
  0.345   0.363   0.380   0.422   0.460   0.608   0.657   0.687
  0.698   0.716   0.734   0.742   0.751   0.762   0.781   0.787
  0.791   0.803   0.836   0.861   0.893   0.906   0.924   0.946
  0.972   0.981   1.023   1.043   1.056   1.104   1.107   1.146
  1.202   1.244   1.262   1.363   1.422   1.428   1.506   1.541
  1.552   1.588   1.616   1.643   1.676   1.703   1.785   1.819
  1.885   1.916   1.943   1.974   2.008   2.022   2.118   2.154
  2.166   2.195   2.252   2.301   2.338   2.356   2.364   2.379
  2.397   2.421   2.454   2.462   2.482   2.505   2.519   2.557
  2.573   2.604   2.632   2.644   2.681   2.703   2.727   2.769
  2.799   2.871   2.940   2.976   3.069   3.093   3.240   3.280
  3.378   3.481   3.561   3.784   4.185   4.465   4.513   4.538
  4.609   4.808   4.933
 --------------------------------------------------------------
 
          Ground-State Mulliken Net Atomic Charges

     Atom                 Charge (a.u.)    Spin (a.u.)
  --------------------------------------------------------
      1 C                    -0.277215      -0.017432
      2 C                    -0.023252      -0.034322
      3 C                    -0.141112       0.573404
      4 C                     0.042333      -0.027847
      5 C                    -0.236333      -0.147013
      6 N                    -0.112123       0.567272
      7 H                     0.140492       0.000703
      8 H                     0.134713      -0.000633
      9 H                     0.140920      -0.023696
     10 H                     0.130893       0.012357
     11 H                     0.140638       0.003632
     12 C                    -0.070553       0.098004
     13 H                     0.130602      -0.004429
  --------------------------------------------------------
  Sum of atomic charges =    -0.000000
  Sum of spin   charges =     1.000000

 -----------------------------------------------------------------
                    Cartesian Multipole Moments
 -----------------------------------------------------------------
    Charge (ESU x 10^10)
                -0.0000
    Dipole Moment (Debye)
         X      -1.6731      Y      -2.1545      Z       0.6802
       Tot       2.8113
    Quadrupole Moments (Debye-Ang)
        XX     -39.3357     XY      -4.8936     YY     -44.8817
        XZ       2.7552     YZ       0.7734     ZZ     -40.1420
    Octopole Moments (Debye-Ang^2)
       XXX     -11.4168    XXY      -8.6196    XYY      -9.5663
       YYY     -26.3242    XXZ       4.3238    XYZ       2.3695
       YYZ       0.2160    XZZ      -7.3616    YZZ      -9.0305
       ZZZ       6.7370
    Hexadecapole Moments (Debye-Ang^3)
      XXXX    -234.9337   XXXY      -9.8160   XXYY     -90.4304
      XYYY     -23.9191   YYYY    -273.3622   XXXZ      -9.0835
      XXYZ       8.5860   XYYZ       1.4361   YYYZ      18.6696
      XXZZ     -68.4767   XYZZ      -2.9734   YYZZ     -70.4238
      XZZZ      -9.4424   YZZZ      16.0650   ZZZZ    -166.9448
 -----------------------------------------------------------------
 Calculating MO derivatives via CPSCF
   1         3          39      0.271356    0.051105
   2         3          39      0.035597    0.006559
   3         3          39      0.004839    0.000995
   4         3          39      0.000536    0.000117
   5        28          14      0.000045    0.000012
   6        40           2      0.000002    0.000001
   7        42           0      0.000000    0.000000    Roots Converged
 Time for AOints: 19.6 s (CPU) 23.6 s (wall)
 ------------------------------------------------------------------------------
                     AOints        : Timing summary (seconds)
 ------------------------------------------------------------------------------
     job step          cpu (% of tot)      sys (% of tot)     wall (% of tot)
 ------------------------------------------------------------------------------
  cpscf_lag         0.1182E+03 (28.1)   0.4300E-04 (34.7)   0.1308E+03 (28.4)
  iterzp            0.2822E+03 (67.1)   0.7600E-04 (61.3)   0.3038E+03 (66.1)
  make_fx           0.0000E+00 ( 0.0)   0.0000E+00 ( 0.0)   0.0000E+00 ( 0.0)
  AOints            0.1958E+02 ( 4.7)   0.1000E-05 ( 0.8)   0.2358E+02 ( 5.1)
 ------------------------------------------------------------------------------
   Grand Totals     0.4203E+03          0.1240E-03          0.4597E+03
 ------------------------------------------------------------------------------
 Calculating analytic Hessian of the SCF energy
 Polarizability Matrix (a.u.)
            1           2           3
    1 -69.1233111  -2.5939973  -3.5742340
    2  -2.5939973 -69.8400346   1.5558600
    3  -3.5742340   1.5558600 -60.5523675
 
 Direct stationary perturbation theory relativistic correction:
 
 rels  =       0.069328067358
 relv  =      -0.343040420488
 rel2e =       0.160787169329
 E_rel =      -0.112925183801
 
 Hessian of the SCF Energy
            1           2           3           4           5           6
    1   0.6998061  -0.0146858   0.1613131  -0.0691061  -0.0443354  -0.0543544
    2  -0.0146858   0.3858327  -0.0809352  -0.0217410  -0.1288881  -0.0616020
    3   0.1613131  -0.0809352   0.2778446  -0.0200749  -0.0069996  -0.0365578
    4  -0.0691061  -0.0217410  -0.0200749   0.4216176  -0.2128344   0.0353791
    5  -0.0443354  -0.1288881  -0.0069996  -0.2128344   0.5911185   0.1215443
    6  -0.0543544  -0.0616020  -0.0365578   0.0353791   0.1215443   0.3298231
    7  -0.0239044  -0.0049216  -0.0210921  -0.1567946   0.0444470  -0.0708585
    8  -0.0192825   0.0035133  -0.0002115   0.0379154  -0.0819303  -0.0018366
    9  -0.0032324  -0.0082691  -0.0076385  -0.0445562   0.0129644  -0.0557163
   10  -0.0370253   0.0068348   0.0013411  -0.0403440   0.0288965   0.0172842
   11  -0.0069187   0.0045502   0.0003303   0.0444577  -0.0243031  -0.0128979
   12  -0.0083779  -0.0036711   0.0073847  -0.0001099  -0.0157456  -0.0259929
   13  -0.0363693   0.0236761  -0.0342930   0.0000056   0.0129268   0.0095679
   14   0.0479229  -0.0210953  -0.0020040   0.0255371  -0.0119510   0.0293386
   15  -0.0217490   0.0222903  -0.0172022  -0.0064229  -0.0019776   0.0101974
   16  -0.1048152   0.0556945  -0.0233864  -0.0107884   0.0030016  -0.0140438
   17   0.0246642  -0.1399865   0.0511132  -0.0092257  -0.0391797   0.0153136
   18  -0.0293300   0.0525065  -0.0751968   0.0097225  -0.0050846   0.0041994
   19  -0.3118159   0.0119534  -0.0938071  -0.0014729   0.0005114   0.0017054
   20   0.0067631  -0.0482496   0.0092063  -0.0200574   0.0026840  -0.0061165
   21  -0.0923433   0.0115000  -0.0685744  -0.0151891   0.0023113  -0.0059989
   22   0.0106337  -0.0143707  -0.0008117  -0.1121328   0.1335432   0.0177365
   23   0.0115498  -0.0123158  -0.0026282   0.1343227  -0.2608803  -0.0466274
   24  -0.0017317  -0.0018927  -0.0042689   0.0157267  -0.0467394  -0.0554723
   25  -0.0026119   0.0015550  -0.0026994   0.0005803  -0.0127585  -0.0075167
   26   0.0001893  -0.0015759  -0.0023374   0.0039318   0.0073092   0.0059317
   27   0.0013366   0.0000936   0.0014287   0.0027039   0.0000307  -0.0008926
   28  -0.0020494   0.0011462   0.0000305  -0.0007680   0.0006580   0.0007280
   29  -0.0009584  -0.0027728   0.0013861   0.0042668  -0.0023746  -0.0029416
   30  -0.0039845   0.0014769  -0.0014936   0.0005237  -0.0000959  -0.0031328
   31  -0.0060531  -0.0016016  -0.0020663   0.0002283  -0.0005767   0.0007927
   32  -0.0010327   0.0017317   0.0023672   0.0011357   0.0005185   0.0017524
   33  -0.0004586   0.0004812   0.0027985   0.0013196  -0.0002650   0.0005690
   34  -0.1204243  -0.0399591   0.0179735  -0.0272856   0.0504153   0.0611748
   35  -0.0116465  -0.0373379   0.0209452   0.0170166  -0.0639089  -0.0275333
   36   0.0520998   0.0711953  -0.0759110   0.0212171  -0.0691167  -0.1527093
   37   0.0037351  -0.0035802   0.0175728  -0.0037394  -0.0038947   0.0024051
   38   0.0077709  -0.0034060   0.0097675  -0.0047253   0.0117859  -0.0143253
   39   0.0008123  -0.0031738  -0.0026131  -0.0002395   0.0091738  -0.0083161
            7           8           9          10          11          12
    1  -0.0239044  -0.0192825  -0.0032324  -0.0370253  -0.0069187  -0.0083779
    2  -0.0049216   0.0035133  -0.0082691   0.0068348   0.0045502  -0.0036711
    3  -0.0210921  -0.0002115  -0.0076385   0.0013411   0.0003303   0.0073847
    4  -0.1567946   0.0379154  -0.0445562  -0.0403440   0.0444577  -0.0001099
    5   0.0444470  -0.0819303   0.0129644   0.0288965  -0.0243031  -0.0157456
    6  -0.0708585  -0.0018366  -0.0557163   0.0172842  -0.0128979  -0.0259929
    7   0.4210273  -0.0416615   0.1838119  -0.0673227   0.0175328   0.0554105
    8  -0.0416615   0.1243174   0.1958281   0.0583366  -0.0522286  -0.1497673
    9   0.1838119   0.1958281   0.5708213   0.0420235  -0.0698069  -0.1797741
   10  -0.0673227   0.0583366   0.0420235   0.6618845  -0.0814495  -0.1414000
   11   0.0175328  -0.0522286  -0.0698069  -0.0814495   0.2881480   0.0175385
   12   0.0554105  -0.1497673  -0.1797741  -0.1414000   0.0175385   0.4513976
   13  -0.0127734   0.0720951  -0.0226225  -0.1013870  -0.0125792   0.0456605
   14   0.0158635   0.0803481  -0.0305430  -0.0507929  -0.0974941   0.1068975
   15  -0.0051524   0.0850953  -0.0123987   0.0033155   0.0289451  -0.0707464
   16  -0.0149597  -0.0990549   0.0057227  -0.0189309  -0.0291392  -0.0063304
   17  -0.0143382  -0.0198404   0.0018190  -0.0150615  -0.0038420   0.0042317
   18  -0.0076447  -0.0392624  -0.0024052   0.0211024   0.0151572   0.0029330
   19   0.0001167   0.0006749   0.0009077  -0.0010070  -0.0012438  -0.0003992
   20  -0.0019611  -0.0040950   0.0012090   0.0001856  -0.0010430  -0.0007665
   21  -0.0012122  -0.0020902  -0.0012050   0.0039467   0.0022350  -0.0005936
   22  -0.0050823   0.0138740   0.0082635  -0.0050925   0.0024385   0.0015935
   23  -0.0040628   0.0005993  -0.0000530  -0.0016239  -0.0005381  -0.0002650
   24   0.0016561   0.0107609   0.0053606  -0.0000655  -0.0027529  -0.0018588
   25  -0.1260548  -0.0274884  -0.1341335   0.0097372   0.0034738   0.0075631
   26  -0.0308570  -0.0554529  -0.0847891  -0.0052717  -0.0025099  -0.0013568
   27  -0.1327687  -0.0894262  -0.2470806  -0.0116386  -0.0000784  -0.0053359
   28   0.0022700  -0.0007677   0.0006412  -0.2929002   0.0339515   0.0951876
   29   0.0189077  -0.0011579  -0.0007882   0.0341618  -0.0394867  -0.0116108
   30   0.0176723  -0.0036221  -0.0029577   0.0965807  -0.0091934  -0.0901519
   31  -0.0008801   0.0008523   0.0016224   0.0086196  -0.0093967   0.0075510
   32   0.0019636  -0.0018529   0.0078540   0.0058377  -0.0087061   0.0036914
   33   0.0041279  -0.0068315   0.0040885  -0.0103514   0.0068012  -0.0078290
   34  -0.0139127   0.0073936  -0.0363844  -0.1242410   0.0336619  -0.0403556
   35  -0.0020633   0.0109739  -0.0239405   0.0258272  -0.0600879   0.0473350
   36  -0.0231181   0.0023526  -0.0684455  -0.0235144   0.0260251  -0.0787661
   37  -0.0017292  -0.0028871  -0.0020639   0.0080093   0.0052110  -0.0159934
   38   0.0011509  -0.0031938  -0.0014846  -0.0058807  -0.0024586   0.0034890
   39  -0.0008320  -0.0009890  -0.0026488   0.0013758  -0.0023029  -0.0006665
           13          14          15          16          17          18
    1  -0.0363693   0.0479229  -0.0217490  -0.1048152   0.0246642  -0.0293300
    2   0.0236761  -0.0210953   0.0222903   0.0556945  -0.1399865   0.0525065
    3  -0.0342930  -0.0020040  -0.0172022  -0.0233864   0.0511132  -0.0751968
    4   0.0000056   0.0255371  -0.0064229  -0.0107884  -0.0092257   0.0097225
    5   0.0129268  -0.0119510  -0.0019776   0.0030016  -0.0391797  -0.0050846
    6   0.0095679   0.0293386   0.0101974  -0.0140438   0.0153136   0.0041994
    7  -0.0127734   0.0158635  -0.0051524  -0.0149597  -0.0143382  -0.0076447
    8   0.0720951   0.0803481   0.0850953  -0.0990549  -0.0198404  -0.0392624
    9  -0.0226225  -0.0305430  -0.0123987   0.0057227   0.0018190  -0.0024052
   10  -0.1013870  -0.0507929   0.0033155  -0.0189309  -0.0150615   0.0211024
   11  -0.0125792  -0.0974941   0.0289451  -0.0291392  -0.0038420   0.0151572
   12   0.0456605   0.1068975  -0.0707464  -0.0063304   0.0042317   0.0029330
   13   0.6074598  -0.1713844   0.1073888  -0.3187787  -0.0099014  -0.0286685
   14  -0.1713844   0.3035131  -0.2961432   0.0255054  -0.0676781   0.0484402
   15   0.1073888  -0.2961432   0.2678555   0.0153229   0.0236855  -0.0346202
   16  -0.3187787   0.0255054   0.0153229   0.4884670   0.0238396   0.0421473
   17  -0.0099014  -0.0676781   0.0236855   0.0238396   0.2981170  -0.1070831
   18  -0.0286685   0.0484402  -0.0346202   0.0421473  -0.1070831   0.1365732
   19  -0.0001729   0.0008067  -0.0007753  -0.0021551   0.0006718   0.0000281
   20   0.0040171  -0.0026305   0.0041477   0.0256989  -0.0004645   0.0068251
   21  -0.0008565   0.0030016  -0.0020159  -0.0126659  -0.0017461  -0.0058461
   22  -0.0003944  -0.0023519   0.0004997   0.0003397  -0.0012808  -0.0026561
   23   0.0003917  -0.0018647  -0.0002242   0.0009154  -0.0005871  -0.0013454
   24   0.0005926   0.0037770   0.0007335  -0.0016003   0.0020182  -0.0013019
   25  -0.0029754  -0.0009262  -0.0020201   0.0005826  -0.0000947   0.0007535
   26  -0.0031404  -0.0006510  -0.0098792   0.0000439  -0.0009174   0.0009613
   27   0.0048250   0.0024476   0.0032924  -0.0016529   0.0008756  -0.0007617
   28  -0.0037839   0.0030930   0.0016589  -0.0016981  -0.0003483  -0.0006381
   29  -0.0256858   0.0063948   0.0048874  -0.0013496  -0.0025122   0.0015095
   30   0.0128494   0.0029989  -0.0006183  -0.0041272   0.0001418  -0.0030302
   31  -0.1321039   0.0931095  -0.0902912  -0.0182031   0.0221441  -0.0158072
   32   0.0993921  -0.1633093   0.1128965  -0.0024956   0.0070577  -0.0082298
   33  -0.0908215   0.1187981  -0.1276812  -0.0011377  -0.0019358  -0.0052954
   34   0.0011179   0.0123236  -0.0025818   0.0038655  -0.0218862   0.0098498
   35   0.0075064  -0.0237376   0.0223553  -0.0006096  -0.0284079   0.0332762
   36  -0.0053199   0.0122299  -0.0174446   0.0033302   0.0115517  -0.0154768
   37   0.0001557   0.0012937   0.0008069  -0.0029257   0.0008171   0.0011413
   38   0.0026858   0.0001555   0.0039212  -0.0020506  -0.0017589   0.0023294
   39   0.0016976   0.0007607   0.0006488  -0.0015785   0.0000148   0.0002287
           19          20          21          22          23          24
    1  -0.3118159   0.0067631  -0.0923433   0.0106337   0.0115498  -0.0017317
    2   0.0119534  -0.0482496   0.0115000  -0.0143707  -0.0123158  -0.0018927
    3  -0.0938071   0.0092063  -0.0685744  -0.0008117  -0.0026282  -0.0042689
    4  -0.0014729  -0.0200574  -0.0151891  -0.1121328   0.1343227   0.0157267
    5   0.0005114   0.0026840   0.0023113   0.1335432  -0.2608803  -0.0467394
    6   0.0017054  -0.0061165  -0.0059989   0.0177365  -0.0466274  -0.0554723
    7   0.0001167  -0.0019611  -0.0012122  -0.0050823  -0.0040628   0.0016561
    8   0.0006749  -0.0040950  -0.0020902   0.0138740   0.0005993   0.0107609
    9   0.0009077   0.0012090  -0.0012050   0.0082635  -0.0000530   0.0053606
   10  -0.0010070   0.0001856   0.0039467  -0.0050925  -0.0016239  -0.0000655
   11  -0.0012438  -0.0010430   0.0022350   0.0024385  -0.0005381  -0.0027529
   12  -0.0003992  -0.0007665  -0.0005936   0.0015935  -0.0002650  -0.0018588
   13  -0.0001729   0.0040171  -0.0008565  -0.0003944   0.0003917   0.0005926
   14   0.0008067  -0.0026305   0.0030016  -0.0023519  -0.0018647   0.0037770
   15  -0.0007753   0.0041477  -0.0020159   0.0004997  -0.0002242   0.0007335
   16  -0.0021551   0.0256989  -0.0126659   0.0003397   0.0009154  -0.0016003
   17   0.0006718  -0.0004645  -0.0017461  -0.0012808  -0.0005871   0.0020182
   18   0.0000281   0.0068251  -0.0058461  -0.0026561  -0.0013454  -0.0013019
   19   0.3266489  -0.0138592   0.0996136   0.0002388  -0.0003289  -0.0002164
   20  -0.0138592   0.0522292  -0.0122742   0.0012508   0.0013490  -0.0006836
   21   0.0996136  -0.0122742   0.0721224   0.0013015   0.0008421   0.0005921
   22   0.0002388   0.0012508   0.0013015   0.1158942  -0.1376818  -0.0213593
   23  -0.0003289   0.0013490   0.0008421  -0.1376818   0.2725605   0.0518410
   24  -0.0002164  -0.0006836   0.0005921  -0.0213593   0.0518410   0.0471476
   25   0.0002719  -0.0007637  -0.0009153   0.0004698   0.0004223  -0.0000166
   26  -0.0001728   0.0001787   0.0003657  -0.0003732   0.0000098  -0.0000418
   27   0.0001130   0.0003160   0.0002519  -0.0004363  -0.0001122   0.0002827
   28  -0.0001472   0.0002485   0.0007459  -0.0002608  -0.0003987   0.0003129
   29  -0.0001901  -0.0000739  -0.0001059   0.0014733   0.0002661  -0.0002088
   30  -0.0005310  -0.0000787   0.0012799   0.0000612   0.0001471   0.0005970
   31  -0.0001847   0.0015599  -0.0009376  -0.0000035   0.0000590  -0.0001285
   32   0.0000441   0.0004626   0.0002419   0.0001285   0.0001581   0.0004502
   33  -0.0000756   0.0002680   0.0007732   0.0002181   0.0000340   0.0009287
   34  -0.0113580  -0.0027539   0.0201193  -0.0056317  -0.0038259   0.0068311
   35   0.0006084  -0.0009870  -0.0030149   0.0039433   0.0006988  -0.0184496
   36  -0.0068997  -0.0023900   0.0089463  -0.0038108  -0.0011175   0.0054433
   37   0.0010375  -0.0003287  -0.0016071   0.0010217   0.0002611  -0.0000010
   38   0.0005240   0.0006399  -0.0012663  -0.0005933   0.0005444   0.0019216
   39   0.0003365   0.0003375   0.0002680  -0.0005997  -0.0004914   0.0018165
           25          26          27          28          29          30
    1  -0.0026119   0.0001893   0.0013366  -0.0020494  -0.0009584  -0.0039845
    2   0.0015550  -0.0015759   0.0000936   0.0011462  -0.0027728   0.0014769
    3  -0.0026994  -0.0023374   0.0014287   0.0000305   0.0013861  -0.0014936
    4   0.0005803   0.0039318   0.0027039  -0.0007680   0.0042668   0.0005237
    5  -0.0127585   0.0073092   0.0000307   0.0006580  -0.0023746  -0.0000959
    6  -0.0075167   0.0059317  -0.0008926   0.0007280  -0.0029416  -0.0031328
    7  -0.1260548  -0.0308570  -0.1327687   0.0022700   0.0189077   0.0176723
    8  -0.0274884  -0.0554529  -0.0894262  -0.0007677  -0.0011579  -0.0036221
    9  -0.1341335  -0.0847891  -0.2470806   0.0006412  -0.0007882  -0.0029577
   10   0.0097372  -0.0052717  -0.0116386  -0.2929002   0.0341618   0.0965807
   11   0.0034738  -0.0025099  -0.0000784   0.0339515  -0.0394867  -0.0091934
   12   0.0075631  -0.0013568  -0.0053359   0.0951876  -0.0116108  -0.0901519
   13  -0.0029754  -0.0031404   0.0048250  -0.0037839  -0.0256858   0.0128494
   14  -0.0009262  -0.0006510   0.0024476   0.0030930   0.0063948   0.0029989
   15  -0.0020201  -0.0098792   0.0032924   0.0016589   0.0048874  -0.0006183
   16   0.0005826   0.0000439  -0.0016529  -0.0016981  -0.0013496  -0.0041272
   17  -0.0000947  -0.0009174   0.0008756  -0.0003483  -0.0025122   0.0001418
   18   0.0007535   0.0009613  -0.0007617  -0.0006381   0.0015095  -0.0030302
   19   0.0002719  -0.0001728   0.0001130  -0.0001472  -0.0001901  -0.0005310
   20  -0.0007637   0.0001787   0.0003160   0.0002485  -0.0000739  -0.0000787
   21  -0.0009153   0.0003657   0.0002519   0.0007459  -0.0001059   0.0012799
   22   0.0004698  -0.0003732  -0.0004363  -0.0002608   0.0014733   0.0000612
   23   0.0004223   0.0000098  -0.0001122  -0.0003987   0.0002661   0.0001471
   24  -0.0000166  -0.0000418   0.0002827   0.0003129  -0.0002088   0.0005970
   25   0.1189303   0.0370483   0.1394444   0.0005316  -0.0011779  -0.0004470
   26   0.0370483   0.0525066   0.0873187   0.0003474   0.0003723  -0.0001654
   27   0.1394444   0.0873187   0.2537000   0.0000917   0.0008545   0.0010399
   28   0.0005316   0.0003474   0.0000917   0.3037504  -0.0344582  -0.1070148
   29  -0.0011779   0.0003723   0.0008545  -0.0344582   0.0416945   0.0118236
   30  -0.0004470  -0.0001654   0.0010399  -0.1070148   0.0118236   0.0855207
   31   0.0005677  -0.0000400  -0.0001338   0.0004570   0.0012298  -0.0001919
   32   0.0003769   0.0005630  -0.0007757  -0.0000517   0.0008179   0.0003166
   33   0.0002537   0.0009785  -0.0002625   0.0001445  -0.0005872   0.0004751
   34  -0.0002742  -0.0015375  -0.0008318  -0.0058275   0.0042252  -0.0121282
   35   0.0012994   0.0000673  -0.0011173  -0.0033221  -0.0019154  -0.0035052
   36  -0.0002757   0.0023797  -0.0051736   0.0084013  -0.0045962   0.0121125
   37   0.0002449  -0.0001683  -0.0010525   0.0004260  -0.0004446   0.0007372
   38  -0.0009663   0.0001004  -0.0004269  -0.0000980   0.0007479  -0.0002442
   39   0.0000096   0.0006341  -0.0004888  -0.0002895   0.0003776   0.0003595
           31          32          33          34          35          36
    1  -0.0060531  -0.0010327  -0.0004586  -0.1204243  -0.0116465   0.0520998
    2  -0.0016016   0.0017317   0.0004812  -0.0399591  -0.0373379   0.0711953
    3  -0.0020663   0.0023672   0.0027985   0.0179735   0.0209452  -0.0759110
    4   0.0002283   0.0011357   0.0013196  -0.0272856   0.0170166   0.0212171
    5  -0.0005767   0.0005185  -0.0002650   0.0504153  -0.0639089  -0.0691167
    6   0.0007927   0.0017524   0.0005690   0.0611748  -0.0275333  -0.1527093
    7  -0.0008801   0.0019636   0.0041279  -0.0139127  -0.0020633  -0.0231181
    8   0.0008523  -0.0018529  -0.0068315   0.0073936   0.0109739   0.0023526
    9   0.0016224   0.0078540   0.0040885  -0.0363844  -0.0239405  -0.0684455
   10   0.0086196   0.0058377  -0.0103514  -0.1242410   0.0258272  -0.0235144
   11  -0.0093967  -0.0087061   0.0068012   0.0336619  -0.0600879   0.0260251
   12   0.0075510   0.0036914  -0.0078290  -0.0403556   0.0473350  -0.0787661
   13  -0.1321039   0.0993921  -0.0908215   0.0011179   0.0075064  -0.0053199
   14   0.0931095  -0.1633093   0.1187981   0.0123236  -0.0237376   0.0122299
   15  -0.0902912   0.1128965  -0.1276812  -0.0025818   0.0223553  -0.0174446
   16  -0.0182031  -0.0024956  -0.0011377   0.0038655  -0.0006096   0.0033302
   17   0.0221441   0.0070577  -0.0019358  -0.0218862  -0.0284079   0.0115517
   18  -0.0158072  -0.0082298  -0.0052954   0.0098498   0.0332762  -0.0154768
   19  -0.0001847   0.0000441  -0.0000756  -0.0113580   0.0006084  -0.0068997
   20   0.0015599   0.0004626   0.0002680  -0.0027539  -0.0009870  -0.0023900
   21  -0.0009376   0.0002419   0.0007732   0.0201193  -0.0030149   0.0089463
   22  -0.0000035   0.0001285   0.0002181  -0.0056317   0.0039433  -0.0038108
   23   0.0000590   0.0001581   0.0000340  -0.0038259   0.0006988  -0.0011175
   24  -0.0001285   0.0004502   0.0009287   0.0068311  -0.0184496   0.0054433
   25   0.0005677   0.0003769   0.0002537  -0.0002742   0.0012994  -0.0002757
   26  -0.0000400   0.0005630   0.0009785  -0.0015375   0.0000673   0.0023797
   27  -0.0001338  -0.0007757  -0.0002625  -0.0008318  -0.0011173  -0.0051736
   28   0.0004570  -0.0000517   0.0001445  -0.0058275  -0.0033221   0.0084013
   29   0.0012298   0.0008179  -0.0005872   0.0042252  -0.0019154  -0.0045962
   30  -0.0001919   0.0003166   0.0004751  -0.0121282  -0.0035052   0.0121125
   31   0.1478460  -0.1038441   0.0983680  -0.0009559  -0.0030500   0.0013110
   32  -0.1038441   0.1644573  -0.1197273  -0.0014207  -0.0019403  -0.0004510
   33   0.0983680  -0.1197273   0.1322564  -0.0005434   0.0012617  -0.0007750
   34  -0.0009559  -0.0014207  -0.0005434   0.3532865  -0.0491795  -0.0096661
   35  -0.0030500  -0.0019403   0.0012617  -0.0491795   0.2782769  -0.1500265
   36   0.0013110  -0.0004510  -0.0007750  -0.0096661  -0.1500265   0.6973084
   37   0.0006658  -0.0000339  -0.0010438  -0.0483588   0.0136697  -0.0137548
   38  -0.0004455   0.0000420   0.0007242   0.0125431  -0.0716940   0.1019634
   39  -0.0000885  -0.0003865  -0.0000464  -0.0134573   0.1024139  -0.3091087
           37          38          39
    1   0.0037351   0.0077709   0.0008123
    2  -0.0035802  -0.0034060  -0.0031738
    3   0.0175728   0.0097675  -0.0026131
    4  -0.0037394  -0.0047253  -0.0002395
    5  -0.0038947   0.0117859   0.0091738
    6   0.0024051  -0.0143253  -0.0083161
    7  -0.0017292   0.0011509  -0.0008320
    8  -0.0028871  -0.0031938  -0.0009890
    9  -0.0020639  -0.0014846  -0.0026488
   10   0.0080093  -0.0058807   0.0013758
   11   0.0052110  -0.0024586  -0.0023029
   12  -0.0159934   0.0034890  -0.0006665
   13   0.0001557   0.0026858   0.0016976
   14   0.0012937   0.0001555   0.0007607
   15   0.0008069   0.0039212   0.0006488
   16  -0.0029257  -0.0020506  -0.0015785
   17   0.0008171  -0.0017589   0.0000148
   18   0.0011413   0.0023294   0.0002287
   19   0.0010375   0.0005240   0.0003365
   20  -0.0003287   0.0006399   0.0003375
   21  -0.0016071  -0.0012663   0.0002680
   22   0.0010217  -0.0005933  -0.0005997
   23   0.0002611   0.0005444  -0.0004914
   24  -0.0000010   0.0019216   0.0018165
   25   0.0002449  -0.0009663   0.0000096
   26  -0.0001683   0.0001004   0.0006341
   27  -0.0010525  -0.0004269  -0.0004888
   28   0.0004260  -0.0000980  -0.0002895
   29  -0.0004446   0.0007479   0.0003776
   30   0.0007372  -0.0002442   0.0003595
   31   0.0006658  -0.0004455  -0.0000885
   32  -0.0000339   0.0000420  -0.0003865
   33  -0.0010438   0.0007242  -0.0000464
   34  -0.0483588   0.0125431  -0.0134573
   35   0.0136697  -0.0716940   0.1024139
   36  -0.0137548   0.1019634  -0.3091087
   37   0.0414570  -0.0099150   0.0128533
   38  -0.0099150   0.0684953  -0.1063688
   39   0.0128533  -0.1063688   0.3205668
 Gradient time:  CPU 554.43 s  wall 605.44 s
 **********************************************************************
 **                                                                  **
 **                       VIBRATIONAL ANALYSIS                       **
 **                       --------------------                       **
 **                                                                  **
 **        VIBRATIONAL FREQUENCIES (CM**-1) AND NORMAL MODES         **
 **     FORCE CONSTANTS (mDYN/ANGSTROM) AND REDUCED MASSES (AMU)     **
 **                  INFRARED INTENSITIES (KM/MOL)                   **
 **                                                                  **
 **********************************************************************
 

 Mode:                 1                      2                      3
 Frequency:      -622.51                 469.76                 563.74
 Force Cnst:      2.0394                 0.4906                 0.5643
 Red. Mass:       8.9322                 3.7731                 3.0139
 IR Active:          YES                    YES                    YES
 IR Intens:        5.524                  3.867                  3.610
 Raman Active:       YES                    YES                    YES
               X      Y      Z        X      Y      Z        X      Y      Z
 C          0.063 -0.004 -0.006    0.019  0.005 -0.037   -0.060  0.091  0.200
 C         -0.004  0.065  0.050   -0.044 -0.005 -0.081    0.095  0.143 -0.126
 C          0.060  0.537 -0.076   -0.142 -0.156  0.062   -0.087 -0.013  0.082
 C         -0.074 -0.056  0.201    0.038  0.045 -0.046    0.012  0.042  0.067
 C         -0.103 -0.482 -0.325    0.079 -0.068 -0.197    0.053  0.000 -0.053
 N          0.057 -0.012  0.081    0.004  0.165  0.290    0.052 -0.072 -0.140
 H          0.042  0.032  0.053    0.036 -0.107 -0.100   -0.083  0.103  0.270
 H         -0.150 -0.006 -0.015    0.002  0.017 -0.065    0.208  0.246 -0.295
 H         -0.123  0.164  0.159   -0.407 -0.575  0.367   -0.280 -0.285  0.292
 H         -0.033  0.011  0.246    0.097  0.229  0.038    0.027  0.144  0.070
 H         -0.120 -0.287 -0.072    0.107 -0.030 -0.177    0.060 -0.090 -0.158
 C          0.012 -0.040  0.027    0.058  0.028 -0.041   -0.058 -0.151 -0.013
 H          0.142  0.010  0.038    0.026 -0.010 -0.052   -0.138 -0.449 -0.115
 TransDip   0.073  0.007 -0.019    0.005 -0.060 -0.019   -0.034 -0.016  0.048

 Mode:                 4                      5                      6
 Frequency:       607.76                 707.46                 734.65
 Force Cnst:      0.2895                 2.2091                 0.6104
 Red. Mass:       1.3304                 7.4915                 1.9197
 IR Active:          YES                    YES                    YES
 IR Intens:       15.428                  0.915                 11.444
 Raman Active:       YES                    YES                    YES
               X      Y      Z        X      Y      Z        X      Y      Z
 C          0.022  0.044  0.036    0.211 -0.065 -0.082   -0.134 -0.083  0.072
 C         -0.014  0.010 -0.021    0.132  0.354 -0.141    0.011 -0.011 -0.130
 C         -0.082 -0.077  0.055   -0.133 -0.077 -0.010    0.007  0.012  0.025
 C         -0.018  0.011  0.022   -0.261 -0.123 -0.042    0.026 -0.035 -0.006
 C          0.029 -0.059 -0.030    0.022 -0.153  0.195    0.000  0.012 -0.046
 N         -0.000  0.023  0.015    0.104 -0.216  0.074   -0.008 -0.055  0.022
 H          0.026  0.045  0.026    0.162 -0.157  0.063   -0.137 -0.192  0.061
 H         -0.036 -0.015  0.041   -0.169  0.111  0.215    0.241  0.202 -0.524
 H          0.329  0.701 -0.469    0.022 -0.292 -0.036    0.023  0.221 -0.052
 H          0.042  0.168  0.129   -0.251 -0.045 -0.034    0.005 -0.177 -0.019
 H          0.031 -0.205 -0.195    0.221  0.021  0.209    0.052  0.002 -0.108
 C          0.030 -0.004 -0.033   -0.083  0.345 -0.028    0.066  0.118  0.092
 H         -0.002 -0.111 -0.073   -0.094  0.022 -0.155    0.191  0.541  0.242
 TransDip   0.060  0.079 -0.077    0.028 -0.013  0.003    0.045  0.091 -0.039

 Mode:                 7                      8                      9
 Frequency:       761.88                 789.49                 802.51
 Force Cnst:      1.6853                 1.1932                 0.9901
 Red. Mass:       4.9278                 3.2491                 2.6094
 IR Active:          YES                    YES                    YES
 IR Intens:       10.503                 18.480                  6.953
 Raman Active:       YES                    YES                    YES
               X      Y      Z        X      Y      Z        X      Y      Z
 C         -0.011 -0.163 -0.251   -0.042  0.019 -0.125   -0.042  0.026 -0.053
 C          0.202  0.038 -0.042   -0.114  0.134  0.085    0.069 -0.104 -0.017
 C          0.183 -0.003  0.253   -0.016 -0.030  0.001   -0.037  0.020  0.081
 C         -0.107  0.234  0.051   -0.066 -0.166 -0.004   -0.087 -0.127  0.061
 C         -0.057  0.030 -0.030    0.120 -0.006 -0.013    0.078  0.008  0.058
 N         -0.066 -0.013  0.074    0.119  0.142 -0.064    0.131  0.151 -0.050
 H         -0.055 -0.085 -0.112    0.064 -0.305 -0.486   -0.243  0.096  0.541
 H          0.191  0.069 -0.237    0.208  0.397 -0.287   -0.104 -0.222  0.044
 H          0.445  0.054  0.081    0.171 -0.012 -0.115   -0.140  0.033  0.138
 H         -0.221  0.128 -0.192   -0.145 -0.024 -0.235   -0.086 -0.191  0.085
 H          0.067 -0.190 -0.408    0.014 -0.050  0.041    0.039 -0.159 -0.089
 C         -0.162 -0.116  0.004   -0.049 -0.104  0.205   -0.104 -0.006 -0.135
 H         -0.081 -0.035  0.029    0.028 -0.163  0.187    0.178  0.529  0.041
 TransDip   0.047 -0.036 -0.085    0.008 -0.067 -0.120   -0.051 -0.031  0.060

 Mode:                10                     11                     12
 Frequency:       845.62                 881.77                 905.80
 Force Cnst:      0.8038                 0.6772                 0.7753
 Red. Mass:       1.9078                 1.4783                 1.6038
 IR Active:          YES                    YES                    YES
 IR Intens:        6.401                 26.126                 18.127
 Raman Active:       YES                    YES                    YES
               X      Y      Z        X      Y      Z        X      Y      Z
 C         -0.058 -0.030 -0.042    0.016  0.076 -0.020    0.043  0.068 -0.054
 C          0.060  0.012 -0.003    0.021 -0.017  0.049    0.016 -0.001  0.093
 C         -0.017 -0.053 -0.073   -0.045 -0.019  0.015   -0.073  0.021 -0.072
 C          0.139  0.057  0.037   -0.091  0.037 -0.029    0.028 -0.004  0.001
 C          0.012 -0.130  0.050    0.016 -0.009 -0.053   -0.006  0.040  0.039
 N          0.004  0.047 -0.018    0.005 -0.075  0.027   -0.004 -0.092  0.056
 H         -0.090 -0.075  0.037   -0.025  0.199  0.118    0.088  0.052 -0.183
 H          0.258  0.128 -0.023    0.154  0.090 -0.116    0.481  0.283 -0.003
 H          0.020  0.021 -0.125    0.067  0.036 -0.073   -0.273  0.108  0.014
 H          0.250  0.398  0.187   -0.136  0.216 -0.183    0.098 -0.118  0.207
 H         -0.257  0.071  0.548    0.024  0.484  0.490    0.207 -0.212 -0.448
 C         -0.128  0.023 -0.007    0.033 -0.089 -0.021   -0.044 -0.056 -0.047
 H         -0.335  0.241  0.080    0.445  0.260  0.090   -0.113  0.357  0.106
 TransDip   0.000  0.064  0.050    0.058  0.148  0.040    0.082  0.079 -0.074

 Mode:                13                     14                     15
 Frequency:       922.95                 969.92                 974.43
 Force Cnst:      0.8206                 0.9806                 0.8397
 Red. Mass:       1.6351                 1.7692                 1.5010
 IR Active:          YES                    YES                    YES
 IR Intens:        0.338                  2.238                  3.361
 Raman Active:       YES                    YES                    YES
               X      Y      Z        X      Y      Z        X      Y      Z
 C          0.003  0.032  0.024   -0.101 -0.069 -0.050    0.008  0.045  0.014
 C         -0.078  0.002 -0.019    0.051  0.124  0.006   -0.113  0.015  0.012
 C          0.042 -0.007 -0.070   -0.030 -0.011 -0.093    0.082 -0.031  0.015
 C         -0.030  0.082 -0.029    0.050 -0.040  0.058   -0.026 -0.011  0.077
 C          0.002 -0.085  0.149    0.011  0.083 -0.052   -0.001  0.026 -0.037
 N         -0.007  0.015 -0.014   -0.019 -0.028  0.024    0.021 -0.032  0.012
 H         -0.023  0.040  0.105   -0.189  0.008  0.198    0.014 -0.068 -0.026
 H         -0.144  0.013 -0.239   -0.199 -0.121  0.516   -0.070  0.111 -0.302
 H          0.122 -0.321 -0.010    0.164 -0.155 -0.168    0.519 -0.393 -0.122
 H         -0.041  0.474 -0.173    0.169  0.187  0.277    0.151 -0.139  0.553
 H         -0.019 -0.487 -0.271    0.070  0.012 -0.198    0.072  0.152  0.030
 C          0.051 -0.036  0.004   -0.004 -0.051  0.047   -0.023  0.012 -0.100
 H          0.337  0.214  0.084    0.519  0.029  0.046   -0.101  0.106 -0.067
 TransDip   0.006  0.016  0.007    0.034  0.034  0.004    0.057  0.015  0.005

 Mode:                16                     17                     18
 Frequency:      1001.80                1046.32                1048.89
 Force Cnst:      1.0001                 0.8949                 1.9194
 Red. Mass:       1.6913                 1.3875                 2.9611
 IR Active:          YES                    YES                    YES
 IR Intens:        1.740                  2.349                  2.196
 Raman Active:       YES                    YES                    YES
               X      Y      Z        X      Y      Z        X      Y      Z
 C         -0.144 -0.006  0.002    0.055 -0.056 -0.077   -0.136  0.137 -0.150
 C          0.005 -0.067  0.033   -0.006 -0.055  0.050   -0.140  0.064 -0.003
 C          0.038  0.011 -0.017   -0.024  0.016 -0.035    0.081 -0.007  0.080
 C         -0.091  0.038  0.023   -0.021 -0.053 -0.001    0.181 -0.015  0.006
 C          0.015 -0.030  0.040   -0.005  0.045 -0.015    0.097 -0.079  0.040
 N          0.046  0.008  0.000   -0.020  0.005  0.002   -0.006 -0.126  0.070
 H         -0.117 -0.278 -0.145   -0.144  0.344  0.575   -0.280  0.387  0.262
 H          0.577  0.211  0.300    0.190  0.142 -0.390   -0.178  0.062 -0.016
 H         -0.037 -0.024  0.037   -0.004 -0.030 -0.036   -0.086  0.197  0.129
 H         -0.057  0.084  0.100    0.076  0.293  0.135   -0.020 -0.343 -0.428
 H          0.046 -0.022  0.022    0.023  0.010 -0.088    0.107 -0.082  0.050
 C          0.067  0.083 -0.083    0.022  0.066  0.065   -0.046  0.050 -0.040
 H          0.258 -0.429 -0.286   -0.117 -0.381 -0.088    0.113 -0.258 -0.171
 TransDip   0.006 -0.035  0.023    0.020  0.044 -0.007   -0.041 -0.007 -0.023

 Mode:                19                     20                     21
 Frequency:      1065.17                1139.25                1208.43
 Force Cnst:      1.1515                 1.7463                 1.1509
 Red. Mass:       1.7225                 2.2837                 1.3377
 IR Active:          YES                    YES                    YES
 IR Intens:        6.146                  0.318                  0.315
 Raman Active:       YES                    YES                    YES
               X      Y      Z        X      Y      Z        X      Y      Z
 C         -0.074  0.088 -0.010   -0.052  0.062 -0.042    0.006  0.015  0.016
 C          0.056 -0.076 -0.060    0.048 -0.093 -0.096    0.039  0.006  0.050
 C          0.048  0.052  0.033   -0.034 -0.050 -0.135    0.071 -0.062 -0.035
 C         -0.040 -0.129  0.010   -0.073  0.139  0.099   -0.022  0.029 -0.049
 C          0.075  0.035  0.005    0.038 -0.058  0.023   -0.006 -0.023  0.003
 N         -0.036 -0.057  0.023    0.051  0.020  0.005    0.003  0.011 -0.003
 H          0.096  0.215 -0.492    0.008  0.530 -0.139    0.060 -0.062 -0.150
 H         -0.156 -0.217  0.002   -0.040 -0.189  0.041   -0.275 -0.088 -0.379
 H         -0.003 -0.004  0.087    0.065 -0.156 -0.183   -0.396  0.294  0.123
 H          0.094  0.684  0.084   -0.152 -0.508  0.143    0.150 -0.060  0.402
 H          0.139  0.045 -0.046    0.319  0.126 -0.047    0.061  0.041  0.009
 C         -0.019  0.034  0.022    0.012  0.002  0.149   -0.098  0.027  0.025
 H         -0.225  0.019  0.029   -0.179 -0.099  0.140    0.472 -0.180 -0.078
 TransDip  -0.006  0.069 -0.039   -0.018 -0.003  0.002    0.008 -0.016  0.004

 Mode:                22                     23                     24
 Frequency:      1235.65                1246.61                1287.41
 Force Cnst:      2.7150                 1.2407                 2.0075
 Red. Mass:       3.0181                 1.3551                 2.0558
 IR Active:          YES                    YES                    YES
 IR Intens:        7.473                  1.924                 13.691
 Raman Active:       YES                    YES                    YES
               X      Y      Z        X      Y      Z        X      Y      Z
 C          0.151 -0.005  0.065    0.004  0.005 -0.016   -0.070 -0.005  0.012
 C         -0.062 -0.069 -0.081   -0.017  0.038  0.010    0.148 -0.012  0.160
 C          0.045 -0.053 -0.088    0.055 -0.024 -0.018   -0.142  0.042 -0.037
 C          0.047 -0.037  0.261   -0.017 -0.004  0.035    0.061  0.004  0.055
 C          0.040  0.052 -0.059    0.021 -0.062  0.027    0.040 -0.007  0.013
 N         -0.085  0.015 -0.010   -0.094  0.040 -0.042   -0.042  0.003  0.004
 H          0.213 -0.072 -0.079   -0.105 -0.357  0.238   -0.019 -0.236 -0.196
 H          0.282  0.097  0.053   -0.067  0.008  0.047   -0.325 -0.150 -0.545
 H         -0.050  0.014 -0.063   -0.182  0.134  0.072    0.247 -0.234 -0.197
 H         -0.269  0.134 -0.564   -0.024  0.107 -0.013   -0.121 -0.124 -0.362
 H          0.053  0.049 -0.084    0.682  0.392 -0.114    0.150  0.011 -0.066
 C         -0.181  0.080 -0.015    0.058 -0.031 -0.012    0.017  0.047 -0.079
 H          0.479 -0.046 -0.102   -0.241  0.092  0.049    0.009 -0.130 -0.158
 TransDip   0.059  0.032 -0.056    0.008  0.001  0.044   -0.012 -0.054 -0.105

 Mode:                25                     26                     27
 Frequency:      1299.84                1338.95                1389.22
 Force Cnst:      2.3181                 2.4832                 2.7282
 Red. Mass:       2.3286                 2.3510                 2.3993
 IR Active:          YES                    YES                    YES
 IR Intens:        3.084                  6.222                  0.537
 Raman Active:       YES                    YES                    YES
               X      Y      Z        X      Y      Z        X      Y      Z
 C          0.005 -0.172  0.068   -0.059 -0.107  0.015    0.048  0.087 -0.041
 C         -0.036  0.037  0.019   -0.009  0.106  0.080    0.024 -0.035 -0.023
 C         -0.033  0.068  0.063    0.095 -0.097 -0.091   -0.006  0.046 -0.022
 C          0.005 -0.002 -0.080   -0.098  0.013  0.134   -0.074  0.042 -0.017
 C          0.163 -0.064  0.039    0.078  0.052 -0.048    0.246  0.027 -0.023
 N         -0.138  0.065 -0.051    0.007 -0.012  0.016   -0.172 -0.044 -0.003
 H          0.169  0.691 -0.262   -0.001  0.376 -0.095   -0.089 -0.537  0.255
 H          0.188  0.160  0.088   -0.197  0.061 -0.136    0.011 -0.069  0.057
 H          0.126 -0.096  0.034   -0.410  0.246  0.084   -0.007 -0.047  0.003
 H          0.090 -0.193  0.170   -0.209  0.055 -0.103   -0.008 -0.249  0.260
 H          0.276  0.041  0.067   -0.384 -0.203  0.113   -0.430 -0.365  0.230
 C         -0.032  0.002 -0.053    0.117 -0.016 -0.097    0.010 -0.007  0.056
 H          0.227  0.066 -0.053   -0.364  0.198 -0.008   -0.043 -0.020  0.065
 TransDip   0.054  0.002  0.015   -0.071  0.033  0.016    0.001  0.021  0.011

 Mode:                28                     29                     30
 Frequency:      3161.24                3200.17                3204.24
 Force Cnst:      6.4319                 6.5878                 6.5984
 Red. Mass:       1.0924                 1.0918                 1.0908
 IR Active:          YES                    YES                    YES
 IR Intens:       14.147                 11.631                  7.705
 Raman Active:       YES                    YES                    YES
               X      Y      Z        X      Y      Z        X      Y      Z
 C          0.000 -0.000  0.000    0.032 -0.004  0.012   -0.062  0.004 -0.022
 C          0.001 -0.002 -0.000    0.011 -0.017 -0.002    0.027 -0.045 -0.008
 C          0.003 -0.000  0.003    0.001  0.001  0.003    0.003  0.003  0.006
 C         -0.080  0.011  0.032    0.009 -0.002 -0.002    0.003 -0.000 -0.001
 C          0.004 -0.002  0.003   -0.001  0.001 -0.000   -0.004  0.005 -0.004
 N          0.000  0.000 -0.000   -0.000  0.000  0.000    0.000 -0.000  0.000
 H          0.001  0.001 -0.000   -0.371  0.022 -0.130    0.715 -0.041  0.246
 H         -0.011  0.018  0.004   -0.121  0.212  0.042   -0.303  0.522  0.107
 H         -0.035 -0.018 -0.057   -0.013 -0.008 -0.024   -0.043 -0.027 -0.075
 H          0.906 -0.115 -0.369   -0.095  0.013  0.036   -0.028  0.003  0.012
 H         -0.038  0.040 -0.036    0.007 -0.009  0.006    0.050 -0.056  0.051
 C          0.001  0.003 -0.009   -0.005  0.027 -0.072   -0.001  0.005 -0.013
 H          0.003 -0.037  0.103    0.044 -0.300  0.820    0.007 -0.056  0.150
 TransDip  -0.107  0.018  0.052    0.069 -0.001 -0.084   -0.052 -0.035 -0.063

 Mode:                31                     32                     33
 Frequency:      3214.00                3216.36                3244.07
 Force Cnst:      6.6494                 6.6876                 6.8011
 Red. Mass:       1.0925                 1.0972                 1.0968
 IR Active:          YES                    YES                    YES
 IR Intens:       19.808                  4.640                  3.906
 Raman Active:       YES                    YES                    YES
               X      Y      Z        X      Y      Z        X      Y      Z
 C          0.019  0.001  0.006    0.040 -0.001  0.013    0.003  0.000  0.001
 C          0.019 -0.034 -0.008    0.025 -0.044 -0.010    0.011 -0.014 -0.002
 C         -0.001  0.002  0.001    0.007  0.004  0.012   -0.044 -0.024 -0.072
 C          0.003  0.000 -0.003   -0.005  0.001  0.001   -0.007  0.002  0.005
 C          0.040 -0.046  0.040   -0.027  0.030 -0.026   -0.004  0.005 -0.005
 N         -0.001  0.000  0.000    0.001  0.001 -0.000    0.000  0.000  0.000
 H         -0.209  0.010 -0.072   -0.436  0.023 -0.150   -0.027  0.001 -0.010
 H         -0.221  0.385  0.077   -0.278  0.484  0.098   -0.088  0.148  0.028
 H         -0.008 -0.007 -0.013   -0.089 -0.051 -0.148    0.486  0.276  0.797
 H         -0.039  0.001  0.017    0.047 -0.004 -0.019    0.062 -0.009 -0.025
 H         -0.456  0.518 -0.462    0.293 -0.331  0.297    0.048 -0.056  0.048
 C         -0.000 -0.006  0.019    0.001 -0.012  0.033    0.000 -0.000  0.003
 H         -0.010  0.076 -0.206   -0.018  0.129 -0.350   -0.003  0.006 -0.022
 TransDip   0.087 -0.101  0.051    0.051 -0.031  0.034   -0.027 -0.003 -0.057

 STANDARD THERMODYNAMIC QUANTITIES AT   298.15 K  AND     1.00 ATM

   This Molecule has  1 Imaginary Frequencies
   Zero point vibrational energy:       63.595 kcal/mol

   Atom    1 Element C  Has Mass   12.00000
   Atom    2 Element C  Has Mass   12.00000
   Atom    3 Element C  Has Mass   12.00000
   Atom    4 Element C  Has Mass   12.00000
   Atom    5 Element C  Has Mass   12.00000
   Atom    6 Element N  Has Mass   14.00307
   Atom    7 Element H  Has Mass    1.00783
   Atom    8 Element H  Has Mass    1.00783
   Atom    9 Element H  Has Mass    1.00783
   Atom   10 Element H  Has Mass    1.00783
   Atom   11 Element H  Has Mass    1.00783
   Atom   12 Element C  Has Mass   12.00000
   Atom   13 Element H  Has Mass    1.00783
   Molecular Mass:    92.050050 amu
   Principal axes and moments of inertia in amu*Bohr^2:
                             1           2           3
    Eigenvalues --      385.72220   402.06834   534.52889
          X              -0.04773     0.96042    -0.27445
          Y               0.94464     0.13270     0.30008
          Z              -0.32462     0.24493     0.91358
   Rotational Symmetry Number is   1
   The Molecule is an Asymmetric Top
   Translational Enthalpy:        0.889 kcal/mol
   Rotational Enthalpy:           0.889 kcal/mol
   Vibrational Enthalpy:         64.589 kcal/mol
   gas constant (RT):             0.592 kcal/mol
   Translational Entropy:        39.471  cal/mol.K
   Rotational Entropy:           25.919  cal/mol.K
   Vibrational Entropy:           4.294  cal/mol.K

   Total Enthalpy:               66.959 kcal/mol
   Total Entropy:                69.685  cal/mol.K
Archival summary:
1\1\c8-66\FREQ\ProcedureUnspecified\6-31+G**\166(2)\hpark21\TueMar123:46:262022TueMar123:46:262022\0\\#,FREQ,ProcedureUnspecified,6-31+G**,\\0,2\N\C,1,1.33651\H,2,1.08495,1,121.877\C,1,1.43235,2,103.827,3,-171.993,0\H,4,1.08488,1,118.461,2,-172.544,0\C,2,1.52228,1,115.442,3,-171.073,0\H,6,1.08778,2,121.532,1,144.229,0\C,6,1.48235,2,75.9475,1,-89.6843,0\H,8,1.08237,6,133.07,2,-97.6249,0\C,8,1.51677,6,92.0649,2,97.7218,0\H,10,1.08417,8,127.65,6,149.732,0\C,10,1.52569,8,89.1711,6,5.5287,0\H,12,1.0848,10,130.744,8,137.405,0\\\@

 Total job time:  628.89s(wall), 561.53s(cpu) 
 Tue Mar  1 23:46:26 2022

        *************************************************************
        *                                                           *
        *  Thank you very much for using Q-Chem.  Have a nice day.  *
        *                                                           *
        *************************************************************


