
Running Job 1 of 1 qcts1.in
qchem qcts1.in_26490.0 ./qcts1.d/ 1
/home/leeping/opt/qchem/5.0.2-openmp/exe/qcprog.exe_s qcts1.in_26490.0 ./qcts1.d/
Check license passed

                  Welcome to Q-Chem
     A Quantum Leap Into The Future Of Chemistry


 Q-Chem 5.0, Q-Chem, Inc., Pleasanton, CA (2017)

 Yihan Shao,  Zhengting Gan,  E. Epifanovsky,  A. T. B. Gilbert,  M. Wormit,  
 J. Kussmann,  A. W. Lange,  A. Behn,  Jia Deng,  Xintian Feng,  D. Ghosh,  
 M. Goldey,  P. R. Horn,  L. D. Jacobson,  I. Kaliman,  T. Kus,  A. Landau,  
 Jie Liu,  E. I. Proynov,  R. M. Richard,  R. P. Steele,  E. J. Sundstrom,  
 H. L. Woodcock III,  P. M. Zimmerman,  D. Zuev,  B. Albrecht,  E. Alguire,  
 S. A. Baeppler,  D. Barton,  Z. Benda,  Y. A. Bernard,  E. J. Berquist,  
 K. B. Bravaya,  H. Burton,  D. Casanova,  Chun-Min Chang,  Yunqing Chen,  
 A. Chien,  K. D. Closser,  M. P. Coons,  S. Dasgupta,  A. L. Dempwolff,  
 M. Diedenhofen,  Hainam Do,  R. G. Edgar,  Po-Tung Fang,  S. Fatehi,  
 Qingguo Feng,  J. Fosso-Tande,  Qinghui Ge,  A. Ghysels,  G. Gidofalvi,  
 J. Gomes,  J. Gonthier,  A. Gunina,  M. W. D. Hanson-Heine,  
 P. H. P. Harbach,  A. W. Hauser,  J. E. Herr,  E. G. Hohenstein,  
 Z. C. Holden,  Kerwin Hui,  T.-C. Jagau,  Hyunjun Ji,  B. Kaduk,  
 K. Khistyaev,  Jaehoon Kim,  P. Klunzinger,  K. Koh,  D. Kosenkov,  
 L. Koulias,  T. Kowalczyk,  C. M. Krauter,  A. Kunitsa,  Ka Un Lao,  
 A. Laurent,  K. V. Lawler,  Joonho Lee,  D. Lefrancois,  S. Lehtola,  
 D. S. Levine,  Yi-Pei Li,  You-Sheng Lin,  Fenglai Liu,  E. Livshits,  
 A. Luenser,  P. Manohar,  E. Mansoor,  S. F. Manzer,  Shan-Ping Mao,  
 Yuezhi Mao,  N. Mardirossian,  A. V. Marenich,  T. Markovich,  
 L. A. Martinez-Martinez,  S. A. Maurer,  N. J. Mayhall,  S. C. McKenzie,  
 J.-M. Mewes,  A. F. Morrison,  J. W. Mullinax,  K. Nanda,  
 T. S. Nguyen-Beck,  R. Olivares-Amaya,  J. A. Parkhill,  T. M. Perrine,  
 F. Plasser,  S. Prager,  A. Prociuk,  E. Ramos,  D. R. Rehn,  F. Rob,  
 M. Schneider,  N. Sergueev,  S. M. Sharada,  S. Sharma,  D. W. Small,  
 T. Stauch,  T. Stein,  Yu-Chuan Su,  A. J. W. Thom,  A. Tkatchenko,  
 T. Tsuchimochi,  L. Vogt,  O. Vydrov,  M. A. Watson,  J. Wenzel,  
 M. de Wergifosse,  T. A. Wesolowski,  A. White,  J. Witte,  A. Yamada,  
 Jun Yang,  K. Yao,  S. Yeganeh,  S. R. Yost,  Zhi-Qiang You,  A. Zech,  
 Igor Ying Zhang,  Xing Zhang,  Yan Zhao,  Ying Zhu,  B. R. Brooks,  
 G. K. L. Chan,  C. J. Cramer,  M. S. Gordon,  W. J. Hehre,  A. Klamt,  
 M. W. Schmidt,  C. D. Sherrill,  D. G. Truhlar,  A. Aspuru-Guzik,  R. Baer,  
 A. T. Bell,  N. A. Besley,  Jeng-Da Chai,  R. A. DiStasio Jr.,  A. Dreuw,  
 B. D. Dunietz,  T. R. Furlani,  Chao-Ping Hsu,  Yousung Jung,  Jing Kong,  
 D. S. Lambrecht,  WanZhen Liang,  C. Ochsenfeld,  V. A. Rassolov,  
 L. V. Slipchenko,  J. E. Subotnik,  T. Van Voorhis,  J. M. Herbert,  
 A. I. Krylov,  P. M. W. Gill,  M. Head-Gordon

 Contributors to earlier versions of Q-Chem not listed above: 
 R. D. Adamson,  B. Austin,  J. Baker,  G. J. O. Beran,  K. Brandhorst,  
 S. T. Brown,  E. F. C. Byrd,  A. K. Chakraborty,  C.-L. Cheng,  
 Siu Hung Chien,  D. M. Chipman,  D. L. Crittenden,  H. Dachsel,  
 R. J. Doerksen,  A. D. Dutoi,  L. Fusti-Molnar,  W. A. Goddard III,  
 A. Golubeva-Zadorozhnaya,  S. R. Gwaltney,  G. Hawkins,  A. Heyden,  
 S. Hirata,  G. Kedziora,  F. J. Keil,  C. Kelley,  Jihan Kim,  R. A. King,  
 R. Z. Khaliullin,  P. P. Korambath,  W. Kurlancheek,  A. M. Lee,  M. S. Lee,  
 S. V. Levchenko,  Ching Yeh Lin,  D. Liotard,  R. C. Lochan,  I. Lotan,  
 P. E. Maslen,  N. Nair,  D. P. O'Neill,  D. Neuhauser,  E. Neuscamman,  
 C. M. Oana,  R. Olson,  B. Peters,  R. Peverati,  P. A. Pieniazek,  
 Y. M. Rhee,  J. Ritchie,  M. A. Rohrdanz,  E. Rosta,  N. J. Russ,  
 H. F. Schaefer III,  N. E. Schultz,  N. Shenvi,  A. C. Simmonett,  A. Sodt,  
 D. Stuck,  K. S. Thanthiriwatte,  V. Vanovschi,  Tao Wang,  A. Warshel,  
 C. F. Williams,  Q. Wu,  X. Xu,  W. Zhang

 Please cite Q-Chem as follows:
 Y. Shao et al., Mol. Phys. 113, 184-215 (2015)
 DOI: 10.1080/00268976.2014.952696

 Q-Chem 5.0.2 for Intel X86 EM64T Linux

 Parts of Q-Chem use Armadillo 5.200.1 (Boston Tea Smuggler).
 http://arma.sourceforge.net/

 Q-Chem begins on Tue Mar  1 23:22:56 2022  

Host: 
0

     Scratch files written to ./qcts1.d//
 Dec517 15110_ 26548  26544 5633   
Processing $rem in /home/leeping/opt/qchem/5.0.2-openmp/config/preferences.
 MEM_STATIC 2000
 MEM_TOTAL  8000
 SYMMETRY   OFF
 SYM_IGNORE TRUE 

Checking the input file for inconsistencies... 	...done.

--------------------------------------------------------------
User input:
--------------------------------------------------------------
$molecule
0 2
C        1.2894896980    0.2424476249    0.3120398859
C        0.6004902624   -1.0268513121   -0.2177277144
C       -0.6791641257   -0.5115031047   -0.8718189525
C       -1.0809978684    0.1979155161    0.3666358470
C       -0.4505210357    1.2252964157   -0.5712221666
N        0.8728273475    1.4200164030   -0.3769571657
H        2.3105744271    0.1825501350    0.6730604650
H        1.1318451339   -1.9506289610   -0.4153674465
H       -1.2316425760   -0.8640758377   -1.7336705612
H       -2.0816383921    0.3274994783    0.7701195549
H       -1.0387841572    1.9320868201   -1.1465349762
C        0.1473107141   -0.4026827178    1.0954940539
H        0.2062107832   -0.7759334316    2.1126598221
$end

$rem
method                b3lyp
basis                 6-31g(d)
unrestricted          true
symmetry              off
sym_ignore            true
incdft                false
incfock               0
scf_convergence       8
thresh                14
jobtype               ts
scf_guess             read
scf_algorithm         diis
max_scf_cycles        100
geom_opt_max_cycles   500
geom_opt_dmax         100
geom_opt_tol_gradient 10
geom_opt_hessian      read
$end

--------------------------------------------------------------
 ----------------------------------------------------------------
             Standard Nuclear Orientation (Angstroms)
    I     Atom           X                Y                Z
 ----------------------------------------------------------------
    1      C       1.2894896980     0.2424476249     0.3120398859
    2      C       0.6004902624    -1.0268513121    -0.2177277144
    3      C      -0.6791641257    -0.5115031047    -0.8718189525
    4      C      -1.0809978684     0.1979155161     0.3666358470
    5      C      -0.4505210357     1.2252964157    -0.5712221666
    6      N       0.8728273475     1.4200164030    -0.3769571657
    7      H       2.3105744271     0.1825501350     0.6730604650
    8      H       1.1318451339    -1.9506289610    -0.4153674465
    9      H      -1.2316425760    -0.8640758377    -1.7336705612
   10      H      -2.0816383921     0.3274994783     0.7701195549
   11      H      -1.0387841572     1.9320868201    -1.1465349762
   12      C       0.1473107141    -0.4026827178     1.0954940539
   13      H       0.2062107832    -0.7759334316     2.1126598221
 ----------------------------------------------------------------
 Nuclear Repulsion Energy =   286.8017488249 hartrees
 There are       25 alpha and       24 beta electrons
 Requested basis set is 6-31G(d)
 There are 40 shells and 117 basis functions

 Total QAlloc Memory Limit   8000 MB
 Mega-Array Size      1956 MB
 MEM_STATIC part      2000 MB
 A cutoff of  1.0D-14 yielded    812 shell pairs
 There are      7084 function pairs
 
 -------------------------------------------------------
 OpenMP Integral Computing Module                       
 Release: version 1.0, May 2013, Q-Chem Inc. Pittsburgh 
 -------------------------------------------------------
 Integral Job Info:
 Integral job number is                      11
 Integral operator is                         1
 short-range coefficients                     0
 long-range coefficients              100000000
 Omega coefficients                           0
 if combine SR and LR in K                    0
 Integral screening is                        0
 Integral computing path is                   2
 max size of driver memory is            800000
 size of driver memory is                593474
 size of scratch memory is              2361544
 max col of scratch BK array               1296
 max len of scratch array in speh3          155
 max len of scratch index in speh4           18
 max int batch size is                      520
 min int batch size is                       52
 fixed nKL is                                52
 max L of basis functions is                  2
 order of int derivative is                   0
 number of shells is                         40
 number of basis is                         117
 number of cartesian basis is               117
 number of contracted shell pairs           812
 number of primitive shell pairs           3645
 maxK2 (contraction) of shell pair           36
 max number of K2 of shell pair               1
 max number of CS2 of shell pair             84
 max number of PS2 of shell pair            408
 mem total for path MDJ                  535308
 -------------------------------------------------------
 Smallest overlap matrix eigenvalue = 1.00E-03

 Scale SEOQF with 1.000000e-01/1.000000e-01/1.000000e-01

 Standard Electronic Orientation quadrupole field applied
 Nucleus-field energy     =     0.0000000017 hartrees
 Guess MOs from SCF MO coefficient file
 Reading MOs from coefficient file
 Reading MOs from coefficient file
 An unrestricted hybrid HF-DFT SCF calculation will be
 performed using Pulay DIIS extrapolation
 Exchange:     0.2000 Hartree-Fock + 0.0800 Slater + 0.7200 B88
 Correlation:  0.1900 VWN1RPA + 0.8100 LYP
 Using SG-1 standard quadrature grid
 SCF converges when DIIS error is below 1.0E-08
Using Q-Chem read-in guess as SCF_GUESS READ specified.

 using 4 threads for integral computing
 -------------------------------------------------------
 OpenMP Integral computing Module                
 Release: version 1.0, May 2013, Q-Chem Inc. Pittsburgh 
 -------------------------------------------------------
 -------------------------------------------------------
 OpenMP BLAS3 based DFT computing Module                
 Release: version 1.0, May 2013, Q-Chem Inc. Pittsburgh 
 -------------------------------------------------------
 ---------------------------------------
  Cycle       Energy         DIIS Error
 ---------------------------------------
    1    -286.8165982148      1.56E-10
    2    -286.8165982148      1.95E-10 Convergence criterion met
 ---------------------------------------
 <S^2> = 0.7654
 SCF time:  CPU 5.25 s  wall 2.67 s
 SCF   energy in the final basis set = -286.81659821
 Total energy in the final basis set = -286.81659821
 
 --------------------------------------------------------------
 
                    Orbital Energies (a.u.)
 --------------------------------------------------------------
 
 Alpha MOs
 -- Occupied --
-14.325 -10.219 -10.218 -10.215 -10.210 -10.206 -10.204  -0.981
 -0.842  -0.779  -0.653  -0.594  -0.572  -0.541  -0.530  -0.449
 -0.439  -0.411  -0.403  -0.380  -0.341  -0.280  -0.268  -0.246
 -0.195
 -- Virtual --
  0.079   0.093   0.111   0.122   0.148   0.154   0.160   0.170
  0.181   0.201   0.216   0.255   0.262   0.292   0.371   0.394
  0.480   0.512   0.529   0.541   0.551   0.570   0.574   0.602
  0.617   0.646   0.674   0.727   0.730   0.742   0.753   0.789
  0.798   0.804   0.829   0.830   0.848   0.852   0.910   0.945
  0.985   1.008   1.115   1.158   1.197   1.228   1.402   1.459
  1.480   1.498   1.541   1.618   1.631   1.655   1.663   1.703
  1.738   1.832   1.866   1.897   1.961   1.976   1.985   2.024
  2.059   2.134   2.167   2.236   2.279   2.378   2.406   2.479
  2.494   2.514   2.550   2.554   2.600   2.607   2.668   2.696
  2.752   2.792   2.841   2.891   2.940   3.887   4.223   4.316
  4.344   4.453   4.615   4.672
 
 Beta MOs
 -- Occupied --
-14.312 -10.221 -10.216 -10.212 -10.209 -10.205 -10.204  -0.971
 -0.823  -0.775  -0.645  -0.591  -0.567  -0.536  -0.525  -0.446
 -0.434  -0.399  -0.394  -0.371  -0.327  -0.274  -0.254  -0.232
 -- Virtual --
 -0.079   0.089   0.100   0.118   0.127   0.149   0.156   0.163
  0.175   0.183   0.207   0.223   0.260   0.268   0.293   0.375
  0.398   0.483   0.516   0.530   0.543   0.558   0.576   0.577
  0.607   0.619   0.654   0.678   0.732   0.736   0.745   0.782
  0.794   0.801   0.808   0.831   0.838   0.850   0.853   0.912
  0.950   0.995   1.017   1.120   1.162   1.205   1.230   1.404
  1.473   1.494   1.505   1.545   1.624   1.640   1.661   1.679
  1.708   1.744   1.838   1.871   1.902   1.967   1.979   1.990
  2.028   2.070   2.139   2.183   2.242   2.288   2.381   2.420
  2.490   2.503   2.524   2.555   2.567   2.604   2.624   2.673
  2.700   2.756   2.795   2.844   2.896   2.944   3.908   4.231
  4.321   4.342   4.455   4.621   4.675
 --------------------------------------------------------------
 
          Ground-State Mulliken Net Atomic Charges

     Atom                 Charge (a.u.)    Spin (a.u.)
  --------------------------------------------------------
      1 C                    -0.048392      -0.050397
      2 C                    -0.132548       0.030192
      3 C                    -0.119242       0.381477
      4 C                    -0.157862       0.039572
      5 C                    -0.015442      -0.137365
      6 N                    -0.301401       0.663439
      7 H                     0.148296       0.000693
      8 H                     0.144418      -0.001987
      9 H                     0.150118      -0.017188
     10 H                     0.143982       0.006772
     11 H                     0.149404       0.002898
     12 C                    -0.104401       0.086607
     13 H                     0.143069      -0.004712
  --------------------------------------------------------
  Sum of atomic charges =    -0.000000
  Sum of spin   charges =     1.000000

 -----------------------------------------------------------------
                    Cartesian Multipole Moments
 -----------------------------------------------------------------
    Charge (ESU x 10^10)
                -0.0000
    Dipole Moment (Debye)
         X      -1.4412      Y      -1.9339      Z       0.5676
       Tot       2.4778
    Quadrupole Moments (Debye-Ang)
        XX     -38.4308     XY      -4.2455     YY     -43.1532
        XZ       2.4998     YZ       0.6002     ZZ     -39.1115
    Octopole Moments (Debye-Ang^2)
       XXX     -10.5722    XXY      -7.9502    XYY      -8.4665
       YYY     -23.8817    XXZ       3.7684    XYZ       1.8922
       YYZ      -0.1081    XZZ      -6.4851    YZZ      -8.1716
       ZZZ       6.0059
    Hexadecapole Moments (Debye-Ang^3)
      XXXX    -225.2099   XXXY      -6.9743   XXYY     -84.0609
      XYYY     -19.0301   YYYY    -249.0546   XXXZ     -10.2193
      XXYZ       8.1448   XYYZ       0.5501   YYYZ      18.1861
      XXZZ     -65.0473   XYZZ      -1.6937   YYZZ     -65.2816
      XZZZ     -10.5891   YZZZ      15.1498   ZZZZ    -158.2789
 -----------------------------------------------------------------
 Calculating analytic gradient of the SCF energy
 Gradient of SCF Energy
            1           2           3           4           5           6
    1  -0.0000633   0.0000454  -0.0027589   0.0045769   0.0033681  -0.0053713
    2   0.0020156  -0.0029481  -0.0116231   0.0013201   0.0116441  -0.0021777
    3   0.0027973  -0.0034059   0.0017617  -0.0002200   0.0036898  -0.0020011
            7           8           9          10          11          12
    1  -0.0000620   0.0006956   0.0006725  -0.0001036   0.0010173  -0.0022767
    2  -0.0003830   0.0003955  -0.0008514   0.0000064   0.0017059   0.0012388
    3   0.0000971   0.0000278  -0.0001745  -0.0010706   0.0002315  -0.0017043
           13
    1   0.0002600
    2  -0.0003429
    3  -0.0000289
 Max gradient component =       1.164E-02
 RMS gradient           =       3.265E-03
 Gradient time:  CPU 7.66 s  wall 2.86 s
 Geometry Optimization Parameters
   NAtoms,    NIC,     NZ,  NCons,   NDum,   NFix, NCnnct, MaxDiis
       13     151       0       0       0       0       0       0

 Cartesian Hessian read from HESS file


** GEOMETRY OPTIMIZATION IN DELOCALIZED INTERNAL COORDINATES **
   Searching for a Transition State

   Optimization Cycle:   1

                       Coordinates (Angstroms)
     ATOM                X               Y               Z
      1  C         1.2894896980    0.2424476249    0.3120398859
      2  C         0.6004902624   -1.0268513121   -0.2177277144
      3  C        -0.6791641257   -0.5115031047   -0.8718189525
      4  C        -1.0809978684    0.1979155161    0.3666358470
      5  C        -0.4505210357    1.2252964157   -0.5712221666
      6  N         0.8728273475    1.4200164030   -0.3769571657
      7  H         2.3105744271    0.1825501350    0.6730604650
      8  H         1.1318451339   -1.9506289610   -0.4153674465
      9  H        -1.2316425760   -0.8640758377   -1.7336705612
     10  H        -2.0816383921    0.3274994783    0.7701195549
     11  H        -1.0387841572    1.9320868201   -1.1465349762
     12  C         0.1473107141   -0.4026827178    1.0954940539
     13  H         0.2062107832   -0.7759334316    2.1126598221
   Point Group: c1    Number of degrees of freedom:    33


   Energy is   -286.816598215


 Attempting to Generate Delocalized Internal Coordinates

 Transforming Cartesian Hessian to Internal Coordinates
 Hessian Transformation does not Include Derivative of B-matrix

 33 Hessian modes will be used to form the next step
  Hessian Eigenvalues:
    -0.029212    0.005355    0.008480    0.009761    0.013622    0.015292
     0.015713    0.021325    0.027972    0.030764    0.032052    0.034328
     0.034749    0.045984    0.049092    0.061613    0.087829    0.099200
     0.105414    0.117781    0.123350    0.154528    0.172724    0.229325
     0.232446    0.281852    0.349317    0.357583    0.362514    0.365664
     0.366611    0.370096    0.372312

 Transition State Search - Taking P-RFO Step
 Searching for Lamda that Maximizes Along the Lowest mode
 Value Taken    Lamda =   0.00286181
 Searching for Lamda that Minimizes Along All other modes
 Value Taken    Lamda =  -0.00095702
 Calculated Step too Large.  Step scaled by  0.261755
 Step Taken.  Stepsize is  0.100000

                             Maximum     Tolerance    Cnvgd?
         Gradient           0.004660      0.000010      NO
         Displacement       0.049234      0.001200      NO
         Energy change     *********      0.000001      NO


 New Cartesian Coordinates Obtained by Inverse Iteration

 Displacement from previous Coordinates is:  0.036571
 ----------------------------------------------------------------
             Standard Nuclear Orientation (Angstroms)
    I     Atom           X                Y                Z
 ----------------------------------------------------------------
    1      C       1.2890496526     0.2411471535     0.3094305649
    2      C       0.6009225970    -1.0279100286    -0.2171293464
    3      C      -0.6797186343    -0.5208020120    -0.8697009864
    4      C      -1.0805624942     0.1978839287     0.3630683488
    5      C      -0.4495252870     1.2348104424    -0.5615336989
    6      N       0.8724641118     1.4208664304    -0.3794660365
    7      H       2.3106398317     0.1817366647     0.6692693582
    8      H       1.1317761071    -1.9524085296    -0.4131447952
    9      H      -1.2295711592    -0.8633054753    -1.7371162927
   10      H      -2.0811033628     0.3259610336     0.7681044132
   11      H      -1.0399974434     1.9331290314    -1.1448241975
   12      C       0.1479902223    -0.4012227656     1.0961071448
   13      H       0.2036360695    -0.7737488454     2.1136461695
 ----------------------------------------------------------------
 Nuclear Repulsion Energy =   286.6967440567 hartrees
 There are       25 alpha and       24 beta electrons
 Applying Cartesian multipole field
    Component          Value
    ---------          -----
     (2,0,0)        1.00000E-11
     (0,2,0)        2.00000E-11
     (0,0,2)       -3.00000E-11
 Nucleus-field energy     =     0.0000000017 hartrees
 Requested basis set is 6-31G(d)
 There are 40 shells and 117 basis functions
 A cutoff of  1.0D-14 yielded    812 shell pairs
 There are      7084 function pairs
 Smallest overlap matrix eigenvalue = 1.01E-03
 Guess MOs from SCF MO coefficient file
 Reading MOs from coefficient file
 Reading MOs from coefficient file
 An unrestricted hybrid HF-DFT SCF calculation will be
 performed using Pulay DIIS extrapolation
 Exchange:     0.2000 Hartree-Fock + 0.0800 Slater + 0.7200 B88
 Correlation:  0.1900 VWN1RPA + 0.8100 LYP
 Using SG-1 standard quadrature grid
 SCF converges when DIIS error is below 1.0E-08
 Geometry optimization detected.  Setting ReadMinima to 0
 Setting SaveMinima to 0
Using Q-Chem read-in guess as SCF_GUESS READ specified.

 using 4 threads for integral computing
 -------------------------------------------------------
 OpenMP Integral computing Module                
 Release: version 1.0, May 2013, Q-Chem Inc. Pittsburgh 
 -------------------------------------------------------
 -------------------------------------------------------
 OpenMP BLAS3 based DFT computing Module                
 Release: version 1.0, May 2013, Q-Chem Inc. Pittsburgh 
 -------------------------------------------------------
 ---------------------------------------
  Cycle       Energy         DIIS Error
 ---------------------------------------
    1    -286.8156870933      5.58E-04
    2    -286.8161159410      6.69E-05
    3    -286.8161398372      8.37E-05
    4    -286.8161539613      2.13E-05
    5    -286.8161574233      1.84E-05
    6    -286.8161598236      8.16E-06
    7    -286.8161608949      1.97E-06
    8    -286.8161609771      8.65E-07
    9    -286.8161609845      3.83E-07
   10    -286.8161609861      1.07E-07
   11    -286.8161609865      6.93E-08
   12    -286.8161609865      2.00E-08
   13    -286.8161609865      6.45E-09 Convergence criterion met
 ---------------------------------------
 <S^2> = 0.7672
 SCF time:  CPU 33.88 s  wall 20.27 s
 SCF   energy in the final basis set = -286.81616099
 Total energy in the final basis set = -286.81616099
 
 --------------------------------------------------------------
 
                    Orbital Energies (a.u.)
 --------------------------------------------------------------
 
 Alpha MOs
 -- Occupied --
-14.324 -10.219 -10.218 -10.215 -10.210 -10.206 -10.204  -0.980
 -0.842  -0.778  -0.653  -0.594  -0.573  -0.542  -0.530  -0.449
 -0.440  -0.410  -0.403  -0.379  -0.341  -0.281  -0.268  -0.246
 -0.194
 -- Virtual --
  0.076   0.093   0.109   0.122   0.148   0.154   0.160   0.170
  0.181   0.203   0.217   0.255   0.263   0.292   0.371   0.394
  0.481   0.511   0.528   0.541   0.551   0.571   0.574   0.603
  0.616   0.647   0.674   0.727   0.731   0.742   0.754   0.790
  0.798   0.804   0.829   0.829   0.847   0.852   0.910   0.946
  0.985   1.008   1.111   1.157   1.199   1.229   1.400   1.457
  1.475   1.495   1.540   1.616   1.629   1.653   1.663   1.704
  1.736   1.832   1.866   1.896   1.961   1.977   1.984   2.029
  2.062   2.135   2.167   2.235   2.280   2.376   2.404   2.477
  2.490   2.514   2.550   2.554   2.596   2.610   2.666   2.694
  2.750   2.795   2.841   2.894   2.941   3.892   4.223   4.317
  4.342   4.453   4.612   4.672
 
 Beta MOs
 -- Occupied --
-14.312 -10.221 -10.216 -10.212 -10.209 -10.205 -10.204  -0.971
 -0.824  -0.774  -0.645  -0.591  -0.567  -0.536  -0.525  -0.446
 -0.435  -0.399  -0.394  -0.370  -0.327  -0.275  -0.254  -0.231
 -- Virtual --
 -0.079   0.088   0.099   0.117   0.126   0.148   0.156   0.163
  0.175   0.182   0.208   0.223   0.261   0.269   0.293   0.376
  0.399   0.483   0.515   0.529   0.543   0.559   0.577   0.578
  0.608   0.618   0.655   0.678   0.732   0.736   0.745   0.781
  0.795   0.802   0.809   0.831   0.838   0.849   0.853   0.912
  0.951   0.994   1.017   1.115   1.162   1.207   1.230   1.402
  1.469   1.489   1.503   1.544   1.623   1.639   1.659   1.678
  1.709   1.742   1.838   1.872   1.901   1.966   1.980   1.990
  2.033   2.073   2.140   2.183   2.241   2.289   2.379   2.418
  2.487   2.500   2.525   2.555   2.567   2.600   2.627   2.671
  2.698   2.754   2.798   2.844   2.899   2.946   3.912   4.231
  4.321   4.340   4.455   4.617   4.676
 --------------------------------------------------------------
 
          Ground-State Mulliken Net Atomic Charges

     Atom                 Charge (a.u.)    Spin (a.u.)
  --------------------------------------------------------
      1 C                    -0.047947      -0.045255
      2 C                    -0.133684       0.022081
      3 C                    -0.116839       0.419217
      4 C                    -0.162718       0.032790
      5 C                    -0.010882      -0.141947
      6 N                    -0.304801       0.640119
      7 H                     0.148197       0.000636
      8 H                     0.144467      -0.001713
      9 H                     0.150693      -0.019202
     10 H                     0.144120       0.007999
     11 H                     0.149299       0.003216
     12 C                    -0.103099       0.086809
     13 H                     0.143195      -0.004751
  --------------------------------------------------------
  Sum of atomic charges =     0.000000
  Sum of spin   charges =     1.000000

 -----------------------------------------------------------------
                    Cartesian Multipole Moments
 -----------------------------------------------------------------
    Charge (ESU x 10^10)
                 0.0000
    Dipole Moment (Debye)
         X      -1.4689      Y      -1.9444      Z       0.5668
       Tot       2.5019
    Quadrupole Moments (Debye-Ang)
        XX     -38.4317     XY      -4.2660     YY     -43.1884
        XZ       2.5271     YZ       0.6154     ZZ     -39.0987
    Octopole Moments (Debye-Ang^2)
       XXX     -10.6053    XXY      -7.9506    XYY      -8.4844
       YYY     -23.9131    XXZ       3.7527    XYZ       1.9259
       YYZ      -0.0797    XZZ      -6.5697    YZZ      -8.2022
       ZZZ       5.9155
    Hexadecapole Moments (Debye-Ang^3)
      XXXX    -225.1459   XXXY      -6.9953   XXYY     -84.2568
      XYYY     -19.0654   YYYY    -250.3486   XXXZ     -10.1006
      XXYZ       8.1214   XYYZ       0.6259   YYYZ      18.0848
      XXZZ     -64.9779   XYZZ      -1.7372   YYZZ     -65.4617
      XZZZ     -10.3823   YZZZ      15.0609   ZZZZ    -157.6334
 -----------------------------------------------------------------
 Calculating analytic gradient of the SCF energy
 Gradient of SCF Energy
            1           2           3           4           5           6
    1  -0.0000601   0.0000694  -0.0020698   0.0034321   0.0024521  -0.0039438
    2   0.0014331  -0.0021409  -0.0086173   0.0009428   0.0087415  -0.0016527
    3   0.0020601  -0.0025171   0.0013188  -0.0002878   0.0028082  -0.0015195
            7           8           9          10          11          12
    1  -0.0000468   0.0005232   0.0004720  -0.0000801   0.0007659  -0.0016877
    2  -0.0002979   0.0003020  -0.0006412   0.0000096   0.0012516   0.0009234
    3   0.0000746   0.0000129  -0.0001009  -0.0007955   0.0001822  -0.0012186
           13
    1   0.0001736
    2  -0.0002539
    3  -0.0000173
 Max gradient component =       8.742E-03
 RMS gradient           =       2.430E-03
 Gradient time:  CPU 8.00 s  wall 3.04 s
 Geometry Optimization Parameters
   NAtoms,    NIC,     NZ,  NCons,   NDum,   NFix, NCnnct, MaxDiis
       13     151       0       0       0       0       0       0

 Cartesian Hessian Update
 Hessian Updated using Powell/Murtagh-Sargent Update
  Mixing factors:     0.589082 Powell
                      0.410918 Murtagh-Sargent


** GEOMETRY OPTIMIZATION IN DELOCALIZED INTERNAL COORDINATES **
   Searching for a Transition State

   Optimization Cycle:   2

                       Coordinates (Angstroms)
     ATOM                X               Y               Z
      1  C         1.2890496526    0.2411471535    0.3094305649
      2  C         0.6009225970   -1.0279100286   -0.2171293464
      3  C        -0.6797186343   -0.5208020120   -0.8697009864
      4  C        -1.0805624942    0.1978839287    0.3630683488
      5  C        -0.4495252870    1.2348104424   -0.5615336989
      6  N         0.8724641118    1.4208664304   -0.3794660365
      7  H         2.3106398317    0.1817366647    0.6692693582
      8  H         1.1317761071   -1.9524085296   -0.4131447952
      9  H        -1.2295711592   -0.8633054753   -1.7371162927
     10  H        -2.0811033628    0.3259610336    0.7681044132
     11  H        -1.0399974434    1.9331290314   -1.1448241975
     12  C         0.1479902223   -0.4012227656    1.0961071448
     13  H         0.2036360695   -0.7737488454    2.1136461695
   Point Group: c1    Number of degrees of freedom:    33


   Energy is   -286.816160987

 Hessian Updated using Powell/Murtagh-Sargent Update
  Mixing factors:     0.781348 Powell
                      0.218652 Murtagh-Sargent

 33 Hessian modes will be used to form the next step
  Hessian Eigenvalues:
    -0.031101    0.005569    0.008483    0.009763    0.013671    0.015425
     0.015731    0.021367    0.027971    0.030793    0.032052    0.034335
     0.034753    0.045986    0.049090    0.061618    0.087868    0.099189
     0.105413    0.117759    0.123300    0.154519    0.172718    0.229316
     0.232428    0.281848    0.349274    0.357583    0.362514    0.365662
     0.366611    0.370095    0.372309

 Transition State Search - Taking P-RFO Step
 Searching for Lamda that Maximizes Along the Lowest mode
 Value Taken    Lamda =   0.00157156
 Searching for Lamda that Minimizes Along All other modes
 Value Taken    Lamda =  -0.00052399
 Calculated Step too Large.  Step scaled by  0.352330
 Step Taken.  Stepsize is  0.100000

                             Maximum     Tolerance    Cnvgd?
         Gradient           0.003432      0.000010      NO
         Displacement       0.048314      0.001200      NO
         Energy change      0.000437      0.000001      NO


 New Cartesian Coordinates Obtained by Inverse Iteration

 Displacement from previous Coordinates is:  0.036262
 ----------------------------------------------------------------
             Standard Nuclear Orientation (Angstroms)
    I     Atom           X                Y                Z
 ----------------------------------------------------------------
    1      C       1.2885737983     0.2400084727     0.3068765012
    2      C       0.6012013285    -1.0290481188    -0.2165731347
    3      C      -0.6803131352    -0.5301827473    -0.8676297232
    4      C      -1.0801031451     0.1979066064     0.3595039891
    5      C      -0.4484900947     1.2439611041    -0.5519709612
    6      N       0.8718423300     1.4219418248    -0.3816485512
    7      H       2.3107020778     0.1810820577     0.6654305960
    8      H       1.1313509583    -1.9544225089    -0.4107749797
    9      H      -1.2270821187    -0.8622996259    -1.7408805439
   10      H      -2.0803929142     0.3247805751     0.7663464237
   11      H      -1.0412614607     1.9337864617    -1.1430591076
   12      C       0.1487081173    -0.3997963667     1.0965959228
   13      H       0.2012644693    -0.7715807067     2.1144942144
 ----------------------------------------------------------------
 Nuclear Repulsion Energy =   286.5976976114 hartrees
 There are       25 alpha and       24 beta electrons
 Applying Cartesian multipole field
    Component          Value
    ---------          -----
     (2,0,0)        1.00000E-11
     (0,2,0)        2.00000E-11
     (0,0,2)       -3.00000E-11
 Nucleus-field energy     =     0.0000000017 hartrees
 Requested basis set is 6-31G(d)
 There are 40 shells and 117 basis functions
 A cutoff of  1.0D-14 yielded    812 shell pairs
 There are      7084 function pairs
 Smallest overlap matrix eigenvalue = 1.01E-03
 Guess MOs from SCF MO coefficient file
 Reading MOs from coefficient file
 Reading MOs from coefficient file
 An unrestricted hybrid HF-DFT SCF calculation will be
 performed using Pulay DIIS extrapolation
 Exchange:     0.2000 Hartree-Fock + 0.0800 Slater + 0.7200 B88
 Correlation:  0.1900 VWN1RPA + 0.8100 LYP
 Using SG-1 standard quadrature grid
 SCF converges when DIIS error is below 1.0E-08
 Geometry optimization detected.  Setting ReadMinima to 0
 Setting SaveMinima to 0
Using Q-Chem read-in guess as SCF_GUESS READ specified.

 using 4 threads for integral computing
 -------------------------------------------------------
 OpenMP Integral computing Module                
 Release: version 1.0, May 2013, Q-Chem Inc. Pittsburgh 
 -------------------------------------------------------
 -------------------------------------------------------
 OpenMP BLAS3 based DFT computing Module                
 Release: version 1.0, May 2013, Q-Chem Inc. Pittsburgh 
 -------------------------------------------------------
 ---------------------------------------
  Cycle       Energy         DIIS Error
 ---------------------------------------
    1    -286.8156169413      5.43E-04
    2    -286.8158133784      6.50E-05
    3    -286.8158377998      8.07E-05
    4    -286.8158513483      2.11E-05
    5    -286.8158549390      1.84E-05
    6    -286.8158574734      7.88E-06
    7    -286.8158585648      2.23E-06
    8    -286.8158586480      1.16E-06
    9    -286.8158586559      3.99E-07
   10    -286.8158586577      1.07E-07
   11    -286.8158586580      6.72E-08
   12    -286.8158586581      2.02E-08
   13    -286.8158586581      9.18E-09 Convergence criterion met
 ---------------------------------------
 <S^2> = 0.7689
 SCF time:  CPU 33.97 s  wall 25.13 s
 SCF   energy in the final basis set = -286.81585866
 Total energy in the final basis set = -286.81585866
 
 --------------------------------------------------------------
 
                    Orbital Energies (a.u.)
 --------------------------------------------------------------
 
 Alpha MOs
 -- Occupied --
-14.323 -10.219 -10.219 -10.215 -10.210 -10.206 -10.204  -0.980
 -0.842  -0.778  -0.654  -0.594  -0.573  -0.542  -0.530  -0.448
 -0.441  -0.410  -0.404  -0.378  -0.341  -0.282  -0.267  -0.245
 -0.192
 -- Virtual --
  0.073   0.093   0.107   0.122   0.147   0.155   0.159   0.169
  0.180   0.204   0.217   0.255   0.264   0.291   0.371   0.395
  0.481   0.510   0.527   0.541   0.552   0.572   0.574   0.603
  0.615   0.649   0.675   0.727   0.731   0.742   0.755   0.790
  0.799   0.805   0.828   0.830   0.847   0.852   0.909   0.947
  0.985   1.008   1.106   1.157   1.201   1.229   1.397   1.454
  1.471   1.493   1.540   1.614   1.626   1.652   1.663   1.704
  1.734   1.832   1.867   1.896   1.960   1.978   1.984   2.032
  2.068   2.136   2.167   2.234   2.281   2.374   2.402   2.474
  2.486   2.515   2.550   2.555   2.592   2.613   2.664   2.692
  2.749   2.797   2.841   2.897   2.942   3.897   4.223   4.318
  4.341   4.453   4.608   4.673
 
 Beta MOs
 -- Occupied --
-14.311 -10.221 -10.216 -10.212 -10.210 -10.205 -10.204  -0.970
 -0.825  -0.773  -0.645  -0.591  -0.568  -0.536  -0.524  -0.446
 -0.436  -0.400  -0.394  -0.369  -0.328  -0.276  -0.253  -0.231
 -- Virtual --
 -0.079   0.087   0.099   0.115   0.126   0.148   0.156   0.162
  0.175   0.182   0.210   0.222   0.261   0.270   0.292   0.376
  0.399   0.483   0.515   0.528   0.543   0.559   0.578   0.580
  0.608   0.618   0.656   0.679   0.733   0.736   0.745   0.781
  0.795   0.803   0.810   0.831   0.838   0.849   0.853   0.912
  0.952   0.994   1.017   1.111   1.162   1.209   1.231   1.399
  1.464   1.485   1.502   1.544   1.621   1.637   1.657   1.677
  1.709   1.740   1.839   1.873   1.900   1.966   1.982   1.990
  2.037   2.078   2.141   2.183   2.240   2.291   2.377   2.417
  2.483   2.497   2.526   2.556   2.566   2.596   2.630   2.668
  2.696   2.752   2.800   2.844   2.902   2.947   3.916   4.232
  4.322   4.339   4.455   4.614   4.676
 --------------------------------------------------------------
 
          Ground-State Mulliken Net Atomic Charges

     Atom                 Charge (a.u.)    Spin (a.u.)
  --------------------------------------------------------
      1 C                    -0.047414      -0.039827
      2 C                    -0.134998       0.014020
      3 C                    -0.114192       0.457254
      4 C                    -0.167821       0.025963
      5 C                    -0.006001      -0.145529
      6 N                    -0.308315       0.615221
      7 H                     0.148107       0.000588
      8 H                     0.144547      -0.001411
      9 H                     0.151212      -0.021230
     10 H                     0.144285       0.009252
     11 H                     0.149127       0.003543
     12 C                    -0.101878       0.086904
     13 H                     0.143341      -0.004750
  --------------------------------------------------------
  Sum of atomic charges =    -0.000000
  Sum of spin   charges =     1.000000

 -----------------------------------------------------------------
                    Cartesian Multipole Moments
 -----------------------------------------------------------------
    Charge (ESU x 10^10)
                 0.0000
    Dipole Moment (Debye)
         X      -1.4949      Y      -1.9544      Z       0.5660
       Tot       2.5249
    Quadrupole Moments (Debye-Ang)
        XX     -38.4336     XY      -4.2884     YY     -43.2260
        XZ       2.5517     YZ       0.6290     ZZ     -39.0838
    Octopole Moments (Debye-Ang^2)
       XXX     -10.6268    XXY      -7.9443    XYY      -8.4978
       YYY     -23.9530    XXZ       3.7394    XYZ       1.9577
       YYZ      -0.0464    XZZ      -6.6498    YZZ      -8.2297
       ZZZ       5.8212
    Hexadecapole Moments (Debye-Ang^3)
      XXXX    -225.0554   XXXY      -7.0191   XXYY     -84.4522
      XYYY     -19.1109   YYYY    -251.6747   XXXZ     -10.0002
      XXYZ       8.0894   XYYZ       0.6897   YYYZ      17.9719
      XXZZ     -64.9052   XYZZ      -1.7834   YYZZ     -65.6511
      XZZZ     -10.1883   YZZZ      14.9536   ZZZZ    -156.9774
 -----------------------------------------------------------------
 Calculating analytic gradient of the SCF energy
 Gradient of SCF Energy
            1           2           3           4           5           6
    1  -0.0000361   0.0001260  -0.0013542   0.0022491   0.0015554  -0.0025512
    2   0.0008161  -0.0013279  -0.0053376   0.0005337   0.0055558  -0.0010498
    3   0.0012682  -0.0015913   0.0009018  -0.0003502   0.0018402  -0.0009847
            7           8           9          10          11          12
    1  -0.0000303   0.0003180   0.0002762  -0.0000436   0.0005037  -0.0011091
    2  -0.0002088   0.0001882  -0.0004304   0.0000343   0.0007885   0.0005958
    3   0.0000493   0.0000105  -0.0000327  -0.0004931   0.0001229  -0.0007394
           13
    1   0.0000960
    2  -0.0001578
    3  -0.0000015
 Max gradient component =       5.556E-03
 RMS gradient           =       1.537E-03
 Gradient time:  CPU 7.53 s  wall 3.20 s
 Geometry Optimization Parameters
   NAtoms,    NIC,     NZ,  NCons,   NDum,   NFix, NCnnct, MaxDiis
       13     151       0       0       0       0       0       0

 Cartesian Hessian Update
 Hessian Updated using Powell/Murtagh-Sargent Update
  Mixing factors:     0.637086 Powell
                      0.362914 Murtagh-Sargent


** GEOMETRY OPTIMIZATION IN DELOCALIZED INTERNAL COORDINATES **
   Searching for a Transition State

   Optimization Cycle:   3

                       Coordinates (Angstroms)
     ATOM                X               Y               Z
      1  C         1.2885737983    0.2400084727    0.3068765012
      2  C         0.6012013285   -1.0290481188   -0.2165731347
      3  C        -0.6803131352   -0.5301827473   -0.8676297232
      4  C        -1.0801031451    0.1979066064    0.3595039891
      5  C        -0.4484900947    1.2439611041   -0.5519709612
      6  N         0.8718423300    1.4219418248   -0.3816485512
      7  H         2.3107020778    0.1810820577    0.6654305960
      8  H         1.1313509583   -1.9544225089   -0.4107749797
      9  H        -1.2270821187   -0.8622996259   -1.7408805439
     10  H        -2.0803929142    0.3247805751    0.7663464237
     11  H        -1.0412614607    1.9337864617   -1.1430591076
     12  C         0.1487081173   -0.3997963667    1.0965959228
     13  H         0.2012644693   -0.7715807067    2.1144942144
   Point Group: c1    Number of degrees of freedom:    33


   Energy is   -286.815858658

 Hessian Updated using Powell/Murtagh-Sargent Update
  Mixing factors:     0.811104 Powell
                      0.188896 Murtagh-Sargent

 33 Hessian modes will be used to form the next step
  Hessian Eigenvalues:
    -0.033844    0.005855    0.008484    0.009756    0.013770    0.015558
     0.015806    0.021403    0.027974    0.030868    0.032052    0.034355
     0.034758    0.045992    0.049109    0.061628    0.087919    0.099185
     0.105413    0.117758    0.123246    0.154509    0.172713    0.229221
     0.232413    0.281815    0.349276    0.357583    0.362514    0.365660
     0.366611    0.370094    0.372299

 Transition State Search - Taking P-RFO Step
 Searching for Lamda that Maximizes Along the Lowest mode
 Value Taken    Lamda =   0.00060574
 Searching for Lamda that Minimizes Along All other modes
 Value Taken    Lamda =  -0.00020814
 Calculated Step too Large.  Step scaled by  0.570014
 Step Taken.  Stepsize is  0.100000

                             Maximum     Tolerance    Cnvgd?
         Gradient           0.002149      0.000010      NO
         Displacement       0.047247      0.001200      NO
         Energy change      0.000302      0.000001      NO


 New Cartesian Coordinates Obtained by Inverse Iteration

 Displacement from previous Coordinates is:  0.035604
 ----------------------------------------------------------------
             Standard Nuclear Orientation (Angstroms)
    I     Atom           X                Y                Z
 ----------------------------------------------------------------
    1      C       1.2880496707     0.2390944554     0.3045169595
    2      C       0.6011318891    -1.0303199747    -0.2158911023
    3      C      -0.6810107896    -0.5395961984    -0.8655637487
    4      C      -1.0797240148     0.1980685358     0.3562473694
    5      C      -0.4474763504     1.2525601797    -0.5427798276
    6      N       0.8711486259     1.4229949040    -0.3837499920
    7      H       2.3107904187     0.1805945772     0.6615526936
    8      H       1.1306814206    -1.9565190580    -0.4082576748
    9      H      -1.2241055783    -0.8604640234    -1.7451744857
   10      H      -2.0797230424     0.3236873432     0.7649661592
   11      H      -1.0425560878     1.9339320748    -1.1414749102
   12      C       0.1495187922    -0.3984069344     1.0970543899
   13      H       0.1992752575    -0.7694888528     2.1152648152
 ----------------------------------------------------------------
 Nuclear Repulsion Energy =   286.4991106183 hartrees
 There are       25 alpha and       24 beta electrons
 Applying Cartesian multipole field
    Component          Value
    ---------          -----
     (2,0,0)        1.00000E-11
     (0,2,0)        2.00000E-11
     (0,0,2)       -3.00000E-11
 Nucleus-field energy     =     0.0000000017 hartrees
 Requested basis set is 6-31G(d)
 There are 40 shells and 117 basis functions
 A cutoff of  1.0D-14 yielded    812 shell pairs
 There are      7084 function pairs
 Smallest overlap matrix eigenvalue = 1.02E-03
 Guess MOs from SCF MO coefficient file
 Reading MOs from coefficient file
 Reading MOs from coefficient file
 An unrestricted hybrid HF-DFT SCF calculation will be
 performed using Pulay DIIS extrapolation
 Exchange:     0.2000 Hartree-Fock + 0.0800 Slater + 0.7200 B88
 Correlation:  0.1900 VWN1RPA + 0.8100 LYP
 Using SG-1 standard quadrature grid
 SCF converges when DIIS error is below 1.0E-08
 Geometry optimization detected.  Setting ReadMinima to 0
 Setting SaveMinima to 0
Using Q-Chem read-in guess as SCF_GUESS READ specified.

 using 4 threads for integral computing
 -------------------------------------------------------
 OpenMP Integral computing Module                
 Release: version 1.0, May 2013, Q-Chem Inc. Pittsburgh 
 -------------------------------------------------------
 -------------------------------------------------------
 OpenMP BLAS3 based DFT computing Module                
 Release: version 1.0, May 2013, Q-Chem Inc. Pittsburgh 
 -------------------------------------------------------
 ---------------------------------------
  Cycle       Energy         DIIS Error
 ---------------------------------------
    1    -286.8155201436      5.19E-04
    2    -286.8156547996      6.25E-05
    3    -286.8156780437      7.88E-05
    4    -286.8156911016      2.07E-05
    5    -286.8156946345      1.81E-05
    6    -286.8156971771      7.54E-06
    7    -286.8156982376      2.41E-06
    8    -286.8156983190      1.28E-06
    9    -286.8156983278      3.94E-07
   10    -286.8156983293      1.10E-07
   11    -286.8156983295      5.80E-08
   12    -286.8156983296      2.09E-08
   13    -286.8156983296      1.04E-08
   14    -286.8156983296      3.15E-09 Convergence criterion met
 ---------------------------------------
 <S^2> = 0.7704
 SCF time:  CPU 36.39 s  wall 19.85 s
 SCF   energy in the final basis set = -286.81569833
 Total energy in the final basis set = -286.81569833
 
 --------------------------------------------------------------
 
                    Orbital Energies (a.u.)
 --------------------------------------------------------------
 
 Alpha MOs
 -- Occupied --
-14.322 -10.219 -10.219 -10.215 -10.211 -10.206 -10.204  -0.979
 -0.843  -0.777  -0.654  -0.594  -0.573  -0.542  -0.530  -0.448
 -0.442  -0.409  -0.404  -0.378  -0.341  -0.282  -0.267  -0.245
 -0.191
 -- Virtual --
  0.069   0.093   0.106   0.121   0.147   0.155   0.159   0.169
  0.180   0.205   0.217   0.255   0.265   0.291   0.371   0.396
  0.481   0.508   0.526   0.541   0.553   0.573   0.575   0.604
  0.614   0.651   0.675   0.727   0.731   0.742   0.756   0.791
  0.799   0.806   0.828   0.830   0.846   0.852   0.909   0.948
  0.985   1.007   1.100   1.156   1.204   1.229   1.394   1.449
  1.468   1.492   1.540   1.611   1.623   1.651   1.663   1.705
  1.732   1.832   1.868   1.896   1.960   1.978   1.984   2.034
  2.074   2.137   2.167   2.232   2.283   2.370   2.401   2.470
  2.483   2.515   2.549   2.556   2.589   2.616   2.662   2.690
  2.747   2.799   2.841   2.900   2.944   3.902   4.223   4.318
  4.339   4.453   4.604   4.673
 
 Beta MOs
 -- Occupied --
-14.310 -10.221 -10.216 -10.212 -10.210 -10.205 -10.204  -0.970
 -0.826  -0.772  -0.645  -0.591  -0.568  -0.536  -0.524  -0.445
 -0.436  -0.401  -0.394  -0.369  -0.328  -0.276  -0.253  -0.230
 -- Virtual --
 -0.078   0.085   0.098   0.114   0.126   0.148   0.156   0.161
  0.174   0.182   0.211   0.222   0.261   0.271   0.292   0.376
  0.400   0.484   0.514   0.527   0.544   0.560   0.578   0.582
  0.609   0.618   0.658   0.679   0.733   0.736   0.745   0.781
  0.796   0.804   0.810   0.831   0.837   0.848   0.853   0.911
  0.952   0.993   1.017   1.105   1.161   1.211   1.231   1.396
  1.458   1.482   1.501   1.544   1.618   1.635   1.656   1.676
  1.710   1.738   1.839   1.874   1.900   1.965   1.983   1.989
  2.040   2.084   2.142   2.183   2.238   2.293   2.374   2.415
  2.478   2.494   2.527   2.555   2.566   2.593   2.632   2.667
  2.694   2.751   2.803   2.844   2.904   2.948   3.920   4.232
  4.322   4.338   4.456   4.610   4.676
 --------------------------------------------------------------
 
          Ground-State Mulliken Net Atomic Charges

     Atom                 Charge (a.u.)    Spin (a.u.)
  --------------------------------------------------------
      1 C                    -0.046783      -0.034260
      2 C                    -0.136481       0.006312
      3 C                    -0.111356       0.494377
      4 C                    -0.173038       0.019242
      5 C                    -0.001027      -0.147912
      6 N                    -0.311773       0.589561
      7 H                     0.148028       0.000553
      8 H                     0.144651      -0.001091
      9 H                     0.151677      -0.023203
     10 H                     0.144476       0.010498
     11 H                     0.148893       0.003865
     12 C                    -0.100769       0.086769
     13 H                     0.143502      -0.004711
  --------------------------------------------------------
  Sum of atomic charges =     0.000000
  Sum of spin   charges =     1.000000

 -----------------------------------------------------------------
                    Cartesian Multipole Moments
 -----------------------------------------------------------------
    Charge (ESU x 10^10)
                -0.0000
    Dipole Moment (Debye)
         X      -1.5182      Y      -1.9627      Z       0.5655
       Tot       2.5450
    Quadrupole Moments (Debye-Ang)
        XX     -38.4370     XY      -4.3115     YY     -43.2656
        XZ       2.5734     YZ       0.6406     ZZ     -39.0668
    Octopole Moments (Debye-Ang^2)
       XXX     -10.6349    XXY      -7.9302    XYY      -8.5008
       YYY     -23.9883    XXZ       3.7283    XYZ       1.9900
       YYZ      -0.0079    XZZ      -6.7240    YZZ      -8.2525
       ZZZ       5.7175
    Hexadecapole Moments (Debye-Ang^3)
      XXXX    -224.9529   XXXY      -7.0493   XXYY     -84.6459
      XYYY     -19.1608   YYYY    -252.9835   XXXZ      -9.9191
      XXYZ       8.0514   XYYZ       0.7415   YYYZ      17.8589
      XXZZ     -64.8376   XYZZ      -1.8350   YYZZ     -65.8482
      XZZZ     -10.0031   YZZZ      14.8387   ZZZZ    -156.3408
 -----------------------------------------------------------------
 Calculating analytic gradient of the SCF energy
 Gradient of SCF Energy
            1           2           3           4           5           6
    1  -0.0000120   0.0001221  -0.0005843   0.0009765   0.0006818  -0.0011205
    2   0.0002467  -0.0005273  -0.0020753   0.0001646   0.0023136  -0.0004320
    3   0.0004821  -0.0006503   0.0004105  -0.0002576   0.0008109  -0.0004328
            7           8           9          10          11          12
    1  -0.0000112   0.0001010   0.0000887  -0.0000075   0.0002338  -0.0004970
    2  -0.0001120   0.0000645  -0.0002007   0.0000509   0.0003131   0.0002580
    3   0.0000196   0.0000078   0.0000211  -0.0001882   0.0000509  -0.0002807
           13
    1   0.0000287
    2  -0.0000639
    3   0.0000067
 Max gradient component =       2.314E-03
 RMS gradient           =       6.333E-04
 Gradient time:  CPU 7.99 s  wall 3.50 s
 Geometry Optimization Parameters
   NAtoms,    NIC,     NZ,  NCons,   NDum,   NFix, NCnnct, MaxDiis
       13     151       0       0       0       0       0       0

 Cartesian Hessian Update
 Hessian Updated using Powell/Murtagh-Sargent Update
  Mixing factors:     0.771443 Powell
                      0.228557 Murtagh-Sargent


** GEOMETRY OPTIMIZATION IN DELOCALIZED INTERNAL COORDINATES **
   Searching for a Transition State

   Optimization Cycle:   4

                       Coordinates (Angstroms)
     ATOM                X               Y               Z
      1  C         1.2880496707    0.2390944554    0.3045169595
      2  C         0.6011318891   -1.0303199747   -0.2158911023
      3  C        -0.6810107896   -0.5395961984   -0.8655637487
      4  C        -1.0797240148    0.1980685358    0.3562473694
      5  C        -0.4474763504    1.2525601797   -0.5427798276
      6  N         0.8711486259    1.4229949040   -0.3837499920
      7  H         2.3107904187    0.1805945772    0.6615526936
      8  H         1.1306814206   -1.9565190580   -0.4082576748
      9  H        -1.2241055783   -0.8604640234   -1.7451744857
     10  H        -2.0797230424    0.3236873432    0.7649661592
     11  H        -1.0425560878    1.9339320748   -1.1414749102
     12  C         0.1495187922   -0.3984069344    1.0970543899
     13  H         0.1992752575   -0.7694888528    2.1152648152
   Point Group: c1    Number of degrees of freedom:    33


   Energy is   -286.815698330

 Hessian Updated using Powell/Murtagh-Sargent Update
  Mixing factors:     0.871874 Powell
                      0.128126 Murtagh-Sargent

 33 Hessian modes will be used to form the next step
  Hessian Eigenvalues:
    -0.035378    0.005960    0.008478    0.009737    0.013836    0.015609
     0.015916    0.021426    0.027977    0.030930    0.032052    0.034373
     0.034757    0.045997    0.049132    0.061637    0.087970    0.099184
     0.105412    0.117757    0.123203    0.154500    0.172710    0.229150
     0.232414    0.281770    0.349268    0.357583    0.362513    0.365658
     0.366611    0.370094    0.372271

 Transition State Search - Taking P-RFO Step
 Searching for Lamda that Maximizes Along the Lowest mode
 Value Taken    Lamda =   0.00010094
 Searching for Lamda that Minimizes Along All other modes
 Value Taken    Lamda =  -0.00003654
 Step Taken.  Stepsize is  0.073444

                             Maximum     Tolerance    Cnvgd?
         Gradient           0.000861      0.000010      NO
         Displacement       0.034266      0.001200      NO
         Energy change      0.000160      0.000001      NO


 New Cartesian Coordinates Obtained by Inverse Iteration

 Displacement from previous Coordinates is:  0.025694
 ----------------------------------------------------------------
             Standard Nuclear Orientation (Angstroms)
    I     Atom           X                Y                Z
 ----------------------------------------------------------------
    1      C       1.2876187657     0.2386122689     0.3029989522
    2      C       0.6007190644    -1.0314467174    -0.2152172637
    3      C      -0.6817141108    -0.5465875125    -0.8639766766
    4      C      -1.0795501219     0.1983075966     0.3542074969
    5      C      -0.4468340710     1.2582062817    -0.5366014004
    6      N       0.8706343381     1.4236093427    -0.3852887532
    7      H       2.3108944753     0.1803201692     0.6586424184
    8      H       1.1301652490    -1.9580617364    -0.4062426076
    9      H      -1.2214456756    -0.8581424103    -1.7489243181
   10      H      -2.0793382167     0.3228893990     0.7642893660
   11      H      -1.0435677784     1.9337874662    -1.1404087275
   12      C       0.1502047360    -0.3974287247     1.0973970068
   13      H       0.1982135570    -0.7679283947     2.1158351526
 ----------------------------------------------------------------
 Nuclear Repulsion Energy =   286.4250225025 hartrees
 There are       25 alpha and       24 beta electrons
 Applying Cartesian multipole field
    Component          Value
    ---------          -----
     (2,0,0)        1.00000E-11
     (0,2,0)        2.00000E-11
     (0,0,2)       -3.00000E-11
 Nucleus-field energy     =     0.0000000017 hartrees
 Requested basis set is 6-31G(d)
 There are 40 shells and 117 basis functions
 A cutoff of  1.0D-14 yielded    812 shell pairs
 There are      7084 function pairs
 Smallest overlap matrix eigenvalue = 1.02E-03
 Guess MOs from SCF MO coefficient file
 Reading MOs from coefficient file
 Reading MOs from coefficient file
 An unrestricted hybrid HF-DFT SCF calculation will be
 performed using Pulay DIIS extrapolation
 Exchange:     0.2000 Hartree-Fock + 0.0800 Slater + 0.7200 B88
 Correlation:  0.1900 VWN1RPA + 0.8100 LYP
 Using SG-1 standard quadrature grid
 SCF converges when DIIS error is below 1.0E-08
 Geometry optimization detected.  Setting ReadMinima to 0
 Setting SaveMinima to 0
Using Q-Chem read-in guess as SCF_GUESS READ specified.

 using 4 threads for integral computing
 -------------------------------------------------------
 OpenMP Integral computing Module                
 Release: version 1.0, May 2013, Q-Chem Inc. Pittsburgh 
 -------------------------------------------------------
 -------------------------------------------------------
 OpenMP BLAS3 based DFT computing Module                
 Release: version 1.0, May 2013, Q-Chem Inc. Pittsburgh 
 -------------------------------------------------------
 ---------------------------------------
  Cycle       Energy         DIIS Error
 ---------------------------------------
    1    -286.8155414638      3.56E-04
    2    -286.8156454932      4.31E-05
    3    -286.8156567040      5.51E-05
    4    -286.8156630954      1.44E-05
    5    -286.8156648265      1.27E-05
    6    -286.8156661011      5.17E-06
    7    -286.8156666082      1.82E-06
    8    -286.8156666495      9.52E-07
    9    -286.8156666545      2.83E-07
   10    -286.8156666552      8.27E-08
   11    -286.8156666553      3.75E-08
   12    -286.8156666553      1.47E-08
   13    -286.8156666553      7.06E-09 Convergence criterion met
 ---------------------------------------
 <S^2> = 0.7713
 SCF time:  CPU 33.89 s  wall 19.79 s
 SCF   energy in the final basis set = -286.81566666
 Total energy in the final basis set = -286.81566666
 
 --------------------------------------------------------------
 
                    Orbital Energies (a.u.)
 --------------------------------------------------------------
 
 Alpha MOs
 -- Occupied --
-14.321 -10.219 -10.219 -10.215 -10.211 -10.206 -10.204  -0.979
 -0.843  -0.776  -0.655  -0.594  -0.573  -0.542  -0.530  -0.448
 -0.443  -0.409  -0.404  -0.377  -0.341  -0.283  -0.267  -0.245
 -0.190
 -- Virtual --
  0.066   0.093   0.106   0.121   0.147   0.155   0.158   0.169
  0.180   0.205   0.217   0.256   0.266   0.291   0.371   0.396
  0.481   0.507   0.525   0.542   0.553   0.574   0.575   0.604
  0.614   0.652   0.675   0.727   0.731   0.741   0.757   0.792
  0.800   0.807   0.827   0.830   0.846   0.852   0.909   0.948
  0.985   1.007   1.096   1.156   1.206   1.230   1.392   1.445
  1.467   1.491   1.540   1.609   1.621   1.650   1.663   1.706
  1.731   1.832   1.868   1.896   1.959   1.978   1.984   2.035
  2.080   2.138   2.166   2.231   2.284   2.368   2.400   2.466
  2.481   2.515   2.549   2.556   2.587   2.618   2.661   2.689
  2.746   2.801   2.840   2.901   2.945   3.905   4.223   4.318
  4.339   4.453   4.601   4.673
 
 Beta MOs
 -- Occupied --
-14.310 -10.221 -10.216 -10.212 -10.210 -10.205 -10.204  -0.970
 -0.827  -0.771  -0.645  -0.591  -0.568  -0.536  -0.524  -0.445
 -0.437  -0.401  -0.394  -0.368  -0.328  -0.277  -0.253  -0.230
 -- Virtual --
 -0.078   0.084   0.098   0.113   0.126   0.148   0.156   0.161
  0.174   0.181   0.212   0.222   0.261   0.271   0.292   0.376
  0.400   0.484   0.513   0.526   0.544   0.560   0.578   0.584
  0.609   0.618   0.659   0.679   0.733   0.735   0.745   0.780
  0.796   0.804   0.810   0.831   0.837   0.848   0.853   0.911
  0.953   0.992   1.016   1.101   1.161   1.214   1.232   1.394
  1.454   1.481   1.500   1.544   1.616   1.633   1.656   1.675
  1.710   1.737   1.839   1.874   1.900   1.965   1.984   1.989
  2.041   2.088   2.143   2.182   2.237   2.294   2.371   2.415
  2.474   2.493   2.528   2.554   2.565   2.591   2.634   2.665
  2.693   2.749   2.804   2.843   2.906   2.949   3.923   4.233
  4.323   4.337   4.455   4.607   4.676
 --------------------------------------------------------------
 
          Ground-State Mulliken Net Atomic Charges

     Atom                 Charge (a.u.)    Spin (a.u.)
  --------------------------------------------------------
      1 C                    -0.046234      -0.030213
      2 C                    -0.137720       0.001090
      3 C                    -0.109160       0.519992
      4 C                    -0.176811       0.014551
      5 C                     0.002447      -0.148852
      6 N                    -0.314136       0.571035
      7 H                     0.147976       0.000538
      8 H                     0.144743      -0.000855
      9 H                     0.151996      -0.024561
     10 H                     0.144633       0.011383
     11 H                     0.148680       0.004085
     12 C                    -0.100035       0.086468
     13 H                     0.143622      -0.004662
  --------------------------------------------------------
  Sum of atomic charges =     0.000000
  Sum of spin   charges =     1.000000

 -----------------------------------------------------------------
                    Cartesian Multipole Moments
 -----------------------------------------------------------------
    Charge (ESU x 10^10)
                -0.0000
    Dipole Moment (Debye)
         X      -1.5326      Y      -1.9665      Z       0.5655
       Tot       2.5565
    Quadrupole Moments (Debye-Ang)
        XX     -38.4407     XY      -4.3288     YY     -43.2957
        XZ       2.5870     YZ       0.6474     ZZ     -39.0525
    Octopole Moments (Debye-Ang^2)
       XXX     -10.6260    XXY      -7.9112    XYY      -8.4920
       YYY     -23.9971    XXZ       3.7217    XYZ       2.0143
       YYZ       0.0232    XZZ      -6.7723    YZZ      -8.2631
       ZZZ       5.6330
    Hexadecapole Moments (Debye-Ang^3)
      XXXX    -224.8784   XXXY      -7.0783   XXYY     -84.7827
      XYYY     -19.1995   YYYY    -253.8963   XXXZ      -9.8791
      XXYZ       8.0189   XYYZ       0.7689   YYYZ      17.7789
      XXZZ     -64.7961   XYZZ      -1.8759   YYZZ     -65.9962
      XZZZ      -9.8752   YZZZ      14.7575   ZZZZ    -155.8998
 -----------------------------------------------------------------
 Calculating analytic gradient of the SCF energy
 Gradient of SCF Energy
            1           2           3           4           5           6
    1   0.0000053   0.0000148  -0.0000043   0.0000023   0.0000438  -0.0000075
    2  -0.0000599   0.0000082   0.0001089  -0.0000120  -0.0000119  -0.0000023
    3  -0.0000318   0.0000103  -0.0000075  -0.0000408   0.0000290  -0.0000184
            7           8           9          10          11          12
    1   0.0000058  -0.0000452  -0.0000334   0.0000129   0.0000276  -0.0000143
    2  -0.0000378  -0.0000240  -0.0000110   0.0000434  -0.0000083   0.0000041
    3  -0.0000092   0.0000024   0.0000342   0.0000203  -0.0000065   0.0000148
           13
    1  -0.0000075
    2   0.0000026
    3   0.0000033
 Max gradient component =       1.089E-04
 RMS gradient           =       2.887E-05
 Gradient time:  CPU 7.72 s  wall 3.27 s
 Geometry Optimization Parameters
   NAtoms,    NIC,     NZ,  NCons,   NDum,   NFix, NCnnct, MaxDiis
       13     151       0       0       0       0       0       0

 Cartesian Hessian Update
 Hessian Updated using Powell/Murtagh-Sargent Update
  Mixing factors:     0.926739 Powell
                      0.073261 Murtagh-Sargent


** GEOMETRY OPTIMIZATION IN DELOCALIZED INTERNAL COORDINATES **
   Searching for a Transition State

   Optimization Cycle:   5

                       Coordinates (Angstroms)
     ATOM                X               Y               Z
      1  C         1.2876187657    0.2386122689    0.3029989522
      2  C         0.6007190644   -1.0314467174   -0.2152172637
      3  C        -0.6817141108   -0.5465875125   -0.8639766766
      4  C        -1.0795501219    0.1983075966    0.3542074969
      5  C        -0.4468340710    1.2582062817   -0.5366014004
      6  N         0.8706343381    1.4236093427   -0.3852887532
      7  H         2.3108944753    0.1803201692    0.6586424184
      8  H         1.1301652490   -1.9580617364   -0.4062426076
      9  H        -1.2214456756   -0.8581424103   -1.7489243181
     10  H        -2.0793382167    0.3228893990    0.7642893660
     11  H        -1.0435677784    1.9337874662   -1.1404087275
     12  C         0.1502047360   -0.3974287247    1.0973970068
     13  H         0.1982135570   -0.7679283947    2.1158351526
   Point Group: c1    Number of degrees of freedom:    33


   Energy is   -286.815666655

 Hessian Updated using Powell/Murtagh-Sargent Update
  Mixing factors:     0.927032 Powell
                      0.072968 Murtagh-Sargent

 33 Hessian modes will be used to form the next step
  Hessian Eigenvalues:
    -0.035781    0.005823    0.008464    0.009701    0.013866    0.015621
     0.015987    0.021433    0.027978    0.030969    0.032048    0.034384
     0.034744    0.045999    0.049152    0.061642    0.088006    0.099186
     0.105410    0.117757    0.123182    0.154495    0.172708    0.229123
     0.232414    0.281744    0.349244    0.357583    0.362513    0.365657
     0.366611    0.370094    0.372239

 Transition State Search - Taking P-RFO Step
 Searching for Lamda that Maximizes Along the Lowest mode
 Value Taken    Lamda =   0.00000001
 Searching for Lamda that Minimizes Along All other modes
 Value Taken    Lamda =   0.00000000
 Step Taken.  Stepsize is  0.003491

                             Maximum     Tolerance    Cnvgd?
         Gradient           0.000025      0.000010      NO
         Displacement       0.001795      0.001200      NO
         Energy change      0.000032      0.000001      NO


 New Cartesian Coordinates Obtained by Inverse Iteration

 Displacement from previous Coordinates is:  0.001627
 ----------------------------------------------------------------
             Standard Nuclear Orientation (Angstroms)
    I     Atom           X                Y                Z
 ----------------------------------------------------------------
    1      C       1.2876038416     0.2386410957     0.3030429905
    2      C       0.6006103315    -1.0315480416    -0.2151223961
    3      C      -0.6818119828    -0.5466875834    -0.8638848106
    4      C      -1.0796018777     0.1983095164     0.3543473636
    5      C      -0.4469097100     1.2579465208    -0.5368276513
    6      N       0.8706245166     1.4235013203    -0.3853395351
    7      H       2.3109143137     0.1803299701     0.6585790020
    8      H       1.1302045148    -1.9580830527    -0.4061364024
    9      H      -1.2212163308    -0.8576167314    -1.7492607362
   10      H      -2.0793991958     0.3228800339     0.7644001837
   11      H      -1.0436345423     1.9337557960    -1.1404132233
   12      C       0.1502455163    -0.3974376720     1.0974321517
   13      H       0.1983708159    -0.7678541439     2.1158937091
 ----------------------------------------------------------------
 Nuclear Repulsion Energy =   286.4237201248 hartrees
 There are       25 alpha and       24 beta electrons
 Applying Cartesian multipole field
    Component          Value
    ---------          -----
     (2,0,0)        1.00000E-11
     (0,2,0)        2.00000E-11
     (0,0,2)       -3.00000E-11
 Nucleus-field energy     =     0.0000000017 hartrees
 Requested basis set is 6-31G(d)
 There are 40 shells and 117 basis functions
 A cutoff of  1.0D-14 yielded    812 shell pairs
 There are      7084 function pairs
 Smallest overlap matrix eigenvalue = 1.02E-03
 Guess MOs from SCF MO coefficient file
 Reading MOs from coefficient file
 Reading MOs from coefficient file
 An unrestricted hybrid HF-DFT SCF calculation will be
 performed using Pulay DIIS extrapolation
 Exchange:     0.2000 Hartree-Fock + 0.0800 Slater + 0.7200 B88
 Correlation:  0.1900 VWN1RPA + 0.8100 LYP
 Using SG-1 standard quadrature grid
 SCF converges when DIIS error is below 1.0E-08
 Geometry optimization detected.  Setting ReadMinima to 0
 Setting SaveMinima to 0
Using Q-Chem read-in guess as SCF_GUESS READ specified.

 using 4 threads for integral computing
 -------------------------------------------------------
 OpenMP Integral computing Module                
 Release: version 1.0, May 2013, Q-Chem Inc. Pittsburgh 
 -------------------------------------------------------
 -------------------------------------------------------
 OpenMP BLAS3 based DFT computing Module                
 Release: version 1.0, May 2013, Q-Chem Inc. Pittsburgh 
 -------------------------------------------------------
 ---------------------------------------
  Cycle       Energy         DIIS Error
 ---------------------------------------
    1    -286.8156028114      1.12E-05
    2    -286.8156666960      2.15E-06
    3    -286.8156666980      2.71E-06
    4    -286.8156667117      4.24E-07
    5    -286.8156667126      2.77E-07
    6    -286.8156667131      9.03E-08
    7    -286.8156667133      9.86E-08
    8    -286.8156667134      2.34E-08
    9    -286.8156667134      1.16E-08
   10    -286.8156667134      4.01E-09 Convergence criterion met
 ---------------------------------------
 <S^2> = 0.7713
 SCF time:  CPU 26.08 s  wall 14.50 s
 SCF   energy in the final basis set = -286.81566671
 Total energy in the final basis set = -286.81566671
 
 --------------------------------------------------------------
 
                    Orbital Energies (a.u.)
 --------------------------------------------------------------
 
 Alpha MOs
 -- Occupied --
-14.321 -10.219 -10.219 -10.215 -10.211 -10.206 -10.204  -0.979
 -0.843  -0.776  -0.655  -0.594  -0.573  -0.542  -0.530  -0.448
 -0.443  -0.409  -0.404  -0.377  -0.341  -0.283  -0.267  -0.245
 -0.190
 -- Virtual --
  0.066   0.093   0.106   0.121   0.147   0.155   0.158   0.169
  0.180   0.205   0.217   0.256   0.266   0.291   0.371   0.396
  0.481   0.507   0.526   0.542   0.553   0.574   0.575   0.604
  0.614   0.652   0.675   0.727   0.731   0.741   0.757   0.792
  0.800   0.807   0.827   0.830   0.846   0.852   0.909   0.948
  0.985   1.007   1.096   1.156   1.206   1.230   1.392   1.445
  1.467   1.491   1.540   1.609   1.621   1.650   1.663   1.705
  1.731   1.832   1.868   1.896   1.959   1.978   1.984   2.035
  2.079   2.138   2.166   2.231   2.284   2.368   2.400   2.466
  2.481   2.515   2.549   2.556   2.587   2.618   2.661   2.689
  2.746   2.801   2.840   2.901   2.945   3.905   4.223   4.318
  4.339   4.453   4.601   4.673
 
 Beta MOs
 -- Occupied --
-14.310 -10.221 -10.216 -10.212 -10.210 -10.205 -10.204  -0.970
 -0.827  -0.771  -0.645  -0.591  -0.568  -0.536  -0.524  -0.445
 -0.437  -0.401  -0.394  -0.368  -0.328  -0.277  -0.253  -0.230
 -- Virtual --
 -0.078   0.084   0.098   0.113   0.126   0.148   0.156   0.161
  0.174   0.181   0.212   0.222   0.261   0.271   0.292   0.376
  0.400   0.484   0.513   0.526   0.544   0.560   0.578   0.584
  0.609   0.618   0.659   0.679   0.733   0.736   0.745   0.780
  0.796   0.804   0.810   0.831   0.837   0.848   0.853   0.911
  0.953   0.992   1.016   1.101   1.161   1.214   1.232   1.394
  1.454   1.481   1.500   1.544   1.616   1.633   1.656   1.675
  1.710   1.737   1.839   1.874   1.900   1.965   1.983   1.989
  2.041   2.088   2.143   2.182   2.237   2.294   2.371   2.415
  2.474   2.493   2.528   2.554   2.565   2.591   2.634   2.665
  2.693   2.749   2.804   2.843   2.906   2.949   3.923   4.233
  4.322   4.337   4.455   4.607   4.676
 --------------------------------------------------------------
 
          Ground-State Mulliken Net Atomic Charges

     Atom                 Charge (a.u.)    Spin (a.u.)
  --------------------------------------------------------
      1 C                    -0.046206      -0.030268
      2 C                    -0.137767       0.001212
      3 C                    -0.109133       0.519484
      4 C                    -0.176754       0.014649
      5 C                     0.002308      -0.148844
      6 N                    -0.314065       0.571422
      7 H                     0.147972       0.000540
      8 H                     0.144746      -0.000859
      9 H                     0.152011      -0.024541
     10 H                     0.144635       0.011377
     11 H                     0.148676       0.004078
     12 C                    -0.100046       0.086412
     13 H                     0.143621      -0.004662
  --------------------------------------------------------
  Sum of atomic charges =     0.000000
  Sum of spin   charges =     1.000000

 -----------------------------------------------------------------
                    Cartesian Multipole Moments
 -----------------------------------------------------------------
    Charge (ESU x 10^10)
                 0.0000
    Dipole Moment (Debye)
         X      -1.5320      Y      -1.9657      Z       0.5653
       Tot       2.5555
    Quadrupole Moments (Debye-Ang)
        XX     -38.4411     XY      -4.3292     YY     -43.2962
        XZ       2.5868     YZ       0.6471     ZZ     -39.0513
    Octopole Moments (Debye-Ang^2)
       XXX     -10.6201    XXY      -7.9067    XYY      -8.4878
       YYY     -23.9862    XXZ       3.7217    XYZ       2.0149
       YYZ       0.0236    XZZ      -6.7710    YZZ      -8.2601
       ZZZ       5.6282
    Hexadecapole Moments (Debye-Ang^3)
      XXXX    -224.8830   XXXY      -7.0799   XXYY     -84.7795
      XYYY     -19.1988   YYYY    -253.8704   XXXZ      -9.8847
      XXYZ       8.0178   XYYZ       0.7662   YYYZ      17.7815
      XXZZ     -64.7993   XYZZ      -1.8765   YYZZ     -65.9967
      XZZZ      -9.8742   YZZZ      14.7632   ZZZZ    -155.9052
 -----------------------------------------------------------------
 Calculating analytic gradient of the SCF energy
 Gradient of SCF Energy
            1           2           3           4           5           6
    1   0.0000059  -0.0000266  -0.0000115   0.0000028   0.0000210   0.0000289
    2  -0.0000120  -0.0000166   0.0000057   0.0000267   0.0000077  -0.0000164
    3  -0.0000013  -0.0000050  -0.0000069   0.0000099   0.0000032  -0.0000081
            7           8           9          10          11          12
    1   0.0000067  -0.0000341  -0.0000253   0.0000093   0.0000255  -0.0000011
    2  -0.0000376  -0.0000201   0.0000064   0.0000363   0.0000160   0.0000007
    3  -0.0000129   0.0000006   0.0000143   0.0000096  -0.0000015  -0.0000026
           13
    1  -0.0000016
    2   0.0000032
    3   0.0000008
 Max gradient component =       3.758E-05
 RMS gradient           =       1.633E-05
 Gradient time:  CPU 7.57 s  wall 2.81 s
 Geometry Optimization Parameters
   NAtoms,    NIC,     NZ,  NCons,   NDum,   NFix, NCnnct, MaxDiis
       13     151       0       0       0       0       0       0

 Cartesian Hessian Update
 Hessian Updated using Powell/Murtagh-Sargent Update
  Mixing factors:     0.929998 Powell
                      0.070002 Murtagh-Sargent


** GEOMETRY OPTIMIZATION IN DELOCALIZED INTERNAL COORDINATES **
   Searching for a Transition State

   Optimization Cycle:   6

                       Coordinates (Angstroms)
     ATOM                X               Y               Z
      1  C         1.2876038416    0.2386410957    0.3030429905
      2  C         0.6006103315   -1.0315480416   -0.2151223961
      3  C        -0.6818119828   -0.5466875834   -0.8638848106
      4  C        -1.0796018777    0.1983095164    0.3543473636
      5  C        -0.4469097100    1.2579465208   -0.5368276513
      6  N         0.8706245166    1.4235013203   -0.3853395351
      7  H         2.3109143137    0.1803299701    0.6585790020
      8  H         1.1302045148   -1.9580830527   -0.4061364024
      9  H        -1.2212163308   -0.8576167314   -1.7492607362
     10  H        -2.0793991958    0.3228800339    0.7644001837
     11  H        -1.0436345423    1.9337557960   -1.1404132233
     12  C         0.1502455163   -0.3974376720    1.0974321517
     13  H         0.1983708159   -0.7678541439    2.1158937091
   Point Group: c1    Number of degrees of freedom:    33


   Energy is   -286.815666713

 Hessian Updated using Powell/Murtagh-Sargent Update
  Mixing factors:     0.943077 Powell
                      0.056923 Murtagh-Sargent

 33 Hessian modes will be used to form the next step
  Hessian Eigenvalues:
    -0.036433    0.004061    0.008407    0.009699    0.013999    0.015711
     0.016115    0.021437    0.027974    0.031002    0.031942    0.034472
     0.034628    0.046012    0.049167    0.061715    0.088188    0.099161
     0.105412    0.117701    0.123209    0.154499    0.172711    0.229103
     0.232408    0.281620    0.349234    0.357583    0.362512    0.365655
     0.366611    0.370079    0.372220

 Transition State Search - Taking P-RFO Step
 Searching for Lamda that Maximizes Along the Lowest mode
 Value Taken    Lamda =   0.00000000
 Searching for Lamda that Minimizes Along All other modes
 Value Taken    Lamda =   0.00000000
 Step Taken.  Stepsize is  0.001401

                             Maximum     Tolerance    Cnvgd?
         Gradient           0.000007      0.000010     YES
         Displacement       0.000863      0.001200     YES
         Energy change     -0.000000      0.000001     YES


                       Distance Matrix (Angstroms)
             C (  1)   C (  2)   C (  3)   C (  4)   C (  5)   N (  6)
   C (  2)  1.534222
   C (  3)  2.420136  1.516769
   C (  4)  2.368105  2.158694  1.482345
   C (  5)  2.180115  2.538223  1.849013  1.522276
   N (  6)  1.432353  2.475712  2.553568  2.419011  1.336508
   H (  7)  1.084883  2.270934  3.435529  3.404186  3.193094  2.170179
   H (  8)  2.313721  1.084169  2.342002  3.179876  3.584301  3.391597
   H (  9)  3.421682  2.388071  1.082370  2.358008  2.558350  3.382245
   H ( 10)  3.399508  3.158543  2.315321  1.087776  2.287480  3.352001
   H ( 11)  3.223609  3.514645  2.521901  2.290715  1.084949  2.120114
   C ( 12)  1.526183  1.525688  2.135734  1.555511  2.401603  2.456293
   H ( 13)  2.342197  2.380119  3.114918  2.381120  3.399586  3.392658
             H (  7)   H (  8)   H (  9)   H ( 10)   H ( 11)   C ( 12)
   H (  8)  2.664677
   H (  9)  4.398974  2.923044
   H ( 10)  4.393902  4.107859  2.906638
   H ( 11)  4.190927  4.517870  2.862515  2.701119
   C ( 12)  2.279232  2.378372  3.193170  2.366661  3.444962
   H ( 13)  2.735993  2.940339  4.118580  2.864345  4.409627  1.084799

 
 Final energy is   -286.815666713399     


 ******************************
 **  OPTIMIZATION CONVERGED  **
 ******************************

                       Coordinates (Angstroms)
     ATOM                X               Y               Z
      1  C         1.2876038416    0.2386410957    0.3030429905
      2  C         0.6006103315   -1.0315480416   -0.2151223961
      3  C        -0.6818119828   -0.5466875834   -0.8638848106
      4  C        -1.0796018777    0.1983095164    0.3543473636
      5  C        -0.4469097100    1.2579465208   -0.5368276513
      6  N         0.8706245166    1.4235013203   -0.3853395351
      7  H         2.3109143137    0.1803299701    0.6585790020
      8  H         1.1302045148   -1.9580830527   -0.4061364024
      9  H        -1.2212163308   -0.8576167314   -1.7492607362
     10  H        -2.0793991958    0.3228800339    0.7644001837
     11  H        -1.0436345423    1.9337557960   -1.1404132233
     12  C         0.1502455163   -0.3974376720    1.0974321517
     13  H         0.1983708159   -0.7678541439    2.1158937091

Z-matrix Print:
$molecule
0 2
N 
C  1 1.336508
H  2 1.084949 1 121.876718
C  1 1.432353 2 103.826818 3 -171.992975 0
H  4 1.084883 1 118.460603 2 -172.543913 0
C  2 1.522276 1 115.441667 3 -171.073250 0
H  6 1.087776 2 121.532100 1 144.228777 0
C  6 1.482345 2 75.947546 1 -89.684309 0
H  8 1.082370 6 133.070148 2 -97.624881 0
C  8 1.516769 6 92.064866 2 97.721836 0
H  10 1.084169 8 127.650008 6 149.731572 0
C  10 1.525688 8 89.171109 6 5.528697 0
H  12 1.084799 10 130.743969 8 137.404617 0
$end

 
 --------------------------------------------------------------
 
                    Orbital Energies (a.u.)
 --------------------------------------------------------------
 
 Alpha MOs
 -- Occupied --
-14.321 -10.219 -10.219 -10.215 -10.211 -10.206 -10.204  -0.979
 -0.843  -0.776  -0.655  -0.594  -0.573  -0.542  -0.530  -0.448
 -0.443  -0.409  -0.404  -0.377  -0.341  -0.283  -0.267  -0.245
 -0.190
 -- Virtual --
  0.066   0.093   0.106   0.121   0.147   0.155   0.158   0.169
  0.180   0.205   0.217   0.256   0.266   0.291   0.371   0.396
  0.481   0.507   0.526   0.542   0.553   0.574   0.575   0.604
  0.614   0.652   0.675   0.727   0.731   0.741   0.757   0.792
  0.800   0.807   0.827   0.830   0.846   0.852   0.909   0.948
  0.985   1.007   1.096   1.156   1.206   1.230   1.392   1.445
  1.467   1.491   1.540   1.609   1.621   1.650   1.663   1.705
  1.731   1.832   1.868   1.896   1.959   1.978   1.984   2.035
  2.079   2.138   2.166   2.231   2.284   2.368   2.400   2.466
  2.481   2.515   2.549   2.556   2.587   2.618   2.661   2.689
  2.746   2.801   2.840   2.901   2.945   3.905   4.223   4.318
  4.339   4.453   4.601   4.673
 
 Beta MOs
 -- Occupied --
-14.310 -10.221 -10.216 -10.212 -10.210 -10.205 -10.204  -0.970
 -0.827  -0.771  -0.645  -0.591  -0.568  -0.536  -0.524  -0.445
 -0.437  -0.401  -0.394  -0.368  -0.328  -0.277  -0.253  -0.230
 -- Virtual --
 -0.078   0.084   0.098   0.113   0.126   0.148   0.156   0.161
  0.174   0.181   0.212   0.222   0.261   0.271   0.292   0.376
  0.400   0.484   0.513   0.526   0.544   0.560   0.578   0.584
  0.609   0.618   0.659   0.679   0.733   0.736   0.745   0.780
  0.796   0.804   0.810   0.831   0.837   0.848   0.853   0.911
  0.953   0.992   1.016   1.101   1.161   1.214   1.232   1.394
  1.454   1.481   1.500   1.544   1.616   1.633   1.656   1.675
  1.710   1.737   1.839   1.874   1.900   1.965   1.983   1.989
  2.041   2.088   2.143   2.182   2.237   2.294   2.371   2.415
  2.474   2.493   2.528   2.554   2.565   2.591   2.634   2.665
  2.693   2.749   2.804   2.843   2.906   2.949   3.923   4.233
  4.322   4.337   4.455   4.607   4.676
 --------------------------------------------------------------
 
          Ground-State Mulliken Net Atomic Charges

     Atom                 Charge (a.u.)    Spin (a.u.)
  --------------------------------------------------------
      1 C                    -0.046206      -0.030268
      2 C                    -0.137767       0.001212
      3 C                    -0.109133       0.519484
      4 C                    -0.176754       0.014649
      5 C                     0.002308      -0.148844
      6 N                    -0.314065       0.571422
      7 H                     0.147972       0.000540
      8 H                     0.144746      -0.000859
      9 H                     0.152011      -0.024541
     10 H                     0.144635       0.011377
     11 H                     0.148676       0.004078
     12 C                    -0.100046       0.086412
     13 H                     0.143621      -0.004662
  --------------------------------------------------------
  Sum of atomic charges =     0.000000
  Sum of spin   charges =     1.000000

 -----------------------------------------------------------------
                    Cartesian Multipole Moments
 -----------------------------------------------------------------
    Charge (ESU x 10^10)
                 0.0000
    Dipole Moment (Debye)
         X      -1.5320      Y      -1.9657      Z       0.5653
       Tot       2.5555
    Quadrupole Moments (Debye-Ang)
        XX     -38.4411     XY      -4.3292     YY     -43.2962
        XZ       2.5868     YZ       0.6471     ZZ     -39.0513
    Octopole Moments (Debye-Ang^2)
       XXX     -10.6201    XXY      -7.9067    XYY      -8.4878
       YYY     -23.9862    XXZ       3.7217    XYZ       2.0149
       YYZ       0.0236    XZZ      -6.7710    YZZ      -8.2601
       ZZZ       5.6282
    Hexadecapole Moments (Debye-Ang^3)
      XXXX    -224.8830   XXXY      -7.0799   XXYY     -84.7795
      XYYY     -19.1988   YYYY    -253.8704   XXXZ      -9.8847
      XXYZ       8.0178   XYYZ       0.7662   YYYZ      17.7815
      XXZZ     -64.7993   XYZZ      -1.8765   YYZZ     -65.9967
      XZZZ      -9.8742   YZZZ      14.7632   ZZZZ    -155.9052
 -----------------------------------------------------------------
Archival summary:
1\1\c8-66\TS\ProcedureUnspecified\6-31G*\166(2)\hpark21\TueMar123:25:222022TueMar123:25:222022\0\\#,TS,ProcedureUnspecified,6-31G*,\\0,2\N\C,1,1.33651\H,2,1.08495,1,121.877\C,1,1.43235,2,103.827,3,-171.993,0\H,4,1.08488,1,118.461,2,-172.544,0\C,2,1.52228,1,115.442,3,-171.073,0\H,6,1.08778,2,121.532,1,144.229,0\C,6,1.48235,2,75.9475,1,-89.6843,0\H,8,1.08237,6,133.07,2,-97.6249,0\C,8,1.51677,6,92.0649,2,97.7218,0\H,10,1.08417,8,127.65,6,149.732,0\C,10,1.52569,8,89.1711,6,5.5287,0\H,12,1.0848,10,130.744,8,137.405,0\\\@

 Total job time:  145.67s(wall), 224.61s(cpu) 
 Tue Mar  1 23:25:22 2022

        *************************************************************
        *                                                           *
        *  Thank you very much for using Q-Chem.  Have a nice day.  *
        *                                                           *
        *************************************************************


