
Running Job 1 of 1 qcts1.in
qchem qcts1.in_26171.0 ./qcts1.d/ 1
/home/leeping/opt/qchem/5.0.2-openmp/exe/qcprog.exe_s qcts1.in_26171.0 ./qcts1.d/
Check license passed

                  Welcome to Q-Chem
     A Quantum Leap Into The Future Of Chemistry


 Q-Chem 5.0, Q-Chem, Inc., Pleasanton, CA (2017)

 Yihan Shao,  Zhengting Gan,  E. Epifanovsky,  A. T. B. Gilbert,  M. Wormit,  
 J. Kussmann,  A. W. Lange,  A. Behn,  Jia Deng,  Xintian Feng,  D. Ghosh,  
 M. Goldey,  P. R. Horn,  L. D. Jacobson,  I. Kaliman,  T. Kus,  A. Landau,  
 Jie Liu,  E. I. Proynov,  R. M. Richard,  R. P. Steele,  E. J. Sundstrom,  
 H. L. Woodcock III,  P. M. Zimmerman,  D. Zuev,  B. Albrecht,  E. Alguire,  
 S. A. Baeppler,  D. Barton,  Z. Benda,  Y. A. Bernard,  E. J. Berquist,  
 K. B. Bravaya,  H. Burton,  D. Casanova,  Chun-Min Chang,  Yunqing Chen,  
 A. Chien,  K. D. Closser,  M. P. Coons,  S. Dasgupta,  A. L. Dempwolff,  
 M. Diedenhofen,  Hainam Do,  R. G. Edgar,  Po-Tung Fang,  S. Fatehi,  
 Qingguo Feng,  J. Fosso-Tande,  Qinghui Ge,  A. Ghysels,  G. Gidofalvi,  
 J. Gomes,  J. Gonthier,  A. Gunina,  M. W. D. Hanson-Heine,  
 P. H. P. Harbach,  A. W. Hauser,  J. E. Herr,  E. G. Hohenstein,  
 Z. C. Holden,  Kerwin Hui,  T.-C. Jagau,  Hyunjun Ji,  B. Kaduk,  
 K. Khistyaev,  Jaehoon Kim,  P. Klunzinger,  K. Koh,  D. Kosenkov,  
 L. Koulias,  T. Kowalczyk,  C. M. Krauter,  A. Kunitsa,  Ka Un Lao,  
 A. Laurent,  K. V. Lawler,  Joonho Lee,  D. Lefrancois,  S. Lehtola,  
 D. S. Levine,  Yi-Pei Li,  You-Sheng Lin,  Fenglai Liu,  E. Livshits,  
 A. Luenser,  P. Manohar,  E. Mansoor,  S. F. Manzer,  Shan-Ping Mao,  
 Yuezhi Mao,  N. Mardirossian,  A. V. Marenich,  T. Markovich,  
 L. A. Martinez-Martinez,  S. A. Maurer,  N. J. Mayhall,  S. C. McKenzie,  
 J.-M. Mewes,  A. F. Morrison,  J. W. Mullinax,  K. Nanda,  
 T. S. Nguyen-Beck,  R. Olivares-Amaya,  J. A. Parkhill,  T. M. Perrine,  
 F. Plasser,  S. Prager,  A. Prociuk,  E. Ramos,  D. R. Rehn,  F. Rob,  
 M. Schneider,  N. Sergueev,  S. M. Sharada,  S. Sharma,  D. W. Small,  
 T. Stauch,  T. Stein,  Yu-Chuan Su,  A. J. W. Thom,  A. Tkatchenko,  
 T. Tsuchimochi,  L. Vogt,  O. Vydrov,  M. A. Watson,  J. Wenzel,  
 M. de Wergifosse,  T. A. Wesolowski,  A. White,  J. Witte,  A. Yamada,  
 Jun Yang,  K. Yao,  S. Yeganeh,  S. R. Yost,  Zhi-Qiang You,  A. Zech,  
 Igor Ying Zhang,  Xing Zhang,  Yan Zhao,  Ying Zhu,  B. R. Brooks,  
 G. K. L. Chan,  C. J. Cramer,  M. S. Gordon,  W. J. Hehre,  A. Klamt,  
 M. W. Schmidt,  C. D. Sherrill,  D. G. Truhlar,  A. Aspuru-Guzik,  R. Baer,  
 A. T. Bell,  N. A. Besley,  Jeng-Da Chai,  R. A. DiStasio Jr.,  A. Dreuw,  
 B. D. Dunietz,  T. R. Furlani,  Chao-Ping Hsu,  Yousung Jung,  Jing Kong,  
 D. S. Lambrecht,  WanZhen Liang,  C. Ochsenfeld,  V. A. Rassolov,  
 L. V. Slipchenko,  J. E. Subotnik,  T. Van Voorhis,  J. M. Herbert,  
 A. I. Krylov,  P. M. W. Gill,  M. Head-Gordon

 Contributors to earlier versions of Q-Chem not listed above: 
 R. D. Adamson,  B. Austin,  J. Baker,  G. J. O. Beran,  K. Brandhorst,  
 S. T. Brown,  E. F. C. Byrd,  A. K. Chakraborty,  C.-L. Cheng,  
 Siu Hung Chien,  D. M. Chipman,  D. L. Crittenden,  H. Dachsel,  
 R. J. Doerksen,  A. D. Dutoi,  L. Fusti-Molnar,  W. A. Goddard III,  
 A. Golubeva-Zadorozhnaya,  S. R. Gwaltney,  G. Hawkins,  A. Heyden,  
 S. Hirata,  G. Kedziora,  F. J. Keil,  C. Kelley,  Jihan Kim,  R. A. King,  
 R. Z. Khaliullin,  P. P. Korambath,  W. Kurlancheek,  A. M. Lee,  M. S. Lee,  
 S. V. Levchenko,  Ching Yeh Lin,  D. Liotard,  R. C. Lochan,  I. Lotan,  
 P. E. Maslen,  N. Nair,  D. P. O'Neill,  D. Neuhauser,  E. Neuscamman,  
 C. M. Oana,  R. Olson,  B. Peters,  R. Peverati,  P. A. Pieniazek,  
 Y. M. Rhee,  J. Ritchie,  M. A. Rohrdanz,  E. Rosta,  N. J. Russ,  
 H. F. Schaefer III,  N. E. Schultz,  N. Shenvi,  A. C. Simmonett,  A. Sodt,  
 D. Stuck,  K. S. Thanthiriwatte,  V. Vanovschi,  Tao Wang,  A. Warshel,  
 C. F. Williams,  Q. Wu,  X. Xu,  W. Zhang

 Please cite Q-Chem as follows:
 Y. Shao et al., Mol. Phys. 113, 184-215 (2015)
 DOI: 10.1080/00268976.2014.952696

 Q-Chem 5.0.2 for Intel X86 EM64T Linux

 Parts of Q-Chem use Armadillo 5.200.1 (Boston Tea Smuggler).
 http://arma.sourceforge.net/

 Q-Chem begins on Tue Mar  1 23:17:17 2022  

Host: 
0

     Scratch files written to ./qcts1.d//
 Dec517 15110_ 26548  26544 5633   
Processing $rem in /home/leeping/opt/qchem/5.0.2-openmp/config/preferences.
 MEM_STATIC 2000
 MEM_TOTAL  8000
 SYMMETRY   OFF
 SYM_IGNORE TRUE 

Checking the input file for inconsistencies... 	...done.

--------------------------------------------------------------
User input:
--------------------------------------------------------------
$molecule
0 2
C        1.2894896980    0.2424476249    0.3120398859
C        0.6004902624   -1.0268513121   -0.2177277144
C       -0.6791641257   -0.5115031047   -0.8718189525
C       -1.0809978684    0.1979155161    0.3666358470
C       -0.4505210357    1.2252964157   -0.5712221666
N        0.8728273475    1.4200164030   -0.3769571657
H        2.3105744271    0.1825501350    0.6730604650
H        1.1318451339   -1.9506289610   -0.4153674465
H       -1.2316425760   -0.8640758377   -1.7336705612
H       -2.0816383921    0.3274994783    0.7701195549
H       -1.0387841572    1.9320868201   -1.1465349762
C        0.1473107141   -0.4026827178    1.0954940539
H        0.2062107832   -0.7759334316    2.1126598221
$end

$rem
method                b3lyp
basis                 6-31g(d)
unrestricted          true
symmetry              off
sym_ignore            true
incdft                false
incfock               0
scf_convergence       8
thresh                14
jobtype               freq
scf_guess             read
scf_algorithm         diis
max_scf_cycles        100
$end

--------------------------------------------------------------
 ----------------------------------------------------------------
             Standard Nuclear Orientation (Angstroms)
    I     Atom           X                Y                Z
 ----------------------------------------------------------------
    1      C       1.2894896980     0.2424476249     0.3120398859
    2      C       0.6004902624    -1.0268513121    -0.2177277144
    3      C      -0.6791641257    -0.5115031047    -0.8718189525
    4      C      -1.0809978684     0.1979155161     0.3666358470
    5      C      -0.4505210357     1.2252964157    -0.5712221666
    6      N       0.8728273475     1.4200164030    -0.3769571657
    7      H       2.3105744271     0.1825501350     0.6730604650
    8      H       1.1318451339    -1.9506289610    -0.4153674465
    9      H      -1.2316425760    -0.8640758377    -1.7336705612
   10      H      -2.0816383921     0.3274994783     0.7701195549
   11      H      -1.0387841572     1.9320868201    -1.1465349762
   12      C       0.1473107141    -0.4026827178     1.0954940539
   13      H       0.2062107832    -0.7759334316     2.1126598221
 ----------------------------------------------------------------
 Nuclear Repulsion Energy =   286.8017488249 hartrees
 There are       25 alpha and       24 beta electrons
 Requested basis set is 6-31G(d)
 There are 40 shells and 117 basis functions

 Total QAlloc Memory Limit   8000 MB
 Mega-Array Size      1956 MB
 MEM_STATIC part      2000 MB

                       Distance Matrix (Angstroms)
             C (  1)   C (  2)   C (  3)   C (  4)   C (  5)   N (  6)
   C (  2)  1.538341
   C (  3)  2.417760  1.526740
   C (  4)  2.371534  2.160772  1.482739
   C (  5)  2.184898  2.510329  1.777388  1.527282
   N (  6)  1.426532  2.467120  2.526724  2.421548  1.351631
   H (  7)  1.084683  2.276081  3.436117  3.405421  3.203000  2.168174
   H (  8)  2.315936  1.083866  2.357793  3.181894  3.551714  3.380801
   H (  9)  3.430078  2.383546  1.082741  2.358348  2.515336  3.389180
   H ( 10)  3.403171  3.162898  2.316640  1.086680  2.294729  3.352349
   H ( 11)  3.225396  3.507879  2.485141  2.301916  1.084708  2.123376
   C ( 12)  1.527929  1.522994  2.136638  1.549417  2.405340  2.452900
   H ( 13)  2.335129  2.376788  3.124248  2.377790  3.411662  3.385966
             H (  7)   H (  8)   H (  9)   H ( 10)   H ( 11)   C ( 12)
   H (  8)  2.669182
   H (  9)  4.408524  2.916264
   H ( 10)  4.395676  4.113602  2.900226
   H ( 11)  4.194044  4.507962  2.863642  2.708470
   C ( 12)  2.280495  2.376583  3.180970  2.367963  3.447414
   H ( 13)  2.723873  2.937283  4.107243  2.873018  4.416530  1.085086

 
 A cutoff of  1.0D-14 yielded    812 shell pairs
 There are      7084 function pairs
 Smallest overlap matrix eigenvalue = 1.00E-03
 Guess MOs from SCF MO coefficient file
 Reading MOs from coefficient file
 Reading MOs from coefficient file
 An unrestricted hybrid HF-DFT SCF calculation will be
 performed using Pulay DIIS extrapolation
 Exchange:     0.2000 Hartree-Fock + 0.0800 Slater + 0.7200 B88
 Correlation:  0.1900 VWN1RPA + 0.8100 LYP
 Using SG-1 standard quadrature grid
 SCF converges when DIIS error is below 1.0E-08
Using Q-Chem read-in guess as SCF_GUESS READ specified.

 -------------------------------------------------------
 OpenMP BLAS3 based DFT computing Module                
 -------------------------------------------------------
 ---------------------------------------
  Cycle       Energy         DIIS Error
 ---------------------------------------
    1    -286.8165982148      5.15E-10
    2    -286.8165982148      8.57E-10 Convergence criterion met
 ---------------------------------------
 <S^2> = 0.7654
 SCF time:  CPU 3.37 s  wall 6.59 s
 SCF   energy in the final basis set = -286.81659821
 Total energy in the final basis set = -286.81659821
 
 --------------------------------------------------------------
 
                    Orbital Energies (a.u.)
 --------------------------------------------------------------
 
 Alpha MOs
 -- Occupied --
-14.325 -10.219 -10.218 -10.215 -10.210 -10.206 -10.204  -0.981
 -0.842  -0.779  -0.653  -0.594  -0.572  -0.541  -0.530  -0.449
 -0.439  -0.411  -0.403  -0.380  -0.341  -0.280  -0.268  -0.246
 -0.195
 -- Virtual --
  0.079   0.093   0.111   0.122   0.148   0.154   0.160   0.170
  0.181   0.201   0.216   0.255   0.262   0.292   0.371   0.394
  0.480   0.512   0.529   0.541   0.551   0.570   0.574   0.602
  0.617   0.646   0.674   0.727   0.730   0.742   0.753   0.789
  0.798   0.804   0.829   0.830   0.848   0.852   0.910   0.945
  0.985   1.008   1.115   1.158   1.197   1.228   1.402   1.459
  1.480   1.498   1.541   1.618   1.631   1.655   1.663   1.703
  1.738   1.832   1.866   1.897   1.961   1.976   1.985   2.024
  2.059   2.134   2.167   2.236   2.279   2.378   2.406   2.479
  2.494   2.514   2.550   2.554   2.600   2.607   2.668   2.696
  2.752   2.792   2.841   2.891   2.940   3.887   4.223   4.316
  4.344   4.453   4.615   4.672
 
 Beta MOs
 -- Occupied --
-14.312 -10.221 -10.216 -10.212 -10.209 -10.205 -10.204  -0.971
 -0.823  -0.775  -0.645  -0.591  -0.567  -0.536  -0.525  -0.446
 -0.434  -0.399  -0.394  -0.371  -0.327  -0.274  -0.254  -0.232
 -- Virtual --
 -0.079   0.089   0.100   0.118   0.127   0.149   0.156   0.163
  0.175   0.183   0.207   0.223   0.260   0.268   0.293   0.375
  0.398   0.483   0.516   0.530   0.543   0.558   0.576   0.577
  0.607   0.619   0.654   0.678   0.732   0.736   0.745   0.782
  0.794   0.801   0.808   0.831   0.838   0.850   0.853   0.912
  0.950   0.995   1.017   1.120   1.162   1.205   1.230   1.404
  1.473   1.494   1.505   1.545   1.624   1.640   1.661   1.679
  1.708   1.744   1.838   1.871   1.902   1.967   1.979   1.990
  2.028   2.070   2.139   2.183   2.242   2.288   2.381   2.420
  2.490   2.503   2.524   2.555   2.567   2.604   2.624   2.673
  2.700   2.756   2.795   2.844   2.896   2.944   3.908   4.231
  4.321   4.342   4.455   4.621   4.675
 --------------------------------------------------------------
 
          Ground-State Mulliken Net Atomic Charges

     Atom                 Charge (a.u.)    Spin (a.u.)
  --------------------------------------------------------
      1 C                    -0.048392      -0.050397
      2 C                    -0.132548       0.030192
      3 C                    -0.119242       0.381477
      4 C                    -0.157862       0.039572
      5 C                    -0.015442      -0.137365
      6 N                    -0.301401       0.663439
      7 H                     0.148296       0.000693
      8 H                     0.144418      -0.001987
      9 H                     0.150118      -0.017188
     10 H                     0.143982       0.006772
     11 H                     0.149404       0.002898
     12 C                    -0.104401       0.086607
     13 H                     0.143069      -0.004712
  --------------------------------------------------------
  Sum of atomic charges =    -0.000000
  Sum of spin   charges =     1.000000

 -----------------------------------------------------------------
                    Cartesian Multipole Moments
 -----------------------------------------------------------------
    Charge (ESU x 10^10)
                -0.0000
    Dipole Moment (Debye)
         X      -1.4412      Y      -1.9339      Z       0.5676
       Tot       2.4778
    Quadrupole Moments (Debye-Ang)
        XX     -38.4308     XY      -4.2455     YY     -43.1532
        XZ       2.4998     YZ       0.6002     ZZ     -39.1115
    Octopole Moments (Debye-Ang^2)
       XXX     -10.5722    XXY      -7.9502    XYY      -8.4665
       YYY     -23.8817    XXZ       3.7684    XYZ       1.8922
       YYZ      -0.1081    XZZ      -6.4851    YZZ      -8.1716
       ZZZ       6.0059
    Hexadecapole Moments (Debye-Ang^3)
      XXXX    -225.2099   XXXY      -6.9743   XXYY     -84.0609
      XYYY     -19.0301   YYYY    -249.0546   XXXZ     -10.2193
      XXYZ       8.1448   XYYZ       0.5501   YYYZ      18.1861
      XXZZ     -65.0473   XYZZ      -1.6937   YYZZ     -65.2816
      XZZZ     -10.5891   YZZZ      15.1498   ZZZZ    -158.2789
 -----------------------------------------------------------------
 Calculating MO derivatives via CPSCF
   1         3          39      0.249747    0.044875
   2         3          39      0.029220    0.005082
   3         3          39      0.003608    0.000642
   4         4          38      0.000373    0.000066
   5        31          11      0.000030    0.000007
   6        42           0      0.000000    0.000000    Roots Converged
 Time for AOints: 5.8 s (CPU) 9.0 s (wall)
 ------------------------------------------------------------------------------
                     AOints        : Timing summary (seconds)
 ------------------------------------------------------------------------------
     job step          cpu (% of tot)      sys (% of tot)     wall (% of tot)
 ------------------------------------------------------------------------------
  cpscf_lag         0.5484E+02 (28.9)   0.2200E-04 (31.4)   0.5919E+02 (28.4)
  iterzp            0.1291E+03 (68.0)   0.4700E-04 (67.1)   0.1399E+03 (67.2)
  make_fx           0.0000E+00 ( 0.0)   0.0000E+00 ( 0.0)   0.0000E+00 ( 0.0)
  AOints            0.5796E+01 ( 3.1)   0.0000E+00 ( 0.0)   0.9028E+01 ( 4.3)
 ------------------------------------------------------------------------------
   Grand Totals     0.1899E+03          0.7000E-04          0.2083E+03
 ------------------------------------------------------------------------------
 Calculating analytic Hessian of the SCF energy
 Polarizability Matrix (a.u.)
            1           2           3
    1 -60.4579858   0.3890377  -4.4762930
    2   0.3890377 -57.8627550   1.9090093
    3  -4.4762930   1.9090093 -51.2219640
 
 Direct stationary perturbation theory relativistic correction:
 
 rels  =       0.069243978251
 relv  =      -0.343046006657
 rel2e =       0.160956788115
 E_rel =      -0.112845240291
 
 Hessian of the SCF Energy
            1           2           3           4           5           6
    1   0.7042685  -0.0178610   0.1668650  -0.0662922  -0.0405649  -0.0522137
    2  -0.0178610   0.3773115  -0.0854250  -0.0151709  -0.1252423  -0.0622743
    3   0.1668650  -0.0854250   0.2790066  -0.0221090  -0.0082675  -0.0371886
    4  -0.0662922  -0.0151709  -0.0221090   0.4171836  -0.2130274   0.0333641
    5  -0.0405649  -0.1252423  -0.0082675  -0.2130274   0.5960159   0.1243989
    6  -0.0522137  -0.0622743  -0.0371886   0.0333641   0.1243989   0.3431642
    7  -0.0255798  -0.0030282  -0.0209428  -0.1506088   0.0400526  -0.0731718
    8  -0.0150631  -0.0018059  -0.0064402   0.0427425  -0.0810798   0.0045887
    9  -0.0026132  -0.0043186  -0.0074349  -0.0451523   0.0110239  -0.0562116
   10  -0.0380586   0.0080060   0.0024922  -0.0426043   0.0254436   0.0155037
   11  -0.0099666   0.0039429   0.0017905   0.0458857  -0.0236285  -0.0163081
   12  -0.0083701  -0.0045601   0.0048449   0.0022045  -0.0144882  -0.0250859
   13  -0.0371267   0.0271625  -0.0293671  -0.0055335   0.0139265   0.0059003
   14   0.0473446  -0.0110820   0.0031016   0.0165453  -0.0168793   0.0278531
   15  -0.0244419   0.0228950  -0.0154582  -0.0096995  -0.0039026   0.0053424
   16  -0.1067233   0.0482145  -0.0306667  -0.0029161   0.0051086  -0.0124655
   17   0.0244977  -0.1386260   0.0545428  -0.0127743  -0.0417535   0.0150592
   18  -0.0330025   0.0534289  -0.0730511   0.0139777  -0.0016608   0.0040478
   19  -0.3137343   0.0113979  -0.0957660  -0.0017289   0.0001546   0.0019219
   20   0.0068188  -0.0493616   0.0094749  -0.0196161   0.0033153  -0.0055117
   21  -0.0943607   0.0117472  -0.0698691  -0.0147471   0.0026528  -0.0060883
   22   0.0108688  -0.0152576  -0.0005192  -0.1137581   0.1357515   0.0183436
   23   0.0116183  -0.0126596  -0.0026213   0.1357498  -0.2624102  -0.0487306
   24  -0.0016401  -0.0022363  -0.0044816   0.0167863  -0.0488168  -0.0556993
   25  -0.0026772   0.0012772  -0.0026544  -0.0005382  -0.0136529  -0.0068582
   26   0.0007293  -0.0013764  -0.0022632   0.0039867   0.0080114   0.0076377
   27   0.0011919   0.0000171   0.0012219   0.0024876   0.0001251  -0.0018680
   28  -0.0019304   0.0011351   0.0000721  -0.0009130   0.0008210   0.0006594
   29  -0.0007287  -0.0022006   0.0012495   0.0041649  -0.0022503  -0.0023646
   30  -0.0037414   0.0005774  -0.0016398   0.0012743   0.0004753  -0.0028787
   31  -0.0058743  -0.0012865  -0.0021362   0.0000715  -0.0006929   0.0009642
   32  -0.0012555   0.0009934   0.0014428   0.0008813  -0.0000321   0.0019830
   33  -0.0005725   0.0000807   0.0020406   0.0012215  -0.0007748   0.0006115
   34  -0.1209447  -0.0397285   0.0165170  -0.0291368   0.0506374   0.0655456
   35  -0.0134820  -0.0356026   0.0229633   0.0151511  -0.0663017  -0.0328394
   36   0.0516657   0.0732462  -0.0750702   0.0205856  -0.0702221  -0.1598706
   37   0.0038042  -0.0048605   0.0182151  -0.0032253  -0.0039576   0.0025065
   38   0.0079132  -0.0042909   0.0104517  -0.0045186   0.0122352  -0.0134918
   39   0.0012333  -0.0031783  -0.0029205  -0.0001936   0.0094569  -0.0082749
            7           8           9          10          11          12
    1  -0.0255798  -0.0150631  -0.0026132  -0.0380586  -0.0099666  -0.0083701
    2  -0.0030282  -0.0018059  -0.0043186   0.0080060   0.0039429  -0.0045601
    3  -0.0209428  -0.0064402  -0.0074349   0.0024922   0.0017905   0.0048449
    4  -0.1506088   0.0427425  -0.0451523  -0.0426043   0.0458857   0.0022045
    5   0.0400526  -0.0810798   0.0110239   0.0254436  -0.0236285  -0.0144882
    6  -0.0731718   0.0045887  -0.0562116   0.0155037  -0.0163081  -0.0250859
    7   0.4308816  -0.0325213   0.1830963  -0.0661315   0.0179660   0.0573484
    8  -0.0325213   0.1574832   0.2005847   0.0511243  -0.0550699  -0.1500393
    9   0.1830963   0.2005847   0.5753648   0.0438380  -0.0673431  -0.1883950
   10  -0.0661315   0.0511243   0.0438380   0.6742652  -0.0844946  -0.1400881
   11   0.0179660  -0.0550699  -0.0673431  -0.0844946   0.2821366   0.0155918
   12   0.0573484  -0.1500393  -0.1883950  -0.1400881   0.0155918   0.4632603
   13  -0.0213191   0.0624633  -0.0308717  -0.0967934  -0.0033101   0.0449682
   14   0.0183144   0.0666896  -0.0348911  -0.0465848  -0.0848930   0.1091402
   15  -0.0064223   0.0776936  -0.0206204   0.0076680   0.0338119  -0.0702705
   16  -0.0168858  -0.0921206   0.0107512  -0.0219812  -0.0364700  -0.0043011
   17  -0.0164862  -0.0200886  -0.0000843  -0.0131463  -0.0049296   0.0037312
   18  -0.0100055  -0.0364779  -0.0007658   0.0201115   0.0099966   0.0024948
   19   0.0000643   0.0006835   0.0010264  -0.0010800  -0.0013810  -0.0004495
   20  -0.0024445  -0.0036093   0.0013634  -0.0000459  -0.0016004  -0.0009375
   21  -0.0011955  -0.0015702  -0.0012323   0.0036207   0.0022461  -0.0006445
   22  -0.0041392   0.0124403   0.0088124  -0.0048120   0.0020567   0.0016213
   23  -0.0040365   0.0000644   0.0001835  -0.0012954  -0.0007825  -0.0001654
   24   0.0021231   0.0116604   0.0054017   0.0000968  -0.0030109  -0.0019373
   25  -0.1308459  -0.0360465  -0.1340788   0.0108779   0.0036757   0.0073685
   26  -0.0401671  -0.0645533  -0.0912271  -0.0038513  -0.0037563  -0.0003782
   27  -0.1323806  -0.0946791  -0.2360954  -0.0129568  -0.0012994  -0.0058488
   28   0.0024007  -0.0007411   0.0007811  -0.2988137   0.0358782   0.0956535
   29   0.0183870  -0.0001754  -0.0002543   0.0358988  -0.0400843  -0.0119600
   30   0.0179772  -0.0020928  -0.0026808   0.0964285  -0.0101264  -0.0900827
   31  -0.0008341   0.0005538   0.0022014   0.0088568  -0.0095229   0.0068379
   32   0.0033488  -0.0042316   0.0091938   0.0044976  -0.0080167   0.0010146
   33   0.0060217  -0.0076539   0.0048627  -0.0115650   0.0078075  -0.0086535
   34  -0.0150593   0.0098462  -0.0360304  -0.1317786   0.0349352  -0.0463759
   35  -0.0000297   0.0090390  -0.0227081   0.0308850  -0.0599851   0.0496698
   36  -0.0214604   0.0049728  -0.0691922  -0.0260066   0.0293796  -0.0790695
   37  -0.0019430  -0.0033614  -0.0017603   0.0080534   0.0047478  -0.0164174
   38   0.0006448  -0.0026624  -0.0015228  -0.0064372  -0.0033331   0.0033809
   39  -0.0009878  -0.0005469  -0.0030008   0.0008570  -0.0025363  -0.0006123
           13          14          15          16          17          18
    1  -0.0371267   0.0473446  -0.0244419  -0.1067233   0.0244977  -0.0330025
    2   0.0271625  -0.0110820   0.0228950   0.0482145  -0.1386260   0.0534289
    3  -0.0293671   0.0031016  -0.0154582  -0.0306667   0.0545428  -0.0730511
    4  -0.0055335   0.0165453  -0.0096995  -0.0029161  -0.0127743   0.0139777
    5   0.0139265  -0.0168793  -0.0039026   0.0051086  -0.0417535  -0.0016608
    6   0.0059003   0.0278531   0.0053424  -0.0124655   0.0150592   0.0040478
    7  -0.0213191   0.0183144  -0.0064223  -0.0168858  -0.0164862  -0.0100055
    8   0.0624633   0.0666896   0.0776936  -0.0921206  -0.0200886  -0.0364779
    9  -0.0308717  -0.0348911  -0.0206204   0.0107512  -0.0000843  -0.0007658
   10  -0.0967934  -0.0465848   0.0076680  -0.0219812  -0.0131463   0.0201115
   11  -0.0033101  -0.0848930   0.0338119  -0.0364700  -0.0049296   0.0099966
   12   0.0449682   0.1091402  -0.0702705  -0.0043011   0.0037312   0.0024948
   13   0.5780636  -0.1757942   0.1193956  -0.2811431  -0.0124433  -0.0364805
   14  -0.1757942   0.3118675  -0.2925893   0.0254405  -0.0687779   0.0480834
   15   0.1193956  -0.2925893   0.2691333   0.0012012   0.0244486  -0.0316340
   16  -0.2811431   0.0254405   0.0012012   0.4512015   0.0290334   0.0536296
   17  -0.0124433  -0.0687779   0.0244486   0.0290334   0.3024366  -0.1079700
   18  -0.0364805   0.0480834  -0.0316340   0.0536296  -0.1079700   0.1305839
   19  -0.0000513   0.0008022  -0.0007822  -0.0018942   0.0016220  -0.0000910
   20   0.0037610  -0.0026457   0.0036359   0.0261357  -0.0002424   0.0068281
   21  -0.0011234   0.0025381  -0.0018658  -0.0121434  -0.0016953  -0.0066012
   22   0.0001956  -0.0011946   0.0005231  -0.0007308  -0.0010277  -0.0030006
   23   0.0008678  -0.0013360  -0.0001991   0.0003657  -0.0005541  -0.0014067
   24   0.0001622   0.0038274   0.0000495  -0.0016098   0.0020355  -0.0015836
   25  -0.0032317  -0.0002066  -0.0022297  -0.0001215  -0.0000775   0.0006172
   26  -0.0058456  -0.0013615  -0.0122080   0.0006101  -0.0014595   0.0006176
   27   0.0065087   0.0023380   0.0042462  -0.0016806   0.0012266  -0.0007259
   28  -0.0038474   0.0032871   0.0017858  -0.0014806  -0.0003920  -0.0007091
   29  -0.0259302   0.0059491   0.0038785  -0.0005906  -0.0023549   0.0020280
   30   0.0129546   0.0031259  -0.0019061  -0.0045478  -0.0000814  -0.0033999
   31  -0.1315160   0.0973576  -0.0865213  -0.0179268   0.0221588  -0.0150871
   32   0.1050722  -0.1748821   0.1154414  -0.0037634   0.0081220  -0.0088559
   33  -0.0860116   0.1182696  -0.1190878  -0.0023398  -0.0015646  -0.0060581
   34   0.0017557   0.0122896  -0.0016450   0.0043899  -0.0221635   0.0094520
   35   0.0073812  -0.0231266   0.0233620   0.0002833  -0.0300917   0.0335551
   36  -0.0073704   0.0088354  -0.0182682   0.0054860   0.0105229  -0.0135645
   37   0.0005471   0.0023990   0.0011682  -0.0037878   0.0011987   0.0005884
   38   0.0026889   0.0004779   0.0037321  -0.0022473  -0.0016805   0.0018337
   39   0.0013351   0.0003677   0.0003395  -0.0013131  -0.0001711   0.0002576
           19          20          21          22          23          24
    1  -0.3137343   0.0068188  -0.0943607   0.0108688   0.0116183  -0.0016401
    2   0.0113979  -0.0493616   0.0117472  -0.0152576  -0.0126596  -0.0022363
    3  -0.0957660   0.0094749  -0.0698691  -0.0005192  -0.0026213  -0.0044816
    4  -0.0017289  -0.0196161  -0.0147471  -0.1137581   0.1357498   0.0167863
    5   0.0001546   0.0033153   0.0026528   0.1357515  -0.2624102  -0.0488168
    6   0.0019219  -0.0055117  -0.0060883   0.0183436  -0.0487306  -0.0556993
    7   0.0000643  -0.0024445  -0.0011955  -0.0041392  -0.0040365   0.0021231
    8   0.0006835  -0.0036093  -0.0015702   0.0124403   0.0000644   0.0116604
    9   0.0010264   0.0013634  -0.0012323   0.0088124   0.0001835   0.0054017
   10  -0.0010800  -0.0000459   0.0036207  -0.0048120  -0.0012954   0.0000968
   11  -0.0013810  -0.0016004   0.0022461   0.0020567  -0.0007825  -0.0030109
   12  -0.0004495  -0.0009375  -0.0006445   0.0016213  -0.0001654  -0.0019373
   13  -0.0000513   0.0037610  -0.0011234   0.0001956   0.0008678   0.0001622
   14   0.0008022  -0.0026457   0.0025381  -0.0011946  -0.0013360   0.0038274
   15  -0.0007822   0.0036359  -0.0018658   0.0005231  -0.0001991   0.0000495
   16  -0.0018942   0.0261357  -0.0121434  -0.0007308   0.0003657  -0.0016098
   17   0.0016220  -0.0002424  -0.0016953  -0.0010277  -0.0005541   0.0020355
   18  -0.0000910   0.0068281  -0.0066012  -0.0030006  -0.0014067  -0.0015836
   19   0.3286389  -0.0137045   0.1018004   0.0002955  -0.0003274  -0.0003091
   20  -0.0137045   0.0525004  -0.0125200   0.0013344   0.0013638  -0.0006706
   21   0.1018004  -0.0125200   0.0736504   0.0012560   0.0008545   0.0006638
   22   0.0002955   0.0013344   0.0012560   0.1164559  -0.1392222  -0.0225760
   23  -0.0003274   0.0013638   0.0008545  -0.1392222   0.2742734   0.0540166
   24  -0.0003091  -0.0006706   0.0006638  -0.0225760   0.0540166   0.0479200
   25   0.0003078  -0.0008157  -0.0010271   0.0005717   0.0003922  -0.0000175
   26  -0.0001788   0.0003330   0.0003678  -0.0003067   0.0001224  -0.0001226
   27   0.0001124   0.0003100   0.0003098  -0.0004589  -0.0001487   0.0004115
   28  -0.0001514   0.0002801   0.0007471  -0.0002529  -0.0004226   0.0003468
   29  -0.0001876   0.0000056  -0.0000967   0.0016182   0.0003252  -0.0002380
   30  -0.0005676  -0.0000433   0.0013945   0.0000271   0.0000981   0.0006313
   31  -0.0001523   0.0015691  -0.0010017   0.0000123   0.0000854  -0.0001040
   32   0.0000169   0.0006233   0.0002242   0.0001000   0.0000886   0.0006072
   33  -0.0001325   0.0003979   0.0008037   0.0002639  -0.0000510   0.0010988
   34  -0.0115891  -0.0029867   0.0197993  -0.0056589  -0.0040245   0.0067145
   35   0.0005121  -0.0014481  -0.0035197   0.0044161   0.0009913  -0.0190048
   36  -0.0071281  -0.0027757   0.0091331  -0.0036237  -0.0012869   0.0056567
   37   0.0010749  -0.0002856  -0.0016246   0.0009521   0.0002493   0.0000268
   38   0.0005900   0.0007659  -0.0012289  -0.0007085   0.0005135   0.0019529
   39   0.0003651   0.0004486   0.0003460  -0.0006688  -0.0005431   0.0018685
           25          26          27          28          29          30
    1  -0.0026772   0.0007293   0.0011919  -0.0019304  -0.0007287  -0.0037414
    2   0.0012772  -0.0013764   0.0000171   0.0011351  -0.0022006   0.0005774
    3  -0.0026544  -0.0022632   0.0012219   0.0000721   0.0012495  -0.0016398
    4  -0.0005382   0.0039867   0.0024876  -0.0009130   0.0041649   0.0012743
    5  -0.0136529   0.0080114   0.0001251   0.0008210  -0.0022503   0.0004753
    6  -0.0068582   0.0076377  -0.0018680   0.0006594  -0.0023646  -0.0028787
    7  -0.1308459  -0.0401671  -0.1323806   0.0024007   0.0183870   0.0179772
    8  -0.0360465  -0.0645533  -0.0946791  -0.0007411  -0.0001754  -0.0020928
    9  -0.1340788  -0.0912271  -0.2360954   0.0007811  -0.0002543  -0.0026808
   10   0.0108779  -0.0038513  -0.0129568  -0.2988137   0.0358988   0.0964285
   11   0.0036757  -0.0037563  -0.0012994   0.0358782  -0.0400843  -0.0101264
   12   0.0073685  -0.0003782  -0.0058488   0.0956535  -0.0119600  -0.0900827
   13  -0.0032317  -0.0058456   0.0065087  -0.0038474  -0.0259302   0.0129546
   14  -0.0002066  -0.0013615   0.0023380   0.0032871   0.0059491   0.0031259
   15  -0.0022297  -0.0122080   0.0042462   0.0017858   0.0038785  -0.0019061
   16  -0.0001215   0.0006101  -0.0016806  -0.0014806  -0.0005906  -0.0045478
   17  -0.0000775  -0.0014595   0.0012266  -0.0003920  -0.0023549  -0.0000814
   18   0.0006172   0.0006176  -0.0007259  -0.0007091   0.0020280  -0.0033999
   19   0.0003078  -0.0001788   0.0001124  -0.0001514  -0.0001876  -0.0005676
   20  -0.0008157   0.0003330   0.0003100   0.0002801   0.0000056  -0.0000433
   21  -0.0010271   0.0003678   0.0003098   0.0007471  -0.0000967   0.0013945
   22   0.0005717  -0.0003067  -0.0004589  -0.0002529   0.0016182   0.0000271
   23   0.0003922   0.0001224  -0.0001487  -0.0004226   0.0003252   0.0000981
   24  -0.0000175  -0.0001226   0.0004115   0.0003468  -0.0002380   0.0006313
   25   0.1243786   0.0458753   0.1394243   0.0006020  -0.0012230  -0.0006232
   26   0.0458753   0.0630803   0.0935088   0.0003982   0.0005171  -0.0002494
   27   0.1394243   0.0935088   0.2429851   0.0001030   0.0010599   0.0013326
   28   0.0006020   0.0003982   0.0001030   0.3090592  -0.0366613  -0.1076885
   29  -0.0012230   0.0005171   0.0010599  -0.0366613   0.0411053   0.0120402
   30  -0.0006232  -0.0002494   0.0013326  -0.1076885   0.0120402   0.0855139
   31   0.0006175   0.0000595  -0.0002565   0.0005016   0.0012836  -0.0001721
   32   0.0004032   0.0008820  -0.0009365  -0.0001071   0.0009201   0.0004618
   33   0.0001574   0.0011927  -0.0002933   0.0000372  -0.0007494   0.0007095
   34  -0.0003059  -0.0014346  -0.0008915  -0.0056580   0.0043434  -0.0120377
   35   0.0012710  -0.0007628  -0.0009799  -0.0034139  -0.0026041  -0.0040335
   36  -0.0001171   0.0023353  -0.0051342   0.0084551  -0.0050329   0.0125660
   37   0.0003650   0.0001249  -0.0012029   0.0004839  -0.0003743   0.0007167
   38  -0.0008723   0.0003236  -0.0005417  -0.0000616   0.0008472  -0.0001518
   39   0.0000385   0.0007886  -0.0005415  -0.0002434   0.0004397   0.0004402
           31          32          33          34          35          36
    1  -0.0058743  -0.0012555  -0.0005725  -0.1209447  -0.0134820   0.0516657
    2  -0.0012865   0.0009934   0.0000807  -0.0397285  -0.0356026   0.0732462
    3  -0.0021362   0.0014428   0.0020406   0.0165170   0.0229633  -0.0750702
    4   0.0000715   0.0008813   0.0012215  -0.0291368   0.0151511   0.0205856
    5  -0.0006929  -0.0000321  -0.0007748   0.0506374  -0.0663017  -0.0702221
    6   0.0009642   0.0019830   0.0006115   0.0655456  -0.0328394  -0.1598706
    7  -0.0008341   0.0033488   0.0060217  -0.0150593  -0.0000297  -0.0214604
    8   0.0005538  -0.0042316  -0.0076539   0.0098462   0.0090390   0.0049728
    9   0.0022014   0.0091938   0.0048627  -0.0360304  -0.0227081  -0.0691922
   10   0.0088568   0.0044976  -0.0115650  -0.1317786   0.0308850  -0.0260066
   11  -0.0095229  -0.0080167   0.0078075   0.0349352  -0.0599851   0.0293796
   12   0.0068379   0.0010146  -0.0086535  -0.0463759   0.0496698  -0.0790695
   13  -0.1315160   0.1050722  -0.0860116   0.0017557   0.0073812  -0.0073704
   14   0.0973576  -0.1748821   0.1182696   0.0122896  -0.0231266   0.0088354
   15  -0.0865213   0.1154414  -0.1190878  -0.0016450   0.0233620  -0.0182682
   16  -0.0179268  -0.0037634  -0.0023398   0.0043899   0.0002833   0.0054860
   17   0.0221588   0.0081220  -0.0015646  -0.0221635  -0.0300917   0.0105229
   18  -0.0150871  -0.0088559  -0.0060581   0.0094520   0.0335551  -0.0135645
   19  -0.0001523   0.0000169  -0.0001325  -0.0115891   0.0005121  -0.0071281
   20   0.0015691   0.0006233   0.0003979  -0.0029867  -0.0014481  -0.0027757
   21  -0.0010017   0.0002242   0.0008037   0.0197993  -0.0035197   0.0091331
   22   0.0000123   0.0001000   0.0002639  -0.0056589   0.0044161  -0.0036237
   23   0.0000854   0.0000886  -0.0000510  -0.0040245   0.0009913  -0.0012869
   24  -0.0001040   0.0006072   0.0010988   0.0067145  -0.0190048   0.0056567
   25   0.0006175   0.0004032   0.0001574  -0.0003059   0.0012710  -0.0001171
   26   0.0000595   0.0008820   0.0011927  -0.0014346  -0.0007628   0.0023353
   27  -0.0002565  -0.0009365  -0.0002933  -0.0008915  -0.0009799  -0.0051342
   28   0.0005016  -0.0001071   0.0000372  -0.0056580  -0.0034139   0.0084551
   29   0.0012836   0.0009201  -0.0007494   0.0043434  -0.0026041  -0.0050329
   30  -0.0001721   0.0004618   0.0007095  -0.0120377  -0.0040335   0.0125660
   31   0.1466267  -0.1080965   0.0942975  -0.0010787  -0.0030316   0.0011153
   32  -0.1080965   0.1771172  -0.1192938  -0.0008848  -0.0016877  -0.0009387
   33   0.0942975  -0.1192938   0.1249269  -0.0002223   0.0015286  -0.0010217
   34  -0.0010787  -0.0008848  -0.0002223   0.3644365  -0.0553705  -0.0048871
   35  -0.0030316  -0.0016877   0.0015286  -0.0553705   0.2845922  -0.1512793
   36   0.0011153  -0.0009387  -0.0010217  -0.0048871  -0.1512793   0.7033570
   37   0.0006957  -0.0002128  -0.0011554  -0.0493722   0.0154277  -0.0167143
   38  -0.0004373   0.0001037   0.0008105   0.0145412  -0.0730121   0.1022434
   39  -0.0001373  -0.0003439   0.0000606  -0.0159384   0.1032861  -0.3095216
           37          38          39
    1   0.0038042   0.0079132   0.0012333
    2  -0.0048605  -0.0042909  -0.0031783
    3   0.0182151   0.0104517  -0.0029205
    4  -0.0032253  -0.0045186  -0.0001936
    5  -0.0039576   0.0122352   0.0094569
    6   0.0025065  -0.0134918  -0.0082749
    7  -0.0019430   0.0006448  -0.0009878
    8  -0.0033614  -0.0026624  -0.0005469
    9  -0.0017603  -0.0015228  -0.0030008
   10   0.0080534  -0.0064372   0.0008570
   11   0.0047478  -0.0033331  -0.0025363
   12  -0.0164174   0.0033809  -0.0006123
   13   0.0005471   0.0026889   0.0013351
   14   0.0023990   0.0004779   0.0003677
   15   0.0011682   0.0037321   0.0003395
   16  -0.0037878  -0.0022473  -0.0013131
   17   0.0011987  -0.0016805  -0.0001711
   18   0.0005884   0.0018337   0.0002576
   19   0.0010749   0.0005900   0.0003651
   20  -0.0002856   0.0007659   0.0004486
   21  -0.0016246  -0.0012289   0.0003460
   22   0.0009521  -0.0007085  -0.0006688
   23   0.0002493   0.0005135  -0.0005431
   24   0.0000268   0.0019529   0.0018685
   25   0.0003650  -0.0008723   0.0000385
   26   0.0001249   0.0003236   0.0007886
   27  -0.0012029  -0.0005417  -0.0005415
   28   0.0004839  -0.0000616  -0.0002434
   29  -0.0003743   0.0008472   0.0004397
   30   0.0007167  -0.0001518   0.0004402
   31   0.0006957  -0.0004373  -0.0001373
   32  -0.0002128   0.0001037  -0.0003439
   33  -0.0011554   0.0008105   0.0000606
   34  -0.0493722   0.0145412  -0.0159384
   35   0.0154277  -0.0730121   0.1032861
   36  -0.0167143   0.1022434  -0.3095216
   37   0.0423519  -0.0110953   0.0156532
   38  -0.0110953   0.0697119  -0.1074682
   39   0.0156532  -0.1074682   0.3215593
 Gradient time:  CPU 255.06 s  wall 276.67 s
 **********************************************************************
 **                                                                  **
 **                       VIBRATIONAL ANALYSIS                       **
 **                       --------------------                       **
 **                                                                  **
 **        VIBRATIONAL FREQUENCIES (CM**-1) AND NORMAL MODES         **
 **     FORCE CONSTANTS (mDYN/ANGSTROM) AND REDUCED MASSES (AMU)     **
 **                  INFRARED INTENSITIES (KM/MOL)                   **
 **                                                                  **
 **********************************************************************
 

 Mode:                 1                      2                      3
 Frequency:      -553.20                 466.31                 572.43
 Force Cnst:      1.6366                 0.7345                 0.5966
 Red. Mass:       9.0770                 5.7330                 3.0902
 IR Active:          YES                    YES                    YES
 IR Intens:        8.915                  2.939                  1.776
 Raman Active:       YES                    YES                    YES
               X      Y      Z        X      Y      Z        X      Y      Z
 C          0.058  0.015  0.012    0.042 -0.020 -0.104   -0.063  0.105  0.210
 C         -0.026  0.061  0.039   -0.079 -0.058 -0.061    0.074  0.122 -0.135
 C          0.058  0.524 -0.083   -0.149 -0.207  0.060   -0.131 -0.063  0.098
 C         -0.060 -0.037  0.207    0.054  0.069 -0.069    0.031  0.057  0.059
 C         -0.098 -0.504 -0.335    0.088 -0.078 -0.230    0.071 -0.015 -0.104
 N          0.055 -0.010  0.091   -0.038  0.214  0.395    0.048 -0.032 -0.085
 H          0.045  0.028  0.045    0.064 -0.134 -0.182   -0.075  0.093  0.244
 H         -0.133  0.015 -0.040   -0.052 -0.059  0.015    0.215  0.242 -0.299
 H         -0.109  0.165  0.161   -0.329 -0.445  0.269   -0.281 -0.229  0.258
 H         -0.024  0.008  0.246    0.131  0.284  0.051    0.073  0.230  0.105
 H         -0.111 -0.275 -0.035    0.113 -0.026 -0.188    0.078 -0.077 -0.183
 C          0.019 -0.041  0.020    0.089  0.068 -0.052   -0.028 -0.153 -0.028
 H          0.167  0.000  0.025    0.070  0.106 -0.036   -0.120 -0.449 -0.129
 TransDip   0.092  0.026  0.002    0.023 -0.037 -0.033   -0.026 -0.010  0.032

 Mode:                 4                      5                      6
 Frequency:       661.07                 718.92                 745.01
 Force Cnst:      0.3494                 1.6276                 0.5766
 Red. Mass:       1.3571                 5.3448                 1.7631
 IR Active:          YES                    YES                    YES
 IR Intens:        4.253                  1.096                 12.550
 Raman Active:       YES                    YES                    YES
               X      Y      Z        X      Y      Z        X      Y      Z
 C          0.060  0.047  0.017    0.153 -0.075 -0.060   -0.123 -0.071  0.067
 C         -0.010  0.020 -0.010    0.119  0.313 -0.133    0.008 -0.017 -0.118
 C         -0.070 -0.070  0.034   -0.101 -0.045 -0.009   -0.010 -0.001  0.038
 C         -0.052  0.006  0.018   -0.203 -0.105 -0.039    0.011 -0.042  0.002
 C          0.024 -0.072  0.028    0.008 -0.107  0.129    0.015  0.005 -0.043
 N          0.005  0.010  0.005    0.098 -0.182  0.069   -0.006 -0.037  0.018
 H          0.056  0.071  0.036    0.119 -0.193  0.035   -0.133 -0.168  0.076
 H         -0.126 -0.086  0.177   -0.074  0.161  0.074    0.214  0.176 -0.471
 H          0.336  0.604 -0.501   -0.134 -0.540  0.208    0.101  0.377 -0.181
 H          0.021  0.187  0.151   -0.221 -0.096 -0.082    0.006 -0.140  0.020
 H          0.027 -0.223 -0.157    0.188  0.102  0.215    0.064 -0.055 -0.166
 C          0.018  0.025 -0.058   -0.074  0.276  0.001    0.069  0.110  0.075
 H         -0.036 -0.161 -0.126   -0.071  0.034 -0.095    0.188  0.509  0.216
 TransDip   0.029  0.032 -0.050    0.019 -0.023  0.014    0.045  0.088 -0.056

 Mode:                 7                      8                      9
 Frequency:       758.43                 787.82                 806.62
 Force Cnst:      1.5210                 1.4715                 0.8911
 Red. Mass:       4.4879                 4.0240                 2.3245
 IR Active:          YES                    YES                    YES
 IR Intens:        9.735                 15.463                 10.404
 Raman Active:       YES                    YES                    YES
               X      Y      Z        X      Y      Z        X      Y      Z
 C         -0.015 -0.158 -0.232    0.041 -0.040  0.130   -0.020  0.032 -0.032
 C          0.197  0.052 -0.037    0.137 -0.126 -0.092    0.066 -0.112 -0.023
 C          0.167  0.006  0.237    0.034  0.035 -0.020   -0.032  0.032  0.081
 C         -0.107  0.212  0.062    0.087  0.214 -0.007   -0.090 -0.107  0.053
 C         -0.035  0.015 -0.021   -0.154  0.008  0.020    0.057  0.017  0.044
 N         -0.061  0.007  0.045   -0.150 -0.192  0.073    0.115  0.123 -0.034
 H         -0.063 -0.078 -0.083   -0.054  0.312  0.461   -0.215  0.132  0.540
 H          0.178  0.080 -0.230   -0.146 -0.368  0.269   -0.153 -0.271  0.102
 H          0.415  0.079  0.055   -0.180 -0.026  0.139   -0.200 -0.036  0.214
 H         -0.212  0.143 -0.172    0.156  0.050  0.209   -0.101 -0.248  0.075
 H          0.059 -0.262 -0.464   -0.027  0.095 -0.003    0.060 -0.118 -0.123
 C         -0.160 -0.125  0.011    0.056  0.115 -0.194   -0.078  0.002 -0.150
 H         -0.089 -0.062  0.029   -0.053  0.176 -0.172    0.177  0.440 -0.009
 TransDip   0.032 -0.037 -0.087    0.010  0.083  0.094   -0.058 -0.043  0.074

 Mode:                10                     11                     12
 Frequency:       845.75                 889.48                 909.78
 Force Cnst:      0.7707                 0.8768                 0.6371
 Red. Mass:       1.8287                 1.8809                 1.3063
 IR Active:          YES                    YES                    YES
 IR Intens:        7.549                 21.585                  6.321
 Raman Active:       YES                    YES                    YES
               X      Y      Z        X      Y      Z        X      Y      Z
 C         -0.057 -0.016 -0.048    0.040  0.125 -0.041   -0.037 -0.040  0.036
 C          0.060 -0.001  0.005   -0.010 -0.029  0.077   -0.015  0.012 -0.066
 C         -0.025 -0.049 -0.074   -0.048 -0.015 -0.007    0.055 -0.024  0.043
 C          0.107  0.048  0.028   -0.113  0.056 -0.031   -0.040  0.018 -0.006
 C          0.015 -0.127  0.073    0.013 -0.003 -0.008    0.010 -0.032 -0.030
 N          0.025  0.054 -0.021    0.011 -0.114  0.049   -0.006  0.050 -0.036
 H         -0.108 -0.066  0.084    0.018  0.226  0.043   -0.103  0.037  0.233
 H          0.287  0.140 -0.058    0.304  0.207 -0.196   -0.438 -0.233 -0.050
 H          0.017 -0.001 -0.124    0.058  0.017 -0.090    0.295 -0.166 -0.050
 H          0.221  0.432  0.172   -0.160  0.189 -0.176   -0.100  0.279 -0.235
 H         -0.239  0.027  0.527    0.130  0.301  0.245   -0.166  0.215  0.449
 C         -0.124  0.009 -0.019    0.033 -0.112 -0.042    0.050  0.009  0.039
 H         -0.234  0.341  0.106    0.513  0.384  0.117    0.319 -0.145 -0.032
 TransDip   0.008  0.070  0.053    0.080  0.126  0.001   -0.045 -0.016  0.065

 Mode:                13                     14                     15
 Frequency:       929.72                 971.08                 974.63
 Force Cnst:      0.9020                 0.9538                 0.8152
 Red. Mass:       1.7711                 1.7166                 1.4566
 IR Active:          YES                    YES                    YES
 IR Intens:        0.045                  1.324                  3.815
 Raman Active:       YES                    YES                    YES
               X      Y      Z        X      Y      Z        X      Y      Z
 C          0.018  0.037  0.042   -0.080 -0.052 -0.052   -0.014  0.022 -0.007
 C         -0.113 -0.006 -0.028    0.066  0.106  0.014   -0.088  0.049  0.012
 C          0.067 -0.002 -0.059   -0.057  0.016 -0.111    0.067 -0.033 -0.004
 C         -0.016  0.070 -0.035    0.049 -0.046  0.023    0.007 -0.024  0.086
 C         -0.017 -0.078  0.169    0.022  0.062 -0.001   -0.004  0.054 -0.053
 N          0.011  0.025 -0.015   -0.033 -0.030  0.020    0.013 -0.040  0.020
 H          0.023 -0.031  0.020   -0.158  0.074  0.177   -0.035 -0.047  0.031
 H         -0.120  0.058 -0.326   -0.146 -0.116  0.491   -0.130  0.065 -0.145
 H          0.035 -0.374  0.113   -0.038 -0.074 -0.095    0.514 -0.393 -0.144
 H         -0.016  0.271 -0.099    0.137  0.345  0.112    0.201 -0.132  0.605
 H          0.006 -0.571 -0.442    0.095 -0.158 -0.347    0.089  0.151 -0.035
 C          0.043 -0.009 -0.014    0.004 -0.066  0.067   -0.036 -0.002 -0.080
 H          0.131  0.164  0.048    0.508  0.102  0.096   -0.025  0.127 -0.039
 TransDip   0.007  0.001  0.001    0.010  0.034 -0.010    0.057  0.026  0.003

 Mode:                16                     17                     18
 Frequency:      1002.24                1040.70                1050.89
 Force Cnst:      0.9825                 0.9179                 1.6162
 Red. Mass:       1.6601                 1.4384                 2.4840
 IR Active:          YES                    YES                    YES
 IR Intens:        1.820                  2.075                  1.214
 Raman Active:       YES                    YES                    YES
               X      Y      Z        X      Y      Z        X      Y      Z
 C         -0.143 -0.027  0.012    0.036 -0.028 -0.069   -0.122  0.090 -0.140
 C          0.003 -0.051  0.029    0.002 -0.080  0.041   -0.127  0.071  0.005
 C          0.040  0.003 -0.022   -0.002  0.039 -0.020    0.062 -0.021  0.061
 C         -0.090  0.046  0.024   -0.041 -0.086  0.002    0.166  0.013  0.006
 C         -0.004 -0.018  0.028    0.022  0.046 -0.007    0.085 -0.078  0.042
 N          0.053  0.021 -0.004   -0.034 -0.011  0.003   -0.004 -0.097  0.052
 H         -0.116 -0.330 -0.133   -0.107  0.351  0.408   -0.300  0.320  0.364
 H          0.521  0.185  0.344    0.190  0.114 -0.394   -0.070  0.117  0.017
 H          0.015 -0.095  0.030   -0.018 -0.049  0.021   -0.093  0.209  0.085
 H         -0.051  0.039  0.134    0.091  0.473  0.152   -0.023 -0.417 -0.363
 H          0.022  0.004  0.028    0.059  0.013 -0.089    0.075 -0.086  0.064
 C          0.073  0.074 -0.078    0.019  0.079  0.049   -0.034  0.053 -0.032
 H          0.306 -0.416 -0.278   -0.178 -0.378 -0.106    0.117 -0.306 -0.184
 TransDip   0.010 -0.031  0.028    0.007  0.044 -0.012   -0.029 -0.015 -0.012

 Mode:                19                     20                     21
 Frequency:      1057.32                1144.18                1211.24
 Force Cnst:      1.2579                 1.7765                 1.1478
 Red. Mass:       1.9098                 2.3032                 1.3278
 IR Active:          YES                    YES                    YES
 IR Intens:        1.816                  0.058                  0.179
 Raman Active:       YES                    YES                    YES
               X      Y      Z        X      Y      Z        X      Y      Z
 C          0.108 -0.119 -0.004   -0.065  0.058 -0.045   -0.005  0.016  0.011
 C         -0.031  0.053  0.069    0.055 -0.096 -0.105    0.045  0.011  0.053
 C         -0.079 -0.051 -0.065   -0.030 -0.044 -0.135    0.069 -0.062 -0.029
 C          0.017  0.107 -0.011   -0.071  0.123  0.092   -0.026  0.027 -0.060
 C         -0.101 -0.001 -0.023    0.034 -0.051  0.030   -0.014 -0.020  0.001
 N          0.042  0.074 -0.027    0.055  0.020  0.005    0.013  0.007  0.000
 H         -0.118 -0.077  0.668    0.005  0.555 -0.167    0.043 -0.058 -0.137
 H          0.174  0.211 -0.117   -0.062 -0.210  0.031   -0.292 -0.093 -0.376
 H          0.033 -0.015 -0.159    0.072 -0.194 -0.164   -0.395  0.307  0.120
 H         -0.055 -0.522  0.022   -0.128 -0.418  0.163    0.160 -0.059  0.430
 H         -0.141 -0.026 -0.021    0.339  0.137 -0.051    0.045  0.049  0.026
 C          0.031 -0.029  0.032    0.011  0.009  0.162   -0.085  0.022  0.026
 H          0.175 -0.107 -0.003   -0.194 -0.131  0.141    0.437 -0.177 -0.078
 TransDip   0.020 -0.031  0.023   -0.003  0.002  0.007    0.003 -0.009  0.009

 Mode:                22                     23                     24
 Frequency:      1238.80                1255.11                1284.91
 Force Cnst:      1.8651                 1.9629                 2.5287
 Red. Mass:       2.0628                 2.1148                 2.5996
 IR Active:          YES                    YES                    YES
 IR Intens:        1.430                  5.286                  7.689
 Raman Active:       YES                    YES                    YES
               X      Y      Z        X      Y      Z        X      Y      Z
 C          0.075 -0.026  0.032   -0.101  0.008 -0.056   -0.059 -0.097  0.051
 C         -0.037  0.012 -0.005    0.040  0.069  0.077    0.111  0.005  0.159
 C          0.060 -0.040 -0.066   -0.012  0.030  0.050   -0.160  0.088 -0.003
 C         -0.003 -0.001  0.141   -0.042  0.017 -0.148    0.037  0.024 -0.024
 C          0.093 -0.053  0.015   -0.017 -0.077  0.054    0.166 -0.031  0.036
 N         -0.171  0.060 -0.064   -0.008  0.016 -0.020   -0.108  0.024 -0.018
 H          0.023 -0.333  0.150   -0.219 -0.221  0.210    0.094  0.234 -0.351
 H          0.065  0.069  0.019   -0.243 -0.066 -0.028   -0.175 -0.037 -0.444
 H         -0.188  0.105  0.029   -0.041  0.044  0.070    0.311 -0.317 -0.155
 H         -0.135  0.043 -0.197    0.132 -0.007  0.294   -0.040 -0.326 -0.115
 H          0.709  0.380 -0.081    0.460  0.269  0.001    0.007 -0.168  0.058
 C         -0.033  0.010 -0.034    0.177 -0.078 -0.009   -0.001  0.041 -0.099
 H          0.052  0.069 -0.022   -0.526  0.103  0.105    0.180 -0.076 -0.171
 TransDip   0.038  0.005  0.001   -0.043 -0.029  0.053   -0.006 -0.057 -0.068

 Mode:                25                     26                     27
 Frequency:      1297.50                1344.27                1376.08
 Force Cnst:      1.8443                 2.4965                 2.1399
 Red. Mass:       1.8594                 2.3448                 1.9180
 IR Active:          YES                    YES                    YES
 IR Intens:        6.812                  6.638                  0.519
 Raman Active:       YES                    YES                    YES
               X      Y      Z        X      Y      Z        X      Y      Z
 C          0.034 -0.117  0.037   -0.055 -0.064  0.000   -0.046 -0.119  0.047
 C         -0.100  0.043 -0.067    0.004  0.093  0.079   -0.024  0.048  0.041
 C          0.058  0.021  0.057    0.086 -0.098 -0.110    0.009 -0.039  0.021
 C         -0.062  0.012 -0.103   -0.105  0.021  0.148    0.060 -0.046  0.028
 C          0.112 -0.030  0.014    0.078  0.062 -0.052   -0.165 -0.026  0.012
 N         -0.068  0.032 -0.036    0.013 -0.028  0.022    0.110  0.050 -0.001
 H          0.108  0.600 -0.048   -0.036  0.199 -0.031    0.110  0.618 -0.286
 H          0.280  0.185  0.359   -0.213  0.031 -0.146   -0.013  0.091 -0.071
 H         -0.093  0.069  0.151   -0.406  0.222  0.059   -0.017  0.081 -0.003
 H          0.128 -0.118  0.415   -0.225  0.040 -0.102   -0.013  0.213 -0.257
 H         -0.062 -0.062  0.165   -0.464 -0.243  0.119    0.413  0.318 -0.175
 C         -0.001 -0.037  0.009    0.124 -0.019 -0.084   -0.005  0.008 -0.076
 H          0.082  0.148  0.074   -0.405  0.189  0.016    0.035  0.055 -0.077
 TransDip   0.023  0.027  0.076   -0.077  0.030  0.000    0.010  0.011 -0.018

 Mode:                28                     29                     30
 Frequency:      3185.39                3210.20                3219.05
 Force Cnst:      6.5283                 6.6346                 6.6608
 Red. Mass:       1.0920                 1.0927                 1.0910
 IR Active:          YES                    YES                    YES
 IR Intens:       14.620                 15.240                 10.114
 Raman Active:       YES                    YES                    YES
               X      Y      Z        X      Y      Z        X      Y      Z
 C          0.001 -0.000  0.000    0.022 -0.003  0.008   -0.067  0.004 -0.024
 C          0.002 -0.003 -0.000    0.009 -0.013 -0.001    0.023 -0.039 -0.007
 C          0.004  0.001  0.005    0.000  0.001  0.002    0.004  0.004  0.007
 C         -0.079  0.011  0.032    0.015 -0.003 -0.004    0.003 -0.000 -0.001
 C          0.005 -0.003  0.004   -0.002  0.001 -0.001   -0.006  0.008 -0.006
 N          0.000  0.000 -0.000   -0.000  0.000  0.000    0.001 -0.000  0.000
 H         -0.006  0.001 -0.003   -0.254  0.015 -0.091    0.772 -0.044  0.270
 H         -0.020  0.034  0.007   -0.097  0.169  0.035   -0.261  0.447  0.095
 H         -0.048 -0.028 -0.074   -0.007 -0.005 -0.014   -0.051 -0.034 -0.083
 H          0.895 -0.118 -0.360   -0.162  0.022  0.062   -0.030  0.004  0.013
 H         -0.046  0.052 -0.043    0.017 -0.021  0.016    0.078 -0.092  0.077
 C          0.001  0.005 -0.014   -0.006  0.029 -0.076   -0.000  0.004 -0.009
 H          0.008 -0.060  0.166    0.055 -0.319  0.862    0.006 -0.041  0.107
 TransDip  -0.111  0.016  0.050    0.061  0.014 -0.108   -0.073 -0.034 -0.062

 Mode:                31                     32                     33
 Frequency:      3227.38                3230.11                3249.00
 Force Cnst:      6.7042                 6.7382                 6.8262
 Red. Mass:       1.0924                 1.0961                 1.0976
 IR Active:          YES                    YES                    YES
 IR Intens:       18.222                 11.985                  5.892
 Raman Active:       YES                    YES                    YES
               X      Y      Z        X      Y      Z        X      Y      Z
 C          0.004  0.001  0.001    0.042 -0.001  0.014    0.005  0.000  0.001
 C          0.015 -0.026 -0.006    0.030 -0.054 -0.012    0.014 -0.020 -0.003
 C         -0.003  0.001 -0.002    0.011  0.008  0.018   -0.044 -0.026 -0.068
 C          0.006 -0.000 -0.004   -0.003  0.000 -0.000   -0.009  0.002  0.006
 C          0.045 -0.053  0.043   -0.016  0.018 -0.014   -0.005  0.007 -0.006
 N         -0.001 -0.000 -0.000    0.000  0.001 -0.000    0.000  0.001  0.000
 H         -0.050  0.001 -0.018   -0.465  0.024 -0.163   -0.050  0.002 -0.018
 H         -0.171  0.297  0.061   -0.343  0.598  0.126   -0.125  0.212  0.043
 H          0.013  0.005  0.020   -0.136 -0.086 -0.214    0.488  0.303  0.757
 H         -0.070  0.006  0.029    0.021 -0.002 -0.008    0.085 -0.012 -0.034
 H         -0.503  0.600 -0.493    0.167 -0.198  0.164    0.063 -0.078  0.062
 C         -0.000 -0.002  0.006    0.000 -0.009  0.028    0.000 -0.001  0.004
 H         -0.004  0.025 -0.068   -0.017  0.106 -0.283   -0.004  0.012 -0.035
 TransDip   0.076 -0.105  0.042    0.088 -0.053  0.042   -0.032 -0.018 -0.068

 STANDARD THERMODYNAMIC QUANTITIES AT   298.15 K  AND     1.00 ATM

   This Molecule has  1 Imaginary Frequencies
   Zero point vibrational energy:       63.847 kcal/mol

   Atom    1 Element C  Has Mass   12.00000
   Atom    2 Element C  Has Mass   12.00000
   Atom    3 Element C  Has Mass   12.00000
   Atom    4 Element C  Has Mass   12.00000
   Atom    5 Element C  Has Mass   12.00000
   Atom    6 Element N  Has Mass   14.00307
   Atom    7 Element H  Has Mass    1.00783
   Atom    8 Element H  Has Mass    1.00783
   Atom    9 Element H  Has Mass    1.00783
   Atom   10 Element H  Has Mass    1.00783
   Atom   11 Element H  Has Mass    1.00783
   Atom   12 Element C  Has Mass   12.00000
   Atom   13 Element H  Has Mass    1.00783
   Molecular Mass:    92.050050 amu
   Principal axes and moments of inertia in amu*Bohr^2:
                             1           2           3
    Eigenvalues --      386.53278   398.45949   531.49697
          X              -0.18054     0.94285    -0.28008
          Y               0.90830     0.26907     0.32030
          Z              -0.37736     0.19657     0.90496
   Rotational Symmetry Number is   1
   The Molecule is an Asymmetric Top
   Translational Enthalpy:        0.889 kcal/mol
   Rotational Enthalpy:           0.889 kcal/mol
   Vibrational Enthalpy:         64.815 kcal/mol
   gas constant (RT):             0.592 kcal/mol
   Translational Entropy:        39.471  cal/mol.K
   Rotational Entropy:           25.907  cal/mol.K
   Vibrational Entropy:           4.175  cal/mol.K

   Total Enthalpy:               67.185 kcal/mol
   Total Entropy:                69.553  cal/mol.K
Archival summary:
1\1\c8-66\FREQ\ProcedureUnspecified\6-31G*\166(2)\hpark21\TueMar123:22:082022TueMar123:22:082022\0\\#,FREQ,ProcedureUnspecified,6-31G*,\\0,2\N\C,1,1.35163\H,2,1.08471,1,120.886\C,1,1.42653,2,103.678,3,-175.314,0\H,4,1.08468,1,118.77,2,-174.474,0\C,2,1.52728,1,114.382,3,-164.183,0\H,6,1.08668,2,121.865,1,142.424,0\C,6,1.48274,2,72.3665,1,-93.2158,0\H,8,1.08274,6,133.029,2,-102.232,0\C,8,1.52674,6,91.7655,2,99.272,0\H,10,1.08387,8,128.351,6,149.276,0\C,10,1.52299,8,88.95,6,4.43611,0\H,12,1.08509,10,130.629,8,139.285,0\\\@

 Total job time:  291.09s(wall), 258.64s(cpu) 
 Tue Mar  1 23:22:08 2022

        *************************************************************
        *                                                           *
        *  Thank you very much for using Q-Chem.  Have a nice day.  *
        *                                                           *
        *************************************************************


