
Running Job 1 of 1 qcts2.in
qchem qcts2.in_29251.0 ./qcts2.d/ 1
/home/leeping/opt/qchem/5.0.2-openmp/exe/qcprog.exe_s qcts2.in_29251.0 ./qcts2.d/
Check license passed

                  Welcome to Q-Chem
     A Quantum Leap Into The Future Of Chemistry


 Q-Chem 5.0, Q-Chem, Inc., Pleasanton, CA (2017)

 Yihan Shao,  Zhengting Gan,  E. Epifanovsky,  A. T. B. Gilbert,  M. Wormit,  
 J. Kussmann,  A. W. Lange,  A. Behn,  Jia Deng,  Xintian Feng,  D. Ghosh,  
 M. Goldey,  P. R. Horn,  L. D. Jacobson,  I. Kaliman,  T. Kus,  A. Landau,  
 Jie Liu,  E. I. Proynov,  R. M. Richard,  R. P. Steele,  E. J. Sundstrom,  
 H. L. Woodcock III,  P. M. Zimmerman,  D. Zuev,  B. Albrecht,  E. Alguire,  
 S. A. Baeppler,  D. Barton,  Z. Benda,  Y. A. Bernard,  E. J. Berquist,  
 K. B. Bravaya,  H. Burton,  D. Casanova,  Chun-Min Chang,  Yunqing Chen,  
 A. Chien,  K. D. Closser,  M. P. Coons,  S. Dasgupta,  A. L. Dempwolff,  
 M. Diedenhofen,  Hainam Do,  R. G. Edgar,  Po-Tung Fang,  S. Fatehi,  
 Qingguo Feng,  J. Fosso-Tande,  Qinghui Ge,  A. Ghysels,  G. Gidofalvi,  
 J. Gomes,  J. Gonthier,  A. Gunina,  M. W. D. Hanson-Heine,  
 P. H. P. Harbach,  A. W. Hauser,  J. E. Herr,  E. G. Hohenstein,  
 Z. C. Holden,  Kerwin Hui,  T.-C. Jagau,  Hyunjun Ji,  B. Kaduk,  
 K. Khistyaev,  Jaehoon Kim,  P. Klunzinger,  K. Koh,  D. Kosenkov,  
 L. Koulias,  T. Kowalczyk,  C. M. Krauter,  A. Kunitsa,  Ka Un Lao,  
 A. Laurent,  K. V. Lawler,  Joonho Lee,  D. Lefrancois,  S. Lehtola,  
 D. S. Levine,  Yi-Pei Li,  You-Sheng Lin,  Fenglai Liu,  E. Livshits,  
 A. Luenser,  P. Manohar,  E. Mansoor,  S. F. Manzer,  Shan-Ping Mao,  
 Yuezhi Mao,  N. Mardirossian,  A. V. Marenich,  T. Markovich,  
 L. A. Martinez-Martinez,  S. A. Maurer,  N. J. Mayhall,  S. C. McKenzie,  
 J.-M. Mewes,  A. F. Morrison,  J. W. Mullinax,  K. Nanda,  
 T. S. Nguyen-Beck,  R. Olivares-Amaya,  J. A. Parkhill,  T. M. Perrine,  
 F. Plasser,  S. Prager,  A. Prociuk,  E. Ramos,  D. R. Rehn,  F. Rob,  
 M. Schneider,  N. Sergueev,  S. M. Sharada,  S. Sharma,  D. W. Small,  
 T. Stauch,  T. Stein,  Yu-Chuan Su,  A. J. W. Thom,  A. Tkatchenko,  
 T. Tsuchimochi,  L. Vogt,  O. Vydrov,  M. A. Watson,  J. Wenzel,  
 M. de Wergifosse,  T. A. Wesolowski,  A. White,  J. Witte,  A. Yamada,  
 Jun Yang,  K. Yao,  S. Yeganeh,  S. R. Yost,  Zhi-Qiang You,  A. Zech,  
 Igor Ying Zhang,  Xing Zhang,  Yan Zhao,  Ying Zhu,  B. R. Brooks,  
 G. K. L. Chan,  C. J. Cramer,  M. S. Gordon,  W. J. Hehre,  A. Klamt,  
 M. W. Schmidt,  C. D. Sherrill,  D. G. Truhlar,  A. Aspuru-Guzik,  R. Baer,  
 A. T. Bell,  N. A. Besley,  Jeng-Da Chai,  R. A. DiStasio Jr.,  A. Dreuw,  
 B. D. Dunietz,  T. R. Furlani,  Chao-Ping Hsu,  Yousung Jung,  Jing Kong,  
 D. S. Lambrecht,  WanZhen Liang,  C. Ochsenfeld,  V. A. Rassolov,  
 L. V. Slipchenko,  J. E. Subotnik,  T. Van Voorhis,  J. M. Herbert,  
 A. I. Krylov,  P. M. W. Gill,  M. Head-Gordon

 Contributors to earlier versions of Q-Chem not listed above: 
 R. D. Adamson,  B. Austin,  J. Baker,  G. J. O. Beran,  K. Brandhorst,  
 S. T. Brown,  E. F. C. Byrd,  A. K. Chakraborty,  C.-L. Cheng,  
 Siu Hung Chien,  D. M. Chipman,  D. L. Crittenden,  H. Dachsel,  
 R. J. Doerksen,  A. D. Dutoi,  L. Fusti-Molnar,  W. A. Goddard III,  
 A. Golubeva-Zadorozhnaya,  S. R. Gwaltney,  G. Hawkins,  A. Heyden,  
 S. Hirata,  G. Kedziora,  F. J. Keil,  C. Kelley,  Jihan Kim,  R. A. King,  
 R. Z. Khaliullin,  P. P. Korambath,  W. Kurlancheek,  A. M. Lee,  M. S. Lee,  
 S. V. Levchenko,  Ching Yeh Lin,  D. Liotard,  R. C. Lochan,  I. Lotan,  
 P. E. Maslen,  N. Nair,  D. P. O'Neill,  D. Neuhauser,  E. Neuscamman,  
 C. M. Oana,  R. Olson,  B. Peters,  R. Peverati,  P. A. Pieniazek,  
 Y. M. Rhee,  J. Ritchie,  M. A. Rohrdanz,  E. Rosta,  N. J. Russ,  
 H. F. Schaefer III,  N. E. Schultz,  N. Shenvi,  A. C. Simmonett,  A. Sodt,  
 D. Stuck,  K. S. Thanthiriwatte,  V. Vanovschi,  Tao Wang,  A. Warshel,  
 C. F. Williams,  Q. Wu,  X. Xu,  W. Zhang

 Please cite Q-Chem as follows:
 Y. Shao et al., Mol. Phys. 113, 184-215 (2015)
 DOI: 10.1080/00268976.2014.952696

 Q-Chem 5.0.2 for Intel X86 EM64T Linux

 Parts of Q-Chem use Armadillo 5.200.1 (Boston Tea Smuggler).
 http://arma.sourceforge.net/

 Q-Chem begins on Tue Mar  1 23:56:27 2022  

Host: 
0

     Scratch files written to ./qcts2.d//
 Dec517 15110_ 26548  26544 5633   
Processing $rem in /home/leeping/opt/qchem/5.0.2-openmp/config/preferences.
 MEM_STATIC 2000
 MEM_TOTAL  8000
 SYMMETRY   OFF
 SYM_IGNORE TRUE 

Checking the input file for inconsistencies... 	...done.

--------------------------------------------------------------
User input:
--------------------------------------------------------------
$molecule
0 2
C        1.2897813078    0.2365843081    0.3046608651
C        0.6022800866   -1.0313113809   -0.2161487671
C       -0.6814688622   -0.5450019142   -0.8645725162
C       -1.0801803236    0.1987930322    0.3551945278
C       -0.4500219536    1.2564655280   -0.5404939339
N        0.8689881588    1.4208697518   -0.3825182323
H        2.3124881155    0.1797725177    0.6592332121
H        1.1302823028   -1.9576851706   -0.4085986238
H       -1.2210848619   -0.8571364061   -1.7489475600
H       -2.0791973871    0.3240444017    0.7647524653
H       -1.0447351872    1.9343674916   -1.1419582566
C        0.1502496127   -0.3969094926    1.0990749717
H        0.1986192025   -0.7667156385    2.1170324934
$end

$rem
method                b3lyp
basis                 6-31+g(d,p)
unrestricted          true
symmetry              off
sym_ignore            true
incdft                false
incfock               0
scf_convergence       8
thresh                14
jobtype               freq
scf_guess             read
scf_algorithm         diis
max_scf_cycles        100
$end

--------------------------------------------------------------
 ----------------------------------------------------------------
             Standard Nuclear Orientation (Angstroms)
    I     Atom           X                Y                Z
 ----------------------------------------------------------------
    1      C       1.2897813078     0.2365843081     0.3046608651
    2      C       0.6022800866    -1.0313113809    -0.2161487671
    3      C      -0.6814688622    -0.5450019142    -0.8645725162
    4      C      -1.0801803236     0.1987930322     0.3551945278
    5      C      -0.4500219536     1.2564655280    -0.5404939339
    6      N       0.8689881588     1.4208697518    -0.3825182323
    7      H       2.3124881155     0.1797725177     0.6592332121
    8      H       1.1302823028    -1.9576851706    -0.4085986238
    9      H      -1.2210848619    -0.8571364061    -1.7489475600
   10      H      -2.0791973871     0.3240444017     0.7647524653
   11      H      -1.0447351872     1.9343674916    -1.1419582566
   12      C       0.1502496127    -0.3969094926     1.0990749717
   13      H       0.1986192025    -0.7667156385     2.1170324934
 ----------------------------------------------------------------
 Nuclear Repulsion Energy =   286.3539148355 hartrees
 There are       25 alpha and       24 beta electrons
 Requested basis set is 6-31+G(d,p)
 There are 53 shells and 163 basis functions

 Total QAlloc Memory Limit   8000 MB
 Mega-Array Size      1956 MB
 MEM_STATIC part      2000 MB

                       Distance Matrix (Angstroms)
             C (  1)   C (  2)   C (  3)   C (  4)   C (  5)   N (  6)
   C (  2)  1.533447
   C (  3)  2.421531  1.518210
   C (  4)  2.370802  2.161079  1.483251
   C (  5)  2.186632  2.538988  1.844961  1.522507
   N (  6)  1.432415  2.472247  2.549695  2.415978  1.338571
   H (  7)  1.083918  2.271085  3.436722  3.406318  3.198449  2.170083
   H (  8)  2.312790  1.083509  2.342227  3.181183  3.584065  3.388744
   H (  9)  3.423154  2.388403  1.082004  2.358443  2.553862  3.380066
   H ( 10)  3.401375  3.160614  2.315942  1.086950  2.286327  3.348291
   H ( 11)  3.228799  3.516395  2.521146  2.292366  1.083972  2.121972
   C ( 12)  1.526742  1.528598  2.137662  1.556335  2.404612  2.452759
   H ( 13)  2.341354  2.382580  3.116678  2.381514  3.402417  3.388610
             H (  7)   H (  8)   H (  9)   H ( 10)   H ( 11)   C ( 12)
   H (  8)  2.665821
   H (  9)  4.400074  2.921758
   H ( 10)  4.395321  4.108990  2.906928
   H ( 11)  4.194501  4.518472  2.862172  2.701629
   C ( 12)  2.280635  2.381085  3.194307  2.366850  3.447473
   H ( 13)  2.736688  2.943674  4.119410  2.864763  4.411666  1.084128

 
 A cutoff of  1.0D-14 yielded   1405 shell pairs
 There are     13517 function pairs
 Smallest overlap matrix eigenvalue = 1.84E-05
 Guess MOs from SCF MO coefficient file
 Reading MOs from coefficient file
 Reading MOs from coefficient file
 An unrestricted hybrid HF-DFT SCF calculation will be
 performed using Pulay DIIS extrapolation
 Exchange:     0.2000 Hartree-Fock + 0.0800 Slater + 0.7200 B88
 Correlation:  0.1900 VWN1RPA + 0.8100 LYP
 Using SG-1 standard quadrature grid
 SCF converges when DIIS error is below 1.0E-08
Using Q-Chem read-in guess as SCF_GUESS READ specified.

 -------------------------------------------------------
 OpenMP BLAS3 based DFT computing Module                
 -------------------------------------------------------
 ---------------------------------------
  Cycle       Energy         DIIS Error
 ---------------------------------------
    1    -286.8367411339      2.50E-10
    2    -286.8367411339      3.95E-10 Convergence criterion met
 ---------------------------------------
 <S^2> = 0.7705
 SCF time:  CPU 6.85 s  wall 13.19 s
 SCF   energy in the final basis set = -286.83674113
 Total energy in the final basis set = -286.83674113
 
 --------------------------------------------------------------
 
                    Orbital Energies (a.u.)
 --------------------------------------------------------------
 
 Alpha MOs
 -- Occupied --
-14.336 -10.230 -10.230 -10.225 -10.220 -10.216 -10.214  -0.990
 -0.853  -0.786  -0.664  -0.603  -0.582  -0.549  -0.537  -0.456
 -0.451  -0.418  -0.414  -0.387  -0.350  -0.293  -0.278  -0.256
 -0.202
 -- Virtual --
  0.001   0.015   0.016   0.020   0.037   0.043   0.058   0.060
  0.071   0.076   0.084   0.092   0.109   0.112   0.117   0.118
  0.125   0.137   0.148   0.160   0.162   0.174   0.180   0.187
  0.192   0.197   0.208   0.216   0.223   0.245   0.250   0.252
  0.263   0.270   0.285   0.295   0.305   0.320   0.338   0.344
  0.361   0.374   0.416   0.454   0.607   0.653   0.677   0.692
  0.710   0.730   0.740   0.746   0.760   0.775   0.785   0.789
  0.800   0.831   0.857   0.892   0.903   0.923   0.945   0.960
  0.979   1.017   1.038   1.053   1.085   1.100   1.138   1.198
  1.239   1.258   1.361   1.416   1.418   1.490   1.536   1.541
  1.581   1.610   1.633   1.674   1.699   1.779   1.813   1.881
  1.910   1.939   1.966   2.000   2.015   2.113   2.145   2.158
  2.186   2.248   2.291   2.331   2.353   2.360   2.374   2.394
  2.416   2.448   2.458   2.477   2.502   2.516   2.551   2.570
  2.598   2.625   2.635   2.674   2.696   2.723   2.766   2.790
  2.868   2.935   2.971   3.066   3.090   3.241   3.280   3.377
  3.482   3.561   3.781   4.166   4.456   4.509   4.540   4.610
  4.801   4.928
 
 Beta MOs
 -- Occupied --
-14.325 -10.232 -10.226 -10.222 -10.220 -10.215 -10.214  -0.980
 -0.837  -0.781  -0.654  -0.601  -0.577  -0.543  -0.532  -0.453
 -0.445  -0.411  -0.403  -0.378  -0.338  -0.287  -0.265  -0.241
 -- Virtual --
 -0.093   0.002   0.016   0.016   0.023   0.038   0.043   0.059
  0.068   0.072   0.082   0.086   0.095   0.111   0.114   0.118
  0.122   0.128   0.139   0.149   0.161   0.163   0.176   0.181
  0.189   0.193   0.198   0.209   0.219   0.226   0.247   0.254
  0.261   0.265   0.272   0.289   0.297   0.306   0.322   0.340
  0.345   0.363   0.380   0.421   0.459   0.609   0.657   0.687
  0.698   0.716   0.734   0.742   0.750   0.762   0.781   0.787
  0.791   0.802   0.837   0.861   0.893   0.907   0.925   0.946
  0.972   0.981   1.022   1.042   1.057   1.103   1.107   1.146
  1.200   1.244   1.261   1.363   1.421   1.428   1.507   1.540
  1.552   1.589   1.615   1.644   1.676   1.705   1.785   1.818
  1.885   1.914   1.943   1.974   2.007   2.020   2.117   2.154
  2.166   2.195   2.252   2.300   2.337   2.356   2.364   2.378
  2.397   2.422   2.453   2.461   2.482   2.504   2.518   2.557
  2.573   2.603   2.633   2.644   2.682   2.704   2.727   2.771
  2.798   2.870   2.939   2.974   3.069   3.093   3.242   3.280
  3.379   3.483   3.562   3.784   4.185   4.465   4.512   4.538
  4.610   4.807   4.932
 --------------------------------------------------------------
 
          Ground-State Mulliken Net Atomic Charges

     Atom                 Charge (a.u.)    Spin (a.u.)
  --------------------------------------------------------
      1 C                    -0.276016      -0.019286
      2 C                    -0.023923      -0.031984
      3 C                    -0.139743       0.561129
      4 C                     0.042662      -0.025399
      5 C                    -0.239056      -0.147526
      6 N                    -0.110874       0.576482
      7 H                     0.140788       0.000726
      8 H                     0.134597      -0.000699
      9 H                     0.140743      -0.023171
     10 H                     0.130696       0.012021
     11 H                     0.141073       0.003599
     12 C                    -0.071461       0.098596
     13 H                     0.130513      -0.004489
  --------------------------------------------------------
  Sum of atomic charges =     0.000000
  Sum of spin   charges =     1.000000

 -----------------------------------------------------------------
                    Cartesian Multipole Moments
 -----------------------------------------------------------------
    Charge (ESU x 10^10)
                 0.0000
    Dipole Moment (Debye)
         X      -1.6582      Y      -2.1447      Z       0.6747
       Tot       2.7937
    Quadrupole Moments (Debye-Ang)
        XX     -39.3103     XY      -4.9139     YY     -44.8772
        XZ       2.7597     YZ       0.7638     ZZ     -40.1337
    Octopole Moments (Debye-Ang^2)
       XXX     -11.3097    XXY      -8.5808    XYY      -9.5861
       YYY     -26.2278    XXZ       4.3112    XYZ       2.3770
       YYZ       0.1411    XZZ      -7.3348    YZZ      -8.9843
       ZZZ       6.7216
    Hexadecapole Moments (Debye-Ang^3)
      XXXX    -234.9961   XXXY      -9.6524   XXYY     -90.3693
      XYYY     -23.7848   YYYY    -272.8081   XXXZ      -9.1361
      XXYZ       8.5496   XYYZ       1.4009   YYYZ      18.5950
      XXZZ     -68.5314   XYZZ      -2.9123   YYZZ     -70.3444
      XZZZ      -9.5631   YZZZ      15.9956   ZZZZ    -167.2395
 -----------------------------------------------------------------
 Calculating MO derivatives via CPSCF
   1         3          39      0.271181    0.051181
   2         3          39      0.035554    0.006522
   3         3          39      0.004824    0.000982
   4         3          39      0.000530    0.000114
   5        28          14      0.000045    0.000012
   6        40           2      0.000002    0.000001
   7        42           0      0.000000    0.000000    Roots Converged
 Time for AOints: 19.5 s (CPU) 26.6 s (wall)
 ------------------------------------------------------------------------------
                     AOints        : Timing summary (seconds)
 ------------------------------------------------------------------------------
     job step          cpu (% of tot)      sys (% of tot)     wall (% of tot)
 ------------------------------------------------------------------------------
  cpscf_lag         0.1182E+03 (28.2)   0.4500E-04 (36.0)   0.1315E+03 (28.3)
  iterzp            0.2815E+03 (67.1)   0.7800E-04 (62.4)   0.3052E+03 (65.8)
  make_fx           0.0000E+00 ( 0.0)   0.0000E+00 ( 0.0)   0.0000E+00 ( 0.0)
  AOints            0.1952E+02 ( 4.7)   0.1000E-05 ( 0.8)   0.2657E+02 ( 5.7)
 ------------------------------------------------------------------------------
   Grand Totals     0.4196E+03          0.1250E-03          0.4639E+03
 ------------------------------------------------------------------------------
 Calculating analytic Hessian of the SCF energy
 Polarizability Matrix (a.u.)
            1           2           3
    1 -69.0717957  -2.5788485  -3.5524046
    2  -2.5788485 -69.8335321   1.5386689
    3  -3.5524046   1.5386689 -60.6028950
 
 Direct stationary perturbation theory relativistic correction:
 
 rels  =       0.069328033828
 relv  =      -0.343009473282
 rel2e =       0.160759142960
 E_rel =      -0.112922296495
 
 Hessian of the SCF Energy
            1           2           3           4           5           6
    1   0.7015002  -0.0139804   0.1622868  -0.0692836  -0.0445652  -0.0546397
    2  -0.0139804   0.3847326  -0.0794821  -0.0216354  -0.1295831  -0.0621952
    3   0.1622868  -0.0794821   0.2772874  -0.0206408  -0.0075881  -0.0367193
    4  -0.0692836  -0.0216354  -0.0206408   0.4203147  -0.2114548   0.0359807
    5  -0.0445652  -0.1295831  -0.0075881  -0.2114548   0.5929847   0.1215248
    6  -0.0546397  -0.0621952  -0.0367193   0.0359807   0.1215248   0.3269240
    7  -0.0239138  -0.0047225  -0.0209303  -0.1558020   0.0437012  -0.0704732
    8  -0.0188788   0.0032957  -0.0006036   0.0379087  -0.0816487  -0.0016887
    9  -0.0031031  -0.0080368  -0.0076802  -0.0442440   0.0127046  -0.0554446
   10  -0.0368425   0.0069344   0.0014424  -0.0404028   0.0284571   0.0171151
   11  -0.0071599   0.0046131   0.0004324   0.0442887  -0.0243016  -0.0131998
   12  -0.0083301  -0.0037910   0.0072012  -0.0000622  -0.0156076  -0.0260599
   13  -0.0358071   0.0229714  -0.0335194  -0.0003419   0.0130053   0.0092998
   14   0.0474987  -0.0203740  -0.0020490   0.0248354  -0.0121849   0.0291448
   15  -0.0215301   0.0219015  -0.0172150  -0.0066291  -0.0022089   0.0098738
   16  -0.1051951   0.0553463  -0.0237818  -0.0101628   0.0030911  -0.0138943
   17   0.0245438  -0.1394461   0.0507967  -0.0094328  -0.0395718   0.0152649
   18  -0.0297628   0.0523342  -0.0743714   0.0100591  -0.0049416   0.0042400
   19  -0.3139951   0.0117123  -0.0944915  -0.0014518   0.0004944   0.0016883
   20   0.0064877  -0.0479823   0.0090530  -0.0200139   0.0027228  -0.0060843
   21  -0.0929828   0.0113333  -0.0684678  -0.0151355   0.0023582  -0.0059808
   22   0.0106546  -0.0145048  -0.0008134  -0.1119949   0.1340495   0.0179468
   23   0.0115459  -0.0123366  -0.0025971   0.1347421  -0.2621889  -0.0472730
   24  -0.0017058  -0.0019570  -0.0042648   0.0160387  -0.0474310  -0.0553279
   25  -0.0026163   0.0015296  -0.0026986   0.0005045  -0.0128003  -0.0074763
   26   0.0002206  -0.0016073  -0.0023604   0.0039179   0.0073367   0.0060151
   27   0.0013353   0.0001013   0.0014282   0.0027374   0.0000692  -0.0009058
   28  -0.0020302   0.0011344   0.0000441  -0.0007491   0.0006627   0.0007207
   29  -0.0009506  -0.0027474   0.0013723   0.0042740  -0.0023474  -0.0029197
   30  -0.0039672   0.0014243  -0.0015048   0.0005704  -0.0000313  -0.0030913
   31  -0.0059668  -0.0015911  -0.0020573   0.0002259  -0.0005796   0.0008022
   32  -0.0010658   0.0016559   0.0022918   0.0011118   0.0004843   0.0017682
   33  -0.0004269   0.0004190   0.0027605   0.0013012  -0.0002936   0.0005897
   34  -0.1202256  -0.0395295   0.0174827  -0.0271323   0.0498592   0.0605733
   35  -0.0114235  -0.0367390   0.0209387   0.0160892  -0.0634622  -0.0261399
   36   0.0520382   0.0711183  -0.0758416   0.0202285  -0.0676909  -0.1499219
   37   0.0037213  -0.0036648   0.0176772  -0.0037240  -0.0039204   0.0023564
   38   0.0077276  -0.0034817   0.0097954  -0.0046309   0.0117601  -0.0142171
   39   0.0007882  -0.0031697  -0.0026122  -0.0002045   0.0091361  -0.0081760
            7           8           9          10          11          12
    1  -0.0239138  -0.0188788  -0.0031031  -0.0368425  -0.0071599  -0.0083301
    2  -0.0047225   0.0032957  -0.0080368   0.0069344   0.0046131  -0.0037910
    3  -0.0209303  -0.0006036  -0.0076802   0.0014424   0.0004324   0.0072012
    4  -0.1558020   0.0379087  -0.0442440  -0.0404028   0.0442887  -0.0000622
    5   0.0437012  -0.0816487   0.0127046   0.0284571  -0.0243016  -0.0156076
    6  -0.0704732  -0.0016887  -0.0554446   0.0171151  -0.0131998  -0.0260599
    7   0.4209705  -0.0405148   0.1839443  -0.0671819   0.0174262   0.0553811
    8  -0.0405148   0.1251320   0.1958656   0.0576038  -0.0522009  -0.1492798
    9   0.1839443   0.1958656   0.5704235   0.0417377  -0.0690186  -0.1791702
   10  -0.0671819   0.0576038   0.0417377   0.6628935  -0.0807892  -0.1421977
   11   0.0174262  -0.0522009  -0.0690186  -0.0807892   0.2869040   0.0171239
   12   0.0553811  -0.1492798  -0.1791702  -0.1421977   0.0171239   0.4509945
   13  -0.0134989   0.0712903  -0.0231909  -0.1010692  -0.0117482   0.0455077
   14   0.0159568   0.0799290  -0.0310140  -0.0504673  -0.0965292   0.1072993
   15  -0.0053976   0.0850866  -0.0130216   0.0036987   0.0293286  -0.0708217
   16  -0.0150604  -0.0985909   0.0060577  -0.0194930  -0.0299020  -0.0061869
   17  -0.0145613  -0.0199368   0.0016259  -0.0151518  -0.0039648   0.0042525
   18  -0.0078071  -0.0394862  -0.0022373   0.0211717   0.0149104   0.0028681
   19   0.0001252   0.0006725   0.0009178  -0.0009809  -0.0012585  -0.0003922
   20  -0.0019860  -0.0040566   0.0012309   0.0001641  -0.0010975  -0.0007762
   21  -0.0012058  -0.0020554  -0.0012064   0.0039084   0.0022405  -0.0005929
   22  -0.0050128   0.0138283   0.0082631  -0.0050495   0.0024252   0.0015949
   23  -0.0040541   0.0005618  -0.0000633  -0.0016039  -0.0005210  -0.0002429
   24   0.0016600   0.0107972   0.0053751  -0.0000593  -0.0027715  -0.0018555
   25  -0.1262887  -0.0279008  -0.1344741   0.0097817   0.0034610   0.0075725
   26  -0.0313209  -0.0556167  -0.0851460  -0.0051528  -0.0026319  -0.0012711
   27  -0.1331511  -0.0898792  -0.2472598  -0.0116825  -0.0001028  -0.0053536
   28   0.0023117  -0.0007774   0.0006036  -0.2943950   0.0343041   0.0958576
   29   0.0188579  -0.0010984  -0.0007550   0.0345394  -0.0392969  -0.0118265
   30   0.0176052  -0.0034928  -0.0029314   0.0972151  -0.0094208  -0.0902242
   31  -0.0009066   0.0008456   0.0016609   0.0086343  -0.0094271   0.0075137
   32   0.0020298  -0.0019855   0.0079213   0.0057041  -0.0086161   0.0034571
   33   0.0042454  -0.0068712   0.0041543  -0.0104241   0.0067939  -0.0078493
   34  -0.0140109   0.0074278  -0.0361093  -0.1239016   0.0332067  -0.0402912
   35  -0.0019130   0.0107661  -0.0238175   0.0256909  -0.0598394   0.0471959
   36  -0.0230129   0.0025457  -0.0683490  -0.0232963   0.0260133  -0.0785083
   37  -0.0017314  -0.0029143  -0.0020637   0.0080067   0.0051730  -0.0159672
   38   0.0011008  -0.0031410  -0.0014970  -0.0059288  -0.0025177   0.0034664
   39  -0.0008580  -0.0009382  -0.0026524   0.0013707  -0.0023295  -0.0006281
           13          14          15          16          17          18
    1  -0.0358071   0.0474987  -0.0215301  -0.1051951   0.0245438  -0.0297628
    2   0.0229714  -0.0203740   0.0219015   0.0553463  -0.1394461   0.0523342
    3  -0.0335194  -0.0020490  -0.0172150  -0.0237818   0.0507967  -0.0743714
    4  -0.0003419   0.0248354  -0.0066291  -0.0101628  -0.0094328   0.0100591
    5   0.0130053  -0.0121849  -0.0022089   0.0030911  -0.0395718  -0.0049416
    6   0.0092998   0.0291448   0.0098738  -0.0138943   0.0152649   0.0042400
    7  -0.0134989   0.0159568  -0.0053976  -0.0150604  -0.0145613  -0.0078071
    8   0.0712903   0.0799290   0.0850866  -0.0985909  -0.0199368  -0.0394862
    9  -0.0231909  -0.0310140  -0.0130216   0.0060577   0.0016259  -0.0022373
   10  -0.1010692  -0.0504673   0.0036987  -0.0194930  -0.0151518   0.0211717
   11  -0.0117482  -0.0965292   0.0293286  -0.0299020  -0.0039648   0.0149104
   12   0.0455077   0.1072993  -0.0708217  -0.0061869   0.0042525   0.0028681
   13   0.6019283  -0.1728277   0.1086961  -0.3131659  -0.0089443  -0.0293292
   14  -0.1728277   0.3041476  -0.2970589   0.0264201  -0.0679653   0.0489521
   15   0.1086961  -0.2970589   0.2683103   0.0141237   0.0239652  -0.0341128
   16  -0.3131659   0.0264201   0.0141237   0.4832061   0.0236533   0.0428620
   17  -0.0089443  -0.0679653   0.0239652   0.0236533   0.2986670  -0.1071090
   18  -0.0293292   0.0489521  -0.0341128   0.0428620  -0.1071090   0.1354429
   19  -0.0001344   0.0007882  -0.0007572  -0.0021494   0.0006861   0.0000365
   20   0.0040147  -0.0026135   0.0040949   0.0257085  -0.0004107   0.0068003
   21  -0.0008710   0.0029495  -0.0019820  -0.0125967  -0.0017744  -0.0058849
   22  -0.0003841  -0.0022794   0.0004938   0.0002551  -0.0012815  -0.0026748
   23   0.0004003  -0.0018361  -0.0002303   0.0008791  -0.0005990  -0.0013404
   24   0.0005646   0.0038037   0.0006948  -0.0016018   0.0020387  -0.0013383
   25  -0.0029978  -0.0009177  -0.0020815   0.0005415  -0.0000868   0.0007521
   26  -0.0033319  -0.0007836  -0.0101143   0.0000850  -0.0009376   0.0009568
   27   0.0049306   0.0024953   0.0034143  -0.0016713   0.0008867  -0.0007882
   28  -0.0037872   0.0030983   0.0016913  -0.0017124  -0.0003585  -0.0006636
   29  -0.0257474   0.0063213   0.0049289  -0.0013071  -0.0025204   0.0015278
   30   0.0129054   0.0030143  -0.0006858  -0.0041284   0.0001410  -0.0030770
   31  -0.1322459   0.0942091  -0.0907904  -0.0179901   0.0221117  -0.0156561
   32   0.1006259  -0.1648808   0.1141695  -0.0026013   0.0071026  -0.0082934
   33  -0.0912259   0.1198546  -0.1275538  -0.0011836  -0.0019166  -0.0054090
   34   0.0013297   0.0123147  -0.0023692   0.0039130  -0.0219951   0.0099337
   35   0.0075860  -0.0234379   0.0222053  -0.0006890  -0.0286428   0.0334213
   36  -0.0054420   0.0118819  -0.0175284   0.0035571   0.0118148  -0.0155430
   37   0.0001743   0.0013708   0.0008515  -0.0029866   0.0008172   0.0010785
   38   0.0027056   0.0002075   0.0039319  -0.0020932  -0.0017743   0.0022679
   39   0.0016741   0.0007265   0.0006279  -0.0015557   0.0000135   0.0002108
           19          20          21          22          23          24
    1  -0.3139951   0.0064877  -0.0929828   0.0106546   0.0115459  -0.0017058
    2   0.0117123  -0.0479823   0.0113333  -0.0145048  -0.0123366  -0.0019570
    3  -0.0944915   0.0090530  -0.0684678  -0.0008134  -0.0025971  -0.0042648
    4  -0.0014518  -0.0200139  -0.0151355  -0.1119949   0.1347421   0.0160387
    5   0.0004944   0.0027228   0.0023582   0.1340495  -0.2621889  -0.0474310
    6   0.0016883  -0.0060843  -0.0059808   0.0179468  -0.0472730  -0.0553279
    7   0.0001252  -0.0019860  -0.0012058  -0.0050128  -0.0040541   0.0016600
    8   0.0006725  -0.0040566  -0.0020554   0.0138283   0.0005618   0.0107972
    9   0.0009178   0.0012309  -0.0012064   0.0082631  -0.0000633   0.0053751
   10  -0.0009809   0.0001641   0.0039084  -0.0050495  -0.0016039  -0.0000593
   11  -0.0012585  -0.0010975   0.0022405   0.0024252  -0.0005210  -0.0027715
   12  -0.0003922  -0.0007762  -0.0005929   0.0015949  -0.0002429  -0.0018555
   13  -0.0001344   0.0040147  -0.0008710  -0.0003841   0.0004003   0.0005646
   14   0.0007882  -0.0026135   0.0029495  -0.0022794  -0.0018361   0.0038037
   15  -0.0007572   0.0040949  -0.0019820   0.0004938  -0.0002303   0.0006948
   16  -0.0021494   0.0257085  -0.0125967   0.0002551   0.0008791  -0.0016018
   17   0.0006861  -0.0004107  -0.0017744  -0.0012815  -0.0005990   0.0020387
   18   0.0000365   0.0068003  -0.0058849  -0.0026748  -0.0013404  -0.0013383
   19   0.3286422  -0.0135966   0.1002439   0.0002386  -0.0003230  -0.0002173
   20  -0.0135966   0.0518598  -0.0120929   0.0012564   0.0013459  -0.0006775
   21   0.1002439  -0.0120929   0.0719851   0.0012939   0.0008312   0.0005971
   22   0.0002386   0.0012564   0.0012939   0.1156872  -0.1380802  -0.0215707
   23  -0.0003230   0.0013459   0.0008312  -0.1380802   0.2738250   0.0524615
   24  -0.0002173  -0.0006775   0.0005971  -0.0215707   0.0524615   0.0470580
   25   0.0002728  -0.0007638  -0.0009184   0.0004736   0.0004213  -0.0000185
   26  -0.0001719   0.0001883   0.0003668  -0.0003666   0.0000125  -0.0000471
   27   0.0001127   0.0003135   0.0002518  -0.0004430  -0.0001152   0.0002844
   28  -0.0001446   0.0002484   0.0007407  -0.0002585  -0.0003962   0.0003123
   29  -0.0001869  -0.0000696  -0.0001052   0.0014740   0.0002673  -0.0002046
   30  -0.0005279  -0.0000742   0.0012842   0.0000551   0.0001393   0.0005944
   31  -0.0001779   0.0015461  -0.0009338  -0.0000034   0.0000600  -0.0001264
   32   0.0000405   0.0004706   0.0002342   0.0001262   0.0001520   0.0004599
   33  -0.0000760   0.0002690   0.0007635   0.0002214   0.0000261   0.0009365
   34  -0.0112801  -0.0027461   0.0200644  -0.0056169  -0.0038482   0.0067214
   35   0.0006203  -0.0010064  -0.0030304   0.0039619   0.0007898  -0.0183956
   36  -0.0068709  -0.0023907   0.0089685  -0.0037693  -0.0011035   0.0054351
   37   0.0010355  -0.0003195  -0.0016075   0.0010109   0.0002568   0.0000027
   38   0.0005226   0.0006494  -0.0012553  -0.0006089   0.0005274   0.0019234
   39   0.0003337   0.0003344   0.0002647  -0.0005978  -0.0004925   0.0018110
           25          26          27          28          29          30
    1  -0.0026163   0.0002206   0.0013353  -0.0020302  -0.0009506  -0.0039672
    2   0.0015296  -0.0016073   0.0001013   0.0011344  -0.0027474   0.0014243
    3  -0.0026986  -0.0023604   0.0014282   0.0000441   0.0013723  -0.0015048
    4   0.0005045   0.0039179   0.0027374  -0.0007491   0.0042740   0.0005704
    5  -0.0128003   0.0073367   0.0000692   0.0006627  -0.0023474  -0.0000313
    6  -0.0074763   0.0060151  -0.0009058   0.0007207  -0.0029197  -0.0030913
    7  -0.1262887  -0.0313209  -0.1331511   0.0023117   0.0188579   0.0176052
    8  -0.0279008  -0.0556167  -0.0898792  -0.0007774  -0.0010984  -0.0034928
    9  -0.1344741  -0.0851460  -0.2472598   0.0006036  -0.0007550  -0.0029314
   10   0.0097817  -0.0051528  -0.0116825  -0.2943950   0.0345394   0.0972151
   11   0.0034610  -0.0026319  -0.0001028   0.0343041  -0.0392969  -0.0094208
   12   0.0075725  -0.0012711  -0.0053536   0.0958576  -0.0118265  -0.0902242
   13  -0.0029978  -0.0033319   0.0049306  -0.0037872  -0.0257474   0.0129054
   14  -0.0009177  -0.0007836   0.0024953   0.0030983   0.0063213   0.0030143
   15  -0.0020815  -0.0101143   0.0034143   0.0016913   0.0049289  -0.0006858
   16   0.0005415   0.0000850  -0.0016713  -0.0017124  -0.0013071  -0.0041284
   17  -0.0000868  -0.0009376   0.0008867  -0.0003585  -0.0025204   0.0001410
   18   0.0007521   0.0009568  -0.0007882  -0.0006636   0.0015278  -0.0030770
   19   0.0002728  -0.0001719   0.0001127  -0.0001446  -0.0001869  -0.0005279
   20  -0.0007638   0.0001883   0.0003135   0.0002484  -0.0000696  -0.0000742
   21  -0.0009184   0.0003668   0.0002518   0.0007407  -0.0001052   0.0012842
   22   0.0004736  -0.0003666  -0.0004430  -0.0002585   0.0014740   0.0000551
   23   0.0004213   0.0000125  -0.0001152  -0.0003962   0.0002673   0.0001393
   24  -0.0000185  -0.0000471   0.0002844   0.0003123  -0.0002046   0.0005944
   25   0.1192258   0.0375025   0.1397732   0.0005283  -0.0011765  -0.0004514
   26   0.0375025   0.0529067   0.0877121   0.0003421   0.0003751  -0.0001717
   27   0.1397732   0.0877121   0.2538110   0.0000964   0.0008608   0.0010437
   28   0.0005283   0.0003421   0.0000964   0.3051648  -0.0347871  -0.1076660
   29  -0.0011765   0.0003751   0.0008608  -0.0347871   0.0414794   0.0119068
   30  -0.0004514  -0.0001717   0.0010437  -0.1076660   0.0119068   0.0856121
   31   0.0005748  -0.0000346  -0.0001404   0.0004603   0.0012333  -0.0001912
   32   0.0003823   0.0005890  -0.0007826  -0.0000429   0.0008228   0.0003223
   33   0.0002527   0.0009951  -0.0002713   0.0001437  -0.0005961   0.0004909
   34  -0.0002556  -0.0015405  -0.0008351  -0.0058096   0.0042107  -0.0121532
   35   0.0013084   0.0000550  -0.0011251  -0.0033332  -0.0019378  -0.0035192
   36  -0.0002448   0.0024220  -0.0051630   0.0084050  -0.0045692   0.0121315
   37   0.0002553  -0.0001487  -0.0010621   0.0004213  -0.0004336   0.0007340
   38  -0.0009592   0.0001137  -0.0004340  -0.0000947   0.0007520  -0.0002380
   39   0.0000131   0.0006427  -0.0004916  -0.0002860   0.0003797   0.0003577
           31          32          33          34          35          36
    1  -0.0059668  -0.0010658  -0.0004269  -0.1202256  -0.0114235   0.0520382
    2  -0.0015911   0.0016559   0.0004190  -0.0395295  -0.0367390   0.0711183
    3  -0.0020573   0.0022918   0.0027605   0.0174827   0.0209387  -0.0758416
    4   0.0002259   0.0011118   0.0013012  -0.0271323   0.0160892   0.0202285
    5  -0.0005796   0.0004843  -0.0002936   0.0498592  -0.0634622  -0.0676909
    6   0.0008022   0.0017682   0.0005897   0.0605733  -0.0261399  -0.1499219
    7  -0.0009066   0.0020298   0.0042454  -0.0140109  -0.0019130  -0.0230129
    8   0.0008456  -0.0019855  -0.0068712   0.0074278   0.0107661   0.0025457
    9   0.0016609   0.0079213   0.0041543  -0.0361093  -0.0238175  -0.0683490
   10   0.0086343   0.0057041  -0.0104241  -0.1239016   0.0256909  -0.0232963
   11  -0.0094271  -0.0086161   0.0067939   0.0332067  -0.0598394   0.0260133
   12   0.0075137   0.0034571  -0.0078493  -0.0402912   0.0471959  -0.0785083
   13  -0.1322459   0.1006259  -0.0912259   0.0013297   0.0075860  -0.0054420
   14   0.0942091  -0.1648808   0.1198546   0.0123147  -0.0234379   0.0118819
   15  -0.0907904   0.1141695  -0.1275538  -0.0023692   0.0222053  -0.0175284
   16  -0.0179901  -0.0026013  -0.0011836   0.0039130  -0.0006890   0.0035571
   17   0.0221117   0.0071026  -0.0019166  -0.0219951  -0.0286428   0.0118148
   18  -0.0156561  -0.0082934  -0.0054090   0.0099337   0.0334213  -0.0155430
   19  -0.0001779   0.0000405  -0.0000760  -0.0112801   0.0006203  -0.0068709
   20   0.0015461   0.0004706   0.0002690  -0.0027461  -0.0010064  -0.0023907
   21  -0.0009338   0.0002342   0.0007635   0.0200644  -0.0030304   0.0089685
   22  -0.0000034   0.0001262   0.0002214  -0.0056169   0.0039619  -0.0037693
   23   0.0000600   0.0001520   0.0000261  -0.0038482   0.0007898  -0.0011035
   24  -0.0001264   0.0004599   0.0009365   0.0067214  -0.0183956   0.0054351
   25   0.0005748   0.0003823   0.0002527  -0.0002556   0.0013084  -0.0002448
   26  -0.0000346   0.0005890   0.0009951  -0.0015405   0.0000550   0.0024220
   27  -0.0001404  -0.0007826  -0.0002713  -0.0008351  -0.0011251  -0.0051630
   28   0.0004603  -0.0000429   0.0001437  -0.0058096  -0.0033332   0.0084050
   29   0.0012333   0.0008228  -0.0005961   0.0042107  -0.0019378  -0.0045692
   30  -0.0001912   0.0003223   0.0004909  -0.0121532  -0.0035192   0.0121315
   31   0.1476963  -0.1048881   0.0987105  -0.0009689  -0.0030404   0.0012996
   32  -0.1048881   0.1660532  -0.1206726  -0.0013750  -0.0018926  -0.0004932
   33   0.0987105  -0.1206726   0.1322087  -0.0004879   0.0012698  -0.0007810
   34  -0.0009689  -0.0013750  -0.0004879   0.3521250  -0.0486710  -0.0089918
   35  -0.0030404  -0.0018926   0.0012698  -0.0486710   0.2768365  -0.1519717
   36   0.0012996  -0.0004932  -0.0007810  -0.0089918  -0.1519717   0.6956245
   37   0.0006679  -0.0000474  -0.0010506  -0.0481664   0.0138133  -0.0139006
   38  -0.0004449   0.0000449   0.0007225   0.0126865  -0.0714893   0.1024231
   39  -0.0000912  -0.0003826  -0.0000396  -0.0135379   0.1029685  -0.3105233
           37          38          39
    1   0.0037213   0.0077276   0.0007882
    2  -0.0036648  -0.0034817  -0.0031697
    3   0.0176772   0.0097954  -0.0026122
    4  -0.0037240  -0.0046309  -0.0002045
    5  -0.0039204   0.0117601   0.0091361
    6   0.0023564  -0.0142171  -0.0081760
    7  -0.0017314   0.0011008  -0.0008580
    8  -0.0029143  -0.0031410  -0.0009382
    9  -0.0020637  -0.0014970  -0.0026524
   10   0.0080067  -0.0059288   0.0013707
   11   0.0051730  -0.0025177  -0.0023295
   12  -0.0159672   0.0034664  -0.0006281
   13   0.0001743   0.0027056   0.0016741
   14   0.0013708   0.0002075   0.0007265
   15   0.0008515   0.0039319   0.0006279
   16  -0.0029866  -0.0020932  -0.0015557
   17   0.0008172  -0.0017743   0.0000135
   18   0.0010785   0.0022679   0.0002108
   19   0.0010355   0.0005226   0.0003337
   20  -0.0003195   0.0006494   0.0003344
   21  -0.0016075  -0.0012553   0.0002647
   22   0.0010109  -0.0006089  -0.0005978
   23   0.0002568   0.0005274  -0.0004925
   24   0.0000027   0.0019234   0.0018110
   25   0.0002553  -0.0009592   0.0000131
   26  -0.0001487   0.0001137   0.0006427
   27  -0.0010621  -0.0004340  -0.0004916
   28   0.0004213  -0.0000947  -0.0002860
   29  -0.0004336   0.0007520   0.0003797
   30   0.0007340  -0.0002380   0.0003577
   31   0.0006679  -0.0004449  -0.0000912
   32  -0.0000474   0.0000449  -0.0003826
   33  -0.0010506   0.0007225  -0.0000396
   34  -0.0481664   0.0126865  -0.0135379
   35   0.0138133  -0.0714893   0.1029685
   36  -0.0139006   0.1024231  -0.3105233
   37   0.0413153  -0.0099825   0.0129513
   38  -0.0099825   0.0683490  -0.1068891
   39   0.0129513  -0.1068891   0.3218511
 Gradient time:  CPU 553.27 s  wall 603.18 s
 **********************************************************************
 **                                                                  **
 **                       VIBRATIONAL ANALYSIS                       **
 **                       --------------------                       **
 **                                                                  **
 **        VIBRATIONAL FREQUENCIES (CM**-1) AND NORMAL MODES         **
 **     FORCE CONSTANTS (mDYN/ANGSTROM) AND REDUCED MASSES (AMU)     **
 **                  INFRARED INTENSITIES (KM/MOL)                   **
 **                                                                  **
 **********************************************************************
 

 Mode:                 1                      2                      3
 Frequency:      -620.85                 469.38                 563.74
 Force Cnst:      2.0359                 0.5031                 0.5592
 Red. Mass:       8.9648                 3.8757                 2.9863
 IR Active:          YES                    YES                    YES
 IR Intens:        5.726                  3.797                  3.503
 Raman Active:       YES                    YES                    YES
               X      Y      Z        X      Y      Z        X      Y      Z
 C          0.063 -0.003 -0.006    0.020  0.002 -0.042   -0.060  0.091  0.200
 C         -0.006  0.064  0.050   -0.047 -0.009 -0.080    0.093  0.140 -0.126
 C          0.059  0.537 -0.077   -0.142 -0.160  0.062   -0.090 -0.017  0.084
 C         -0.073 -0.054  0.201    0.039  0.045 -0.049    0.014  0.043  0.067
 C         -0.103 -0.484 -0.326    0.080 -0.068 -0.198    0.055 -0.001 -0.057
 N          0.058 -0.011  0.083    0.001  0.168  0.298    0.052 -0.068 -0.135
 H          0.042  0.031  0.052    0.037 -0.111 -0.107   -0.083  0.101  0.267
 H         -0.150 -0.005 -0.015   -0.001  0.013 -0.060    0.208  0.245 -0.297
 H         -0.126  0.156  0.163   -0.403 -0.572  0.363   -0.281 -0.280  0.290
 H         -0.032  0.012  0.246    0.099  0.232  0.037    0.031  0.152  0.073
 H         -0.121 -0.283 -0.066    0.107 -0.025 -0.173    0.062 -0.091 -0.163
 C          0.013 -0.040  0.026    0.060  0.032 -0.041   -0.055 -0.150 -0.014
 H          0.144  0.011  0.037    0.030 -0.000 -0.050   -0.137 -0.450 -0.116
 TransDip   0.074  0.008 -0.018    0.007 -0.059 -0.020   -0.034 -0.016  0.047

 Mode:                 4                      5                      6
 Frequency:       609.16                 707.36                 730.68
 Force Cnst:      0.2894                 2.1996                 0.5969
 Red. Mass:       1.3235                 7.4613                 1.8976
 IR Active:          YES                    YES                    YES
 IR Intens:       15.153                  0.863                 11.741
 Raman Active:       YES                    YES                    YES
               X      Y      Z        X      Y      Z        X      Y      Z
 C          0.024  0.044  0.033    0.207 -0.066 -0.075   -0.133 -0.084  0.069
 C         -0.014  0.010 -0.020    0.133  0.351 -0.149    0.013 -0.013 -0.130
 C         -0.081 -0.076  0.053   -0.132 -0.075 -0.010    0.009  0.012  0.028
 C         -0.019  0.012  0.022   -0.258 -0.123 -0.042    0.026 -0.033 -0.004
 C          0.029 -0.060 -0.027    0.021 -0.153  0.194    0.001  0.011 -0.046
 N         -0.001  0.023  0.016    0.104 -0.217  0.073   -0.008 -0.050  0.022
 H          0.028  0.045  0.023    0.158 -0.160  0.070   -0.137 -0.190  0.061
 H         -0.040 -0.019  0.050   -0.170  0.108  0.207    0.240  0.198 -0.524
 H          0.330  0.696 -0.470    0.011 -0.303 -0.024    0.033  0.234 -0.059
 H          0.042  0.170  0.130   -0.249 -0.051 -0.035    0.004 -0.170 -0.019
 H          0.030 -0.208 -0.195    0.220  0.023  0.211    0.051 -0.006 -0.115
 C          0.030 -0.003 -0.035   -0.081  0.349 -0.025    0.063  0.114  0.093
 H         -0.003 -0.113 -0.075   -0.097  0.021 -0.154    0.186  0.539  0.243
 TransDip   0.060  0.077 -0.077    0.026 -0.014  0.004    0.045  0.091 -0.042

 Mode:                 7                      8                      9
 Frequency:       761.35                 788.60                 801.09
 Force Cnst:      1.6894                 1.1262                 1.0158
 Red. Mass:       4.9465                 3.0737                 2.6867
 IR Active:          YES                    YES                    YES
 IR Intens:       10.308                 19.256                  6.617
 Raman Active:       YES                    YES                    YES
               X      Y      Z        X      Y      Z        X      Y      Z
 C         -0.004 -0.159 -0.252   -0.036  0.020 -0.121   -0.041  0.031 -0.058
 C          0.203  0.036 -0.041   -0.114  0.136  0.084    0.064 -0.099 -0.012
 C          0.184 -0.000  0.254   -0.013 -0.030  0.001   -0.041  0.019  0.078
 C         -0.113  0.234  0.052   -0.064 -0.154 -0.006   -0.088 -0.136  0.061
 C         -0.057  0.030 -0.025    0.113 -0.007 -0.014    0.084  0.006  0.060
 N         -0.065 -0.013  0.072    0.110  0.129 -0.058    0.137  0.157 -0.052
 H         -0.053 -0.071 -0.097    0.076 -0.300 -0.499   -0.243  0.089  0.536
 H          0.175  0.054 -0.223    0.208  0.398 -0.285   -0.097 -0.208  0.041
 H          0.438  0.041  0.091    0.177 -0.015 -0.116   -0.143  0.029  0.135
 H         -0.228  0.124 -0.191   -0.143 -0.011 -0.236   -0.087 -0.188  0.081
 H          0.072 -0.205 -0.426    0.016 -0.045  0.040    0.037 -0.164 -0.084
 C         -0.164 -0.118 -0.002   -0.045 -0.102  0.202   -0.108 -0.012 -0.132
 H         -0.081 -0.041  0.020    0.023 -0.180  0.178    0.182  0.536  0.048
 TransDip   0.045 -0.038 -0.084    0.011 -0.066 -0.124   -0.051 -0.032  0.056

 Mode:                10                     11                     12
 Frequency:       843.19                 877.94                 902.28
 Force Cnst:      0.7751                 0.6953                 0.7548
 Red. Mass:       1.8503                 1.5310                 1.5735
 IR Active:          YES                    YES                    YES
 IR Intens:        7.124                 26.447                 17.493
 Raman Active:       YES                    YES                    YES
               X      Y      Z        X      Y      Z        X      Y      Z
 C         -0.055 -0.027 -0.044    0.020  0.081 -0.020   -0.043 -0.067  0.049
 C          0.060  0.011 -0.001    0.019 -0.016  0.052   -0.008 -0.000 -0.089
 C         -0.016 -0.054 -0.068   -0.046 -0.018  0.016    0.067 -0.020  0.076
 C          0.132  0.060  0.036   -0.096  0.037 -0.031   -0.030 -0.001  0.000
 C          0.012 -0.128  0.046    0.015 -0.004 -0.054    0.007 -0.032 -0.050
 N          0.004  0.043 -0.017    0.004 -0.083  0.031    0.005  0.089 -0.054
 H         -0.087 -0.067  0.035   -0.019  0.206  0.116   -0.088 -0.042  0.182
 H          0.259  0.130 -0.031    0.159  0.097 -0.121   -0.465 -0.282  0.020
 H          0.033  0.021 -0.128    0.066  0.038 -0.073    0.262 -0.081 -0.015
 H          0.238  0.405  0.174   -0.143  0.200 -0.184   -0.102  0.096 -0.207
 H         -0.256  0.094  0.566    0.042  0.480  0.463   -0.202  0.249  0.467
 C         -0.125  0.018 -0.007    0.036 -0.092 -0.024    0.041  0.052  0.047
 H         -0.315  0.237  0.079    0.463  0.271  0.092    0.115 -0.358 -0.105
 TransDip   0.003  0.069  0.050    0.063  0.148  0.036   -0.082 -0.077  0.073

 Mode:                13                     14                     15
 Frequency:       921.27                 968.57                 972.44
 Force Cnst:      0.8196                 0.9965                 0.8357
 Red. Mass:       1.6391                 1.8028                 1.4999
 IR Active:          YES                    YES                    YES
 IR Intens:        0.365                  2.184                  3.274
 Raman Active:       YES                    YES                    YES
               X      Y      Z        X      Y      Z        X      Y      Z
 C         -0.000  0.027  0.029   -0.101 -0.070 -0.053    0.006  0.041  0.015
 C         -0.080  0.004 -0.024    0.055  0.126  0.005   -0.113  0.019  0.011
 C          0.047 -0.009 -0.068   -0.033 -0.010 -0.093    0.082 -0.032  0.016
 C         -0.030  0.082 -0.029    0.053 -0.043  0.057   -0.023 -0.012  0.077
 C          0.001 -0.086  0.146    0.013  0.084 -0.053   -0.003  0.028 -0.040
 N         -0.007  0.019 -0.017   -0.021 -0.029  0.024    0.021 -0.031  0.012
 H         -0.030  0.036  0.118   -0.188  0.009  0.191    0.008 -0.074 -0.017
 H         -0.178 -0.005 -0.234   -0.196 -0.122  0.526   -0.082  0.106 -0.292
 H          0.140 -0.337 -0.011    0.154 -0.145 -0.166    0.520 -0.392 -0.122
 H         -0.041  0.484 -0.176    0.170  0.191  0.271    0.153 -0.149  0.555
 H         -0.034 -0.469 -0.242    0.073  0.013 -0.201    0.072  0.154  0.028
 C          0.054 -0.032  0.006   -0.007 -0.053  0.052   -0.022  0.013 -0.100
 H          0.344  0.192  0.076    0.515  0.034  0.053   -0.094  0.101 -0.069
 TransDip   0.001  0.014  0.013    0.033  0.034  0.001    0.056  0.013  0.007

 Mode:                16                     17                     18
 Frequency:       999.38                1042.46                1045.78
 Force Cnst:      0.9950                 0.8795                 1.9829
 Red. Mass:       1.6909                 1.3736                 3.0773
 IR Active:          YES                    YES                    YES
 IR Intens:        1.723                  2.414                  2.228
 Raman Active:       YES                    YES                    YES
               X      Y      Z        X      Y      Z        X      Y      Z
 C         -0.145 -0.008  0.001    0.048 -0.047 -0.083   -0.145  0.144 -0.144
 C          0.005 -0.066  0.033   -0.010 -0.054  0.049   -0.141  0.069 -0.010
 C          0.037  0.010 -0.018   -0.020  0.017 -0.031    0.085 -0.008  0.085
 C         -0.091  0.038  0.023   -0.014 -0.057  0.000    0.186 -0.010  0.006
 C          0.014 -0.029  0.039    0.001  0.042 -0.013    0.101 -0.084  0.042
 N          0.046  0.008  0.000   -0.021 -0.003  0.005   -0.008 -0.130  0.071
 H         -0.122 -0.279 -0.134   -0.152  0.363  0.569   -0.271  0.363  0.209
 H          0.576  0.210  0.300    0.175  0.138 -0.390   -0.198  0.048  0.020
 H         -0.034 -0.027  0.036   -0.007 -0.023 -0.029   -0.090  0.207  0.136
 H         -0.056  0.082  0.102    0.078  0.292  0.120   -0.027 -0.369 -0.450
 H          0.046 -0.019  0.022    0.032  0.008 -0.087    0.110 -0.085  0.058
 C          0.068  0.083 -0.082    0.018  0.067  0.064   -0.048  0.046 -0.046
 H          0.266 -0.427 -0.286   -0.115 -0.385 -0.092    0.120 -0.229 -0.165
 TransDip   0.007 -0.034  0.024    0.017  0.046 -0.010   -0.041 -0.009 -0.023

 Mode:                19                     20                     21
 Frequency:      1061.06                1135.49                1206.38
 Force Cnst:      1.1416                 1.7325                 1.1461
 Red. Mass:       1.7211                 2.2807                 1.3365
 IR Active:          YES                    YES                    YES
 IR Intens:        5.830                  0.247                  0.305
 Raman Active:       YES                    YES                    YES
               X      Y      Z        X      Y      Z        X      Y      Z
 C         -0.074  0.090 -0.006   -0.051  0.063 -0.042    0.006  0.015  0.016
 C          0.055 -0.077 -0.060    0.045 -0.094 -0.096    0.039  0.006  0.050
 C          0.050  0.053  0.034   -0.033 -0.051 -0.135    0.070 -0.062 -0.035
 C         -0.042 -0.126  0.011   -0.073  0.138  0.099   -0.021  0.028 -0.049
 C          0.076  0.034  0.006    0.037 -0.057  0.024   -0.007 -0.022  0.003
 N         -0.036 -0.057  0.022    0.052  0.021  0.004    0.004  0.011 -0.002
 H          0.104  0.203 -0.514    0.008  0.530 -0.137    0.060 -0.063 -0.150
 H         -0.154 -0.218  0.010   -0.039 -0.187  0.040   -0.276 -0.088 -0.379
 H          0.001 -0.010  0.089    0.066 -0.159 -0.182   -0.396  0.294  0.123
 H          0.090  0.671  0.088   -0.149 -0.508  0.149    0.151 -0.060  0.400
 H          0.142  0.048 -0.041    0.323  0.127 -0.048    0.059  0.040  0.010
 C         -0.020  0.032  0.018    0.010  0.001  0.149   -0.098  0.027  0.024
 H         -0.221  0.033  0.029   -0.172 -0.100  0.139    0.475 -0.179 -0.079
 TransDip  -0.006  0.067 -0.039   -0.016 -0.002  0.003    0.008 -0.015  0.003

 Mode:                22                     23                     24
 Frequency:      1234.13                1242.34                1284.40
 Force Cnst:      2.7239                 1.2322                 2.0512
 Red. Mass:       3.0354                 1.3550                 2.1104
 IR Active:          YES                    YES                    YES
 IR Intens:        7.360                  1.995                 13.551
 Raman Active:       YES                    YES                    YES
               X      Y      Z        X      Y      Z        X      Y      Z
 C          0.152 -0.006  0.066   -0.000  0.004 -0.017   -0.072 -0.015  0.015
 C         -0.064 -0.067 -0.078   -0.014  0.039  0.014    0.149 -0.010  0.162
 C          0.047 -0.054 -0.089    0.052 -0.022 -0.016   -0.147  0.047 -0.035
 C          0.047 -0.036  0.263   -0.017 -0.003  0.026    0.061  0.005  0.050
 C          0.044  0.047 -0.057    0.021 -0.064  0.029    0.051 -0.010  0.015
 N         -0.094  0.018 -0.014   -0.093  0.041 -0.043   -0.049  0.006  0.002
 H          0.208 -0.097 -0.065   -0.109 -0.357  0.237   -0.010 -0.194 -0.215
 H          0.279  0.098  0.052   -0.078  0.003  0.039   -0.321 -0.143 -0.546
 H         -0.057  0.019 -0.060   -0.178  0.132  0.072    0.260 -0.246 -0.199
 H         -0.271  0.133 -0.565   -0.016  0.100  0.001   -0.117 -0.141 -0.353
 H          0.097  0.071 -0.091    0.683  0.389 -0.108    0.151  0.003 -0.059
 C         -0.177  0.078 -0.019    0.063 -0.032 -0.011    0.016  0.047 -0.082
 H          0.467 -0.040 -0.102   -0.252  0.091  0.051    0.021 -0.126 -0.161
 TransDip   0.060  0.032 -0.054    0.006 -0.002  0.045   -0.011 -0.055 -0.104

 Mode:                25                     26                     27
 Frequency:      1296.32                1336.16                1383.01
 Force Cnst:      2.2840                 2.4759                 2.6461
 Red. Mass:       2.3068                 2.3538                 2.3481
 IR Active:          YES                    YES                    YES
 IR Intens:        2.987                  6.355                  0.447
 Raman Active:       YES                    YES                    YES
               X      Y      Z        X      Y      Z        X      Y      Z
 C          0.009 -0.173  0.067   -0.059 -0.102  0.012    0.049  0.090 -0.041
 C         -0.044  0.040  0.011   -0.008  0.105  0.078    0.024 -0.037 -0.024
 C         -0.024  0.064  0.062    0.096 -0.098 -0.093   -0.007  0.046 -0.022
 C         -0.003  0.000 -0.083   -0.100  0.014  0.136   -0.073  0.043 -0.019
 C          0.163 -0.062  0.038    0.078  0.054 -0.050    0.239  0.026 -0.022
 N         -0.135  0.064 -0.051    0.007 -0.013  0.017   -0.167 -0.044 -0.003
 H          0.166  0.701 -0.245   -0.008  0.352 -0.084   -0.088 -0.545  0.258
 H          0.203  0.170  0.117   -0.201  0.056 -0.135    0.012 -0.071  0.058
 H          0.101 -0.078  0.047   -0.416  0.249  0.084   -0.004 -0.051  0.002
 H          0.093 -0.191  0.198   -0.211  0.054 -0.100   -0.005 -0.249  0.263
 H          0.242  0.026  0.080   -0.393 -0.206  0.113   -0.427 -0.360  0.225
 C         -0.030 -0.002 -0.049    0.118 -0.015 -0.094    0.010 -0.008  0.057
 H          0.217  0.078 -0.042   -0.371  0.196 -0.004   -0.041 -0.023  0.066
 TransDip   0.051  0.004  0.022   -0.072  0.033  0.016    0.000  0.018  0.011

 Mode:                28                     29                     30
 Frequency:      3169.04                3207.00                3212.39
 Force Cnst:      6.4633                 6.6158                 6.6333
 Red. Mass:       1.0923                 1.0918                 1.0910
 IR Active:          YES                    YES                    YES
 IR Intens:       14.081                 11.850                  5.674
 Raman Active:       YES                    YES                    YES
               X      Y      Z        X      Y      Z        X      Y      Z
 C          0.000 -0.000  0.000    0.020 -0.003  0.008   -0.060  0.004 -0.021
 C          0.001 -0.002 -0.000    0.014 -0.023 -0.003    0.029 -0.049 -0.009
 C          0.003 -0.000  0.003    0.001  0.001  0.003    0.004  0.004  0.007
 C         -0.080  0.011  0.032    0.010 -0.002 -0.002    0.001 -0.000 -0.001
 C          0.004 -0.002  0.003   -0.001  0.001 -0.001   -0.003  0.004 -0.003
 N          0.000  0.000 -0.000   -0.000  0.000  0.000    0.000 -0.000  0.000
 H          0.001  0.001 -0.000   -0.241  0.014 -0.085    0.696 -0.040  0.239
 H         -0.012  0.019  0.004   -0.159  0.277  0.056   -0.324  0.560  0.115
 H         -0.036 -0.019 -0.060   -0.019 -0.012 -0.034   -0.052 -0.032 -0.090
 H          0.906 -0.116 -0.369   -0.102  0.014  0.039   -0.013  0.001  0.007
 H         -0.037  0.039 -0.034    0.012 -0.014  0.011    0.036 -0.040  0.037
 C          0.001  0.003 -0.009   -0.005  0.028 -0.074    0.000 -0.001  0.004
 H          0.003 -0.038  0.106    0.045 -0.308  0.843   -0.003  0.011 -0.033
 TransDip  -0.107  0.018  0.052    0.058 -0.005 -0.094   -0.046 -0.046 -0.040

 Mode:                31                     32                     33
 Frequency:      3222.29                3224.88                3247.58
 Force Cnst:      6.6951                 6.7089                 6.8167
 Red. Mass:       1.0944                 1.0949                 1.0970
 IR Active:          YES                    YES                    YES
 IR Intens:       24.091                  0.570                  3.814
 Raman Active:       YES                    YES                    YES
               X      Y      Z        X      Y      Z        X      Y      Z
 C          0.044 -0.000  0.014   -0.029  0.002 -0.010    0.004  0.000  0.001
 C          0.025 -0.046 -0.011   -0.011  0.020  0.005    0.011 -0.016 -0.002
 C          0.002  0.003  0.006   -0.008 -0.003 -0.012   -0.043 -0.024 -0.071
 C          0.000  0.001 -0.002    0.006 -0.000 -0.002   -0.008  0.002  0.005
 C          0.023 -0.027  0.023    0.042 -0.048  0.041   -0.005  0.007 -0.006
 N         -0.001  0.001 -0.000   -0.001 -0.001  0.000    0.000  0.000  0.000
 H         -0.489  0.025 -0.169    0.320 -0.017  0.110   -0.036  0.002 -0.013
 H         -0.290  0.507  0.103    0.125 -0.219 -0.045   -0.095  0.162  0.031
 H         -0.046 -0.029 -0.077    0.087  0.049  0.144    0.484  0.276  0.791
 H         -0.011 -0.001  0.006   -0.054  0.004  0.022    0.067 -0.010 -0.027
 H         -0.268  0.306 -0.271   -0.470  0.535 -0.476    0.060 -0.071  0.061
 C          0.000 -0.010  0.031   -0.000  0.007 -0.019    0.000 -0.001  0.003
 H         -0.017  0.122 -0.330    0.010 -0.072  0.195   -0.003  0.008 -0.027
 TransDip   0.106 -0.096  0.064   -0.009 -0.020 -0.009   -0.027 -0.004 -0.056

 STANDARD THERMODYNAMIC QUANTITIES AT   298.15 K  AND     1.00 ATM

   This Molecule has  1 Imaginary Frequencies
   Zero point vibrational energy:       63.569 kcal/mol

   Atom    1 Element C  Has Mass   12.00000
   Atom    2 Element C  Has Mass   12.00000
   Atom    3 Element C  Has Mass   12.00000
   Atom    4 Element C  Has Mass   12.00000
   Atom    5 Element C  Has Mass   12.00000
   Atom    6 Element N  Has Mass   14.00307
   Atom    7 Element H  Has Mass    1.00783
   Atom    8 Element H  Has Mass    1.00783
   Atom    9 Element H  Has Mass    1.00783
   Atom   10 Element H  Has Mass    1.00783
   Atom   11 Element H  Has Mass    1.00783
   Atom   12 Element C  Has Mass   12.00000
   Atom   13 Element H  Has Mass    1.00783
   Molecular Mass:    92.050050 amu
   Principal axes and moments of inertia in amu*Bohr^2:
                             1           2           3
    Eigenvalues --      386.32994   401.87143   534.39226
          X              -0.09547     0.95664    -0.27518
          Y               0.93672     0.17987     0.30033
          Z              -0.33680     0.22910     0.91328
   Rotational Symmetry Number is   1
   The Molecule is an Asymmetric Top
   Translational Enthalpy:        0.889 kcal/mol
   Rotational Enthalpy:           0.889 kcal/mol
   Vibrational Enthalpy:         64.568 kcal/mol
   gas constant (RT):             0.592 kcal/mol
   Translational Entropy:        39.471  cal/mol.K
   Rotational Entropy:           25.920  cal/mol.K
   Vibrational Entropy:           4.316  cal/mol.K

   Total Enthalpy:               66.938 kcal/mol
   Total Entropy:                69.707  cal/mol.K
Archival summary:
1\1\c8-66\FREQ\ProcedureUnspecified\6-31+G**\166(2)\hpark21\WedMar200:06:532022WedMar200:06:532022\0\\#,FREQ,ProcedureUnspecified,6-31+G**,\\0,2\N\C,1,1.33857\H,2,1.08397,1,121.958\C,1,1.43242,2,104.155,3,-172.157,0\H,4,1.08392,1,118.518,2,-172.739,0\C,2,1.52251,1,115.071,3,-170.557,0\H,6,1.08695,2,121.468,1,144.104,0\C,6,1.48325,2,75.7182,1,-89.8887,0\H,8,1.082,6,133.059,2,-97.662,0\C,8,1.51821,6,92.103,2,97.8852,0\H,10,1.08351,8,127.594,6,149.664,0\C,4,1.52674,1,111.926,2,-24.8303,0\H,12,1.08413,4,126.642,1,-134.609,0\\\@

 Total job time:  625.32s(wall), 560.38s(cpu) 
 Wed Mar  2 00:06:53 2022

        *************************************************************
        *                                                           *
        *  Thank you very much for using Q-Chem.  Have a nice day.  *
        *                                                           *
        *************************************************************


