13
image # 1 Energy = -286.83834
C 1.24725   0.23947   0.24578   
C 0.56679   -1.12983  -0.21322  
C -0.74659  -0.88397  -0.79378  
C -1.05299  0.22085   0.21543   
C -0.43460  1.47826   -0.38379  
N 0.84823   1.45906   -0.41102  
H 2.28639   0.14921   0.54550   
H 1.20429   -2.00165  -0.32227  
H -1.15714  -1.07560  -1.78249  
H -2.06003  0.29748   0.63139   
H -1.00599  2.26627   -0.87189  
C 0.14775   -0.35389  1.05011   
H 0.15662   -0.66565  2.09026   
13
image # 2 Energy = -286.83712
C 1.24879   0.23985   0.25463   
C 0.57005   -1.12170  -0.21612  
C -0.74378  -0.87005  -0.79823  
C -1.05314  0.22119   0.22197   
C -0.44994  1.47351   -0.38905  
N 0.86255   1.45264   -0.41296  
H 2.28961   0.15208   0.55744   
H 1.19742   -1.99725  -0.33028  
H -1.16333  -1.05461  -1.78285  
H -2.06038  0.29995   0.64419   
H -1.00883  2.23608   -0.89793  
C 0.14920   -0.35627  1.05471   
H 0.16157   -0.67594  2.09362   
13
image # 3 Energy = -286.83736
C 1.25378   0.24134   0.26056   
C 0.57350   -1.11746  -0.21820  
C -0.74120  -0.85440  -0.80013  
C -1.06199  0.22272   0.23355   
C -0.42630  1.45419   -0.38778  
N 0.84933   1.45136   -0.41501  
H 2.29027   0.15407   0.56778   
H 1.19200   -1.99319  -0.33769  
H -1.16901  -1.03614  -1.78457  
H -2.05637  0.30080   0.65339   
H -1.01853  2.21873   -0.92769  
C 0.14857   -0.35814  1.05906   
H 0.16561   -0.68486  2.09517   
13
image # 4 Energy = -286.83654
C 1.25535   0.23949   0.26886   
C 0.56946   -1.10102  -0.22003  
C -0.73703  -0.83874  -0.80370  
C -1.04481  0.21840   0.23743   
C -0.42844  1.46058   -0.40302  
N 0.84072   1.44339   -0.41461  
H 2.29388   0.15649   0.58066   
H 1.18835   -1.99286  -0.34646  
H -1.17510  -1.01438  -1.78403  
H -2.06671  0.30434   0.67010   
H -1.01634  2.18027   -0.94945  
C 0.14960   -0.36211  1.06398   
H 0.17045   -0.69509  2.09773   
13
image # 5 Energy = -286.83599
C 1.26324   0.23963   0.27211   
C 0.55749   -1.08581  -0.21905  
C -0.73105  -0.82746  -0.78171  
C -1.05821  0.21900   0.25222   
C -0.43377  1.43497   -0.39499  
N 0.85992   1.44926   -0.41373  
H 2.28596   0.16117   0.58877   
H 1.19468   -1.99872  -0.35725  
H -1.18221  -0.99287  -1.79523  
H -2.05339  0.30551   0.67453   
H -1.02402  2.16369   -0.98555  
C 0.14719   -0.36340  1.05541   
H 0.17315   -0.70658  2.10117   
13
image # 6 Energy = -286.83548
C 1.27584   0.25002   0.27334   
C 0.57300   -1.09727  -0.22407  
C -0.74020  -0.80578  -0.79287  
C -1.04441  0.21424   0.25703   
C -0.43362  1.42967   -0.41144  
N 0.85309   1.44129   -0.40996  
H 2.28484   0.16214   0.59733   
H 1.18456   -1.98449  -0.36354  
H -1.18355  -0.97167  -1.78953  
H -2.06299  0.30905   0.69005   
H -1.02362  2.13388   -1.00579  
C 0.13848   -0.37064  1.08174   
H 0.17710   -0.71230  2.09348   
13
image # 7 Energy = -286.83439
C 1.25881   0.24203   0.28005   
C 0.57324   -1.08465  -0.22114  
C -0.73438  -0.79684  -0.80802  
C -1.06631  0.21851   0.27752   
C -0.43167  1.42878   -0.42843  
N 0.85044   1.43870   -0.41064  
H 2.29607   0.16347   0.60801   
H 1.18185   -1.98173  -0.37074  
H -1.18566  -0.94895  -1.78436  
H -2.05598  0.31090   0.69711   
H -1.02193  2.10157   -1.02297  
C 0.15446   -0.37368  1.08110   
H 0.17900   -0.72013  2.09687   
13
image # 8 Energy = -286.83214
C 1.25758   0.25311   0.28061   
C 0.57898   -1.07991  -0.22477  
C -0.73003  -0.77300  -0.79657  
C -1.05139  0.21374   0.27698   
C -0.42806  1.41364   -0.42269  
N 0.85191   1.42590   -0.41019  
H 2.29950   0.16546   0.62055   
H 1.17394   -1.97461  -0.38025  
H -1.19443  -0.92252  -1.79196  
H -2.06130  0.31485   0.71301   
H -1.02946  2.06866   -1.05888  
C 0.14653   -0.37510  1.08542   
H 0.18355   -0.73250  2.10206   
13
image # 9 Energy = -286.83138
C 1.26446   0.25389   0.28700   
C 0.58066   -1.07674  -0.22755  
C -0.73168  -0.76073  -0.81130  
C -1.05074  0.22069   0.28665   
C -0.43220  1.39781   -0.42333  
N 0.85829   1.42747   -0.40850  
H 2.29720   0.16903   0.62904   
H 1.16799   -1.97080  -0.38778  
H -1.19481  -0.90248  -1.78010  
H -2.06300  0.31655   0.72258   
H -1.03316  2.04137   -1.08466  
C 0.14794   -0.37500  1.08178   
H 0.18577   -0.74358  2.10870   
13
image # 10 Energy = -286.82983
C 1.26211   0.23344   0.30109   
C 0.58477   -1.06430  -0.21978  
C -0.73179  -0.73435  -0.81222  
C -1.05983  0.21652   0.30091   
C -0.43484  1.39235   -0.44514  
N 0.85461   1.44458   -0.41279  
H 2.29921   0.17323   0.63588   
H 1.16492   -1.97244  -0.39610  
H -1.20114  -0.89323  -1.77947  
H -2.05937  0.31842   0.72718   
H -1.02757  2.01364   -1.09530  
C 0.15895   -0.38349  1.09111   
H 0.18626   -0.74718  2.09692   
13
image # 11 Energy = -286.82814
C 1.26618   0.24048   0.30228   
C 0.58654   -1.05859  -0.22616  
C -0.71954  -0.71803  -0.81914  
C -1.05741  0.22178   0.31253   
C -0.43518  1.38314   -0.45169  
N 0.85675   1.43925   -0.40763  
H 2.30171   0.17667   0.64720   
H 1.15402   -1.96756  -0.40358  
H -1.20989  -0.88132  -1.77449  
H -2.06205  0.32167   0.73688   
H -1.02834  1.98298   -1.11612  
C 0.15360   -0.38506  1.09145   
H 0.18954   -0.75854  2.10073   
13
image # 12 Energy = -286.82628
C 1.27009   0.24526   0.31319   
C 0.59005   -1.05115  -0.23230  
C -0.71751  -0.71959  -0.81237  
C -1.04859  0.22741   0.31817   
C -0.43239  1.39324   -0.43595  
N 0.85513   1.43723   -0.41059  
H 2.29881   0.18409   0.66485   
H 1.14128   -1.96102  -0.42216  
H -1.21799  -0.85171  -1.76530  
H -2.05650  0.32648   0.74876   
H -1.02964  1.93204   -1.16507  
C 0.15029   -0.38595  1.09179   
H 0.19267   -0.77974  2.09964   
13
image # 13 Energy = -286.82503
C 1.27178   0.24497   0.31406   
C 0.59556   -1.04521  -0.23173  
C -0.71362  -0.69783  -0.82005  
C -1.05523  0.22615   0.31466   
C -0.43166  1.38808   -0.43412  
N 0.86037   1.43454   -0.41152  
H 2.30050   0.18471   0.66920   
H 1.13438   -1.96225  -0.42265  
H -1.22332  -0.85461  -1.76151  
H -2.05746  0.32565   0.75116   
H -1.03574  1.92224   -1.17073  
C 0.15527   -0.38814  1.09315   
H 0.19477   -0.78179  2.10293   
13
image # 14 Energy = -286.82209
C 1.27708   0.24392   0.30965   
C 0.59854   -1.04009  -0.22751  
C -0.69870  -0.65489  -0.83488  
C -1.06431  0.21541   0.32140   
C -0.42928  1.35723   -0.45981  
N 0.85857   1.42741   -0.40489  
H 2.30358   0.18184   0.66508   
H 1.13221   -1.96205  -0.41688  
H -1.22467  -0.86069  -1.75835  
H -2.06514  0.32527   0.75454   
H -1.04213  1.92968   -1.16012  
C 0.15314   -0.39108  1.09573   
H 0.19650   -0.77569  2.10945   
13
image # 15 Energy = -286.81856
C 1.28177   0.24061   0.30615   
C 0.59922   -1.03639  -0.22296  
C -0.68735  -0.61104  -0.85026  
C -1.07165  0.20768   0.32979   
C -0.43283  1.31906   -0.49061  
N 0.86098   1.42543   -0.39737  
H 2.30672   0.17892   0.66018   
H 1.13086   -1.96143  -0.41023  
H -1.22386  -0.86869  -1.75324  
H -2.07308  0.32380   0.75578   
H -1.04528  1.94060   -1.14320  
C 0.15215   -0.39451  1.09666   
H 0.19776   -0.76791  2.11371   
13
image # 16 Energy = -286.81590
C 1.29338   0.25258   0.29873   
C 0.59370   -1.04349  -0.22744  
C -0.67037  -0.57014  -0.86369  
C -1.08000  0.19748   0.34920   
C -0.45242  1.26718   -0.52102  
N 0.88652   1.41788   -0.38277  
H 2.30628   0.17548   0.65220   
H 1.13153   -1.95842  -0.40102  
H -1.22342  -0.87953  -1.75322  
H -2.07790  0.32289   0.75407   
H -1.05034  1.96384   -1.12454  
C 0.13831   -0.38820  1.08967   
H 0.20031   -0.76145  2.12532   
13
image # 17 Energy = -286.81485
C 1.28519   0.24781   0.29014   
C 0.58661   -1.02619  -0.22005  
C -0.66387  -0.53168  -0.87734  
C -1.08791  0.19266   0.35894   
C -0.45266  1.23158   -0.55972  
N 0.88271   1.41576   -0.37299  
H 2.31628   0.17244   0.65013   
H 1.13730   -1.96616  -0.39545  
H -1.22128  -0.88962  -1.74999  
H -2.08278  0.32083   0.75337   
H -1.04693  1.97512   -1.10021  
C 0.14268   -0.39757  1.10560   
H 0.20067   -0.74884  2.11429   
13
image # 18 Energy = -286.81593
C 1.27887   0.24455   0.29133   
C 0.59648   -1.03445  -0.21477  
C -0.66370  -0.49653  -0.89038  
C -1.09379  0.19232   0.37052   
C -0.45064  1.20122   -0.58633  
N 0.88011   1.41847   -0.36643  
H 2.32569   0.17095   0.65188   
H 1.12966   -1.95635  -0.39235  
H -1.22060  -0.89378  -1.74395  
H -2.08605  0.31935   0.75455   
H -1.04588  1.97387   -1.08973  
C 0.14252   -0.39402  1.09071   
H 0.20396   -0.74923  2.12287   
13
image # 19 Energy = -286.81916
C 1.29354   0.23382   0.30058   
C 0.59863   -1.02395  -0.20308  
C -0.67242  -0.45765  -0.90381  
C -1.09177  0.19033   0.36338   
C -0.45878  1.16898   -0.61239  
N 0.88162   1.42391   -0.36247  
H 2.32038   0.17054   0.64622   
H 1.12702   -1.95623  -0.38973  
H -1.21579  -0.89801  -1.73297  
H -2.09529  0.31738   0.75616   
H -1.04363  1.97263   -1.07375  
C 0.14849   -0.40193  1.09022   
H 0.20541   -0.74301  2.12056   
13
image # 20 Energy = -286.81968
C 1.30266   0.24618   0.30538   
C 0.58291   -1.01848  -0.21692  
C -0.65265  -0.45277  -0.90858  
C -1.09482  0.18970   0.38922   
C -0.45066  1.15832   -0.62465  
N 0.87876   1.41862   -0.35784  
H 2.32002   0.17411   0.65504   
H 1.12393   -1.95767  -0.39504  
H -1.21994  -0.88530  -1.73431  
H -2.09352  0.32145   0.76604   
H -1.04684  1.95375   -1.09131  
C 0.13728   -0.39903  1.09271   
H 0.21091   -0.75155  2.11984   
13
image # 21 Energy = -286.82196
C 1.29944   0.25257   0.30832   
C 0.58866   -1.02307  -0.21997  
C -0.65746  -0.44068  -0.91855  
C -1.08453  0.19092   0.39260   
C -0.44908  1.14279   -0.63299  
N 0.87967   1.41875   -0.35282  
H 2.32326   0.17841   0.66711   
H 1.11340   -1.94871  -0.40164  
H -1.21738  -0.86330  -1.72634  
H -2.10074  0.32725   0.78183   
H -1.04913  1.92708   -1.11525  
C 0.13623   -0.40339  1.10363   
H 0.21626   -0.76067  2.11418   
13
image # 22 Energy = -286.82385
C 1.30278   0.24809   0.31526   
C 0.59239   -1.01524  -0.21240  
C -0.65572  -0.41593  -0.90660  
C -1.09570  0.19198   0.39223   
C -0.45382  1.12758   -0.64098  
N 0.88285   1.42207   -0.34969  
H 2.32110   0.18332   0.67690   
H 1.10801   -1.94754  -0.41013  
H -1.22383  -0.84863  -1.73124  
H -2.09315  0.33101   0.79094   
H -1.05074  1.90081   -1.13862  
C 0.14394   -0.40814  1.10077   
H 0.22101   -0.77081  2.11392   
13
image # 23 Energy = -286.82333
C 1.30363   0.24870   0.32124   
C 0.59286   -1.00865  -0.20821  
C -0.65869  -0.41353  -0.91992  
C -1.10149  0.19287   0.40980   
C -0.46174  1.12928   -0.65613  
N 0.88694   1.42231   -0.34452  
H 2.32016   0.18809   0.68745   
H 1.10256   -1.94622  -0.41882  
H -1.22191  -0.82564  -1.72327  
H -2.08763  0.33505   0.79993   
H -1.04784  1.86827   -1.15886  
C 0.14711   -0.40966  1.09690   
H 0.22554   -0.78159  2.11453   
13
image # 24 Energy = -286.82499
C 1.30368   0.25215   0.32839   
C 0.59150   -1.00508  -0.20917  
C -0.65205  -0.39729  -0.90532  
C -1.09617  0.19415   0.40357   
C -0.45520  1.11114   -0.65529  
N 0.88765   1.42479   -0.34292  
H 2.32105   0.19235   0.69918   
H 1.09360   -1.94074  -0.42825  
H -1.22933  -0.80634  -1.72694  
H -2.08945  0.33926   0.81334   
H -1.05461  1.84095   -1.18824  
C 0.14795   -0.41317  1.09960   
H 0.23137   -0.79217  2.11207   
