13   
From optimize.out: Frame 1 / 2, Energy=    -286.8516502831
C        0.0922150000   -0.0087750000   -0.0000000000
C       -0.2457400000   -0.0440020000   -0.0000000000
C       -0.0964600000    0.9759610000   -0.0000000000
C       -0.0874230000    0.0401730000    0.0000000000
C       -0.0949090000   -0.0450930000   -0.0000000000
N       -0.3250860000    0.0220610000   -0.0000000000
H        0.1496920000   -0.0001750000    0.0000000000
H        0.1338120000    0.0028580000   -0.0000000000
H        0.1389090000   -0.0265130000   -0.0000000000
H        0.1460600000    0.0008470000    0.0000000000
H        0.1397940000    0.0030050000   -0.0000000000
C       -0.0964740000    0.0793130000    0.0000000000
H        0.1456100000    0.0003410000    0.0000000000
