13   
From optimize.out: Frame 1 / 2, Energy=    -286.8516502831
C        1.5112975328    0.4410895933   -0.1334719881
C        0.6762476027   -0.8532161416   -0.0651110651
C       -0.2808059319   -0.4771236761   -1.1995647806
C       -1.0848945239    0.4079405316    0.7580546539
C       -0.5929600890    0.8947523342   -0.6140979223
N        0.8085407511    1.4610016109   -0.4399402184
H        2.5777702011    0.5066567657    0.0756198237
H        1.2121963132   -1.8020485502   -0.0914165359
H       -1.0447083667   -1.1594560826   -1.5687065793
H       -1.8794812201    0.8695979113    1.3339512666
H       -1.2396670597    1.5838911086   -1.1550453864
C       -0.3197423502   -0.6434965978    1.0937289271
H       -0.3437928594   -1.2295888074    2.0059998046
