13   
Frame   0 IRC: Energy =  -286.8792980000 ; +0.0000 kcal/mol
C        1.5317691294    0.3875039343   -0.4399566548
C        0.8337690146   -0.8076834498    0.0900348634
C       -0.6165411829   -1.0368339542   -0.3009473845
C       -1.1067408798    0.3381790563    0.1309002093
C       -0.4241352321    1.5188815620   -0.4507590603
N        0.8829745997    1.5199230081   -0.7107587759
H        2.6067161170    0.3678267039   -0.6028350782
H        1.4364525296   -1.6986929617    0.2546796319
H       -1.1326541347   -1.8966532769   -0.7027413773
H       -2.1710226880    0.4345942093    0.3358014699
H       -0.9905233400    2.4134509508   -0.6984913175
C       -0.3202338580   -0.5756028613    1.0547054956
H       -0.5298300744   -0.9648929203    2.0403679785
13   
Frame   1 IRC: Energy =  -286.8792840000 ; +0.0088 kcal/mol
C        1.5313669732    0.3878797353   -0.4374081148
C        0.8328570692   -0.8081548343    0.0880311847
C       -0.6173503249   -1.0357198456   -0.3013364732
C       -1.1061234303    0.3381215942    0.1315947180
C       -0.4239555459    1.5181251825   -0.4506757427
N        0.8826004067    1.5190157981   -0.7115748202
H        2.6055205108    0.3686638349   -0.6016922977
H        1.4359055852   -1.6980490134    0.2541413540
H       -1.1325185156   -1.8959745371   -0.7022798655
H       -2.1701119964    0.4347376608    0.3361694977
H       -0.9898452933    2.4121330178   -0.6995790705
C       -0.3188945889   -0.5760854557    1.0544815890
H       -0.5294508499   -0.9646931376    2.0401280414
13   
Frame   2 IRC: Energy =  -286.8792700000 ; +0.0176 kcal/mol
C        1.5313584371    0.3877546019   -0.4362754293
C        0.8323831452   -0.8085257486    0.0872348423
C       -0.6175090123   -1.0347239553   -0.3009637475
C       -1.1060199532    0.3376567941    0.1317825303
C       -0.4239108402    1.5180863503   -0.4505842295
N        0.8823689976    1.5188278559   -0.7120145380
H        2.6050001735    0.3689347260   -0.6014620833
H        1.4356690677   -1.6975897810    0.2540819903
H       -1.1324632265   -1.8959092202   -0.7021779861
H       -2.1697299473    0.4347864194    0.3361568553
H       -0.9895070800    2.4116194743   -0.6997936849
C       -0.3181644896   -0.5762378309    1.0536847559
H       -0.5294752721   -0.9646796858    2.0403307245
13   
Frame   3 IRC: Energy =  -286.8791340000 ; +0.1029 kcal/mol
C        1.5332001978    0.3896928401   -0.4345625288
C        0.8314107617   -0.8113406622    0.0781066049
C       -0.6219996217   -1.0330720693   -0.3007971318
C       -1.1041364444    0.3424200195    0.1422624158
C       -0.4253615249    1.5169469500   -0.4569459207
N        0.8829982972    1.5198761543   -0.7103367640
H        2.6132813414    0.3806805932   -0.5624202544
H        1.4313611129   -1.7065454694    0.2307256369
H       -1.1457802051   -1.8884684256   -0.7025626789
H       -2.1657900668    0.4429731257    0.3594562200
H       -0.9986376348    2.3976897658   -0.7373799429
C       -0.3140959095   -0.5782490154    1.0545508566
H       -0.5164503038   -0.9726038068    2.0399034872
13   
Frame   4 IRC: Energy =  -286.8791280000 ; +0.1067 kcal/mol
C        1.5334138882    0.3902393828   -0.4348188821
C        0.8310468491   -0.8114136791    0.0780653593
C       -0.6218952822   -1.0330403421   -0.3007002376
C       -1.1041356562    0.3427367615    0.1424832404
C       -0.4256734892    1.5167119367   -0.4569824717
N        0.8834486331    1.5195882095   -0.7102202214
H        2.6133530141    0.3809332862   -0.5614566855
H        1.4313686476   -1.7069220393    0.2301643622
H       -1.1461616894   -1.8883672338   -0.7026140159
H       -2.1656631944    0.4431612517    0.3600165659
H       -0.9989466726    2.3974856508   -0.7383030088
C       -0.3140118276   -0.5782744169    1.0543958116
H       -0.5161432205   -0.9728387681    2.0399701837
13   
Frame   5 IRC: Energy =  -286.8790670000 ; +0.1450 kcal/mol
C        1.5333895950    0.3903474428   -0.4320665589
C        0.8305479640   -0.8124743450    0.0742184391
C       -0.6237294276   -1.0315763995   -0.3010455885
C       -1.1031282790    0.3436455471    0.1458592313
C       -0.4256314688    1.5161135469   -0.4588605173
N        0.8827754284    1.5196484685   -0.7104778479
H        2.6144906302    0.3847089742   -0.5502544077
H        1.4296479947   -1.7086117284    0.2234843907
H       -1.1495966926   -1.8858381636   -0.7023187406
H       -2.1638725936    0.4454608597    0.3664828161
H       -1.0005745538    2.3924007873   -0.7489420170
C       -0.3119879803   -0.5790983378    1.0543482602
H       -0.5123306167   -0.9747266520    2.0395725407
13   
Frame   6 IRC: Energy =  -286.8790580000 ; +0.1506 kcal/mol
C        1.5332221421    0.3896906738   -0.4316072177
C        0.8308384184   -0.8125564705    0.0738713689
C       -0.6238371102   -1.0312076113   -0.3008939042
C       -1.1031238412    0.3433719855    0.1462452847
C       -0.4254438550    1.5163325027   -0.4591407875
N        0.8823421772    1.5201213341   -0.7105876167
H        2.6147463012    0.3850003202   -0.5495025727
H        1.4294370323   -1.7085915909    0.2229974280
H       -1.1498919334   -1.8857532881   -0.7023411297
H       -2.1637215701    0.4456424066    0.3669187931
H       -1.0005898127    2.3919066119   -0.7496505146
C       -0.3118831087   -0.5790486984    1.0540175472
H       -0.5120948399   -0.9749081757    2.0396733211
13   
Frame   7 IRC: Energy =  -286.8787890000 ; +0.3194 kcal/mol
C        1.5345536727    0.3926251848   -0.4265308593
C        0.8279656796   -0.8159685709    0.0620471364
C       -0.6290681327   -1.0277128512   -0.3014568903
C       -1.1003055136    0.3478340655    0.1565314691
C       -0.4268579776    1.5138075743   -0.4652454509
N        0.8826972282    1.5192177909   -0.7101790670
H        2.6189194380    0.3973156587   -0.5091993780
H        1.4243359168   -1.7159730830    0.1993851287
H       -1.1625093995   -1.8780175153   -0.7011921571
H       -2.1581678079    0.4535361974    0.3890338138
H       -1.0075885144    2.3758133115   -0.7855899353
C       -0.3055699473   -0.5812925796    1.0537242920
H       -0.4984046426   -0.9811851832    2.0386718982
13   
Frame   8 IRC: Energy =  -286.8787720000 ; +0.3301 kcal/mol
C        1.5342497850    0.3919186560   -0.4260279781
C        0.8282962565   -0.8160762654    0.0614460776
C       -0.6293404323   -1.0274941797   -0.3014418088
C       -1.1003834539    0.3477749862    0.1571993705
C       -0.4268188187    1.5140383521   -0.4657207378
N        0.8823677090    1.5197725556   -0.7102681474
H        2.6194720465    0.3979088045   -0.5074161306
H        1.4240058045   -1.7161765216    0.1982910997
H       -1.1631023802   -1.8776902194   -0.7011575938
H       -2.1578291601    0.4539062252    0.3900017272
H       -1.0077777311    2.3749058241   -0.7871516432
C       -0.3053301372   -0.5812782217    1.0535230985
H       -0.4978094880   -0.9815099958    2.0387226663
13   
Frame   9 IRC: Energy =  -286.8784170000 ; +0.5528 kcal/mol
C        1.5353931414    0.3945939244   -0.4210983529
C        0.8252478389   -0.8195650982    0.0490182515
C       -0.6346072279   -1.0240342747   -0.3021923790
C       -1.0974056356    0.3516293697    0.1660277969
C       -0.4279802409    1.5113362521   -0.4721585669
N        0.8823531071    1.5187770002   -0.7099265009
H        2.6217694490    0.4099108293   -0.4660318699
H        1.4187080959   -1.7231633672    0.1744046417
H       -1.1756042243   -1.8711716191   -0.6985458699
H       -2.1521921149    0.4612955791    0.4103909642
H       -1.0137675279    2.3592667841   -0.8198633609
C       -0.2986947592   -0.5829823223    1.0524081691
H       -0.4832199016   -0.9858930574    2.0375670771
13   
Frame  10 IRC: Energy =  -286.8783890000 ; +0.5704 kcal/mol
C        1.5346565190    0.3939187818   -0.4205043500
C        0.8255435615   -0.8195543369    0.0481554650
C       -0.6349962029   -1.0238674096   -0.3022437615
C       -1.0975468639    0.3516371724    0.1668194041
C       -0.4282197495    1.5116106587   -0.4727654927
N        0.8823358422    1.5191999038   -0.7100396969
H        2.6224950947    0.4107106500   -0.4635387938
H        1.4183169533   -1.7235396427    0.1729341010
H       -1.1763602275   -1.8707380941   -0.6983723896
H       -2.1516622303    0.4617551478    0.4115698896
H       -1.0139366558    2.3580385211   -0.8217441510
C       -0.2982556777   -0.5829503782    1.0520707501
H       -0.4823703629   -0.9862209740    2.0376590257
13   
Frame  11 IRC: Energy =  -286.8779340000 ; +0.8559 kcal/mol
C        1.5358900918    0.3962092130   -0.4163763405
C        0.8222982842   -0.8234312053    0.0347226263
C       -0.6404581572   -1.0209877850   -0.3031610022
C       -1.0945819532    0.3549883907    0.1739077926
C       -0.4291514042    1.5087877469   -0.4799118429
N        0.8819060055    1.5183908532   -0.7097077149
H        2.6229274116    0.4226023757   -0.4191436115
H        1.4127900416   -1.7305235885    0.1479222367
H       -1.1891591908   -1.8659700092   -0.6937286990
H       -2.1460186915    0.4687143442    0.4303523745
H       -1.0191908559    2.3436749605   -0.8513668458
C       -0.2912346161   -0.5840402774    1.0501600557
H       -0.4660169659   -0.9884150187    2.0363309711
13   
Frame  12 IRC: Energy =  -286.8778910000 ; +0.8829 kcal/mol
C        1.5347856822    0.3956108967   -0.4158382785
C        0.8225538846   -0.8233960894    0.0336191047
C       -0.6409534074   -1.0208958608   -0.3032617107
C       -1.0946550938    0.3550111107    0.1747107118
C       -0.4296072038    1.5091332353   -0.4807030289
N        0.8821078833    1.5186722891   -0.7098022829
H        2.6237616541    0.4235766318   -0.4158388661
H        1.4123278282   -1.7310480825    0.1460495572
H       -1.1900872296   -1.8655450113   -0.6933457911
H       -2.1454183436    0.4692455960    0.4316788830
H       -1.0193213958    2.3422472844   -0.8533973651
C       -0.2906502454   -0.5839581946    1.0496859629
H       -0.4648440129   -0.9886538054    2.0364431037
13   
Frame  13 IRC: Energy =  -286.8773250000 ; +1.2381 kcal/mol
C        1.5359456133    0.3974291275   -0.4124716914
C        0.8191165741   -0.8275835090    0.0192573095
C       -0.6465312355   -1.0187863820   -0.3043834679
C       -1.0918593050    0.3577687189    0.1797179591
C       -0.4303166278    1.5062380362   -0.4884783983
N        0.8813441336    1.5180871173   -0.7095960692
H        2.6217061793    0.4349666126   -0.3689301944
H        1.4067498527   -1.7379278858    0.1203134872
H       -1.2027861673   -1.8629546687   -0.6863096543
H       -2.1397500259    0.4755799369    0.4481917423
H       -1.0236290557    2.3301076390   -0.8790678002
C       -0.2832230681   -0.5844089658    1.0468912862
H       -0.4467668678   -0.9885157772    2.0348654914
13   
Frame  14 IRC: Energy =  -286.8772590000 ; +1.2795 kcal/mol
C        1.5344608545    0.3969126375   -0.4120251572
C        0.8193336117   -0.8276104844    0.0178281106
C       -0.6471763550   -1.0187736614   -0.3045432523
C       -1.0917940146    0.3577923875    0.1804592777
C       -0.4309741787    1.5066578253   -0.4895253229
N        0.8817156334    1.5182259131   -0.7096706884
H        2.6225363640    0.4361391635   -0.3644984832
H        1.4061715698   -1.7385877781    0.1178998479
H       -1.2039235382   -1.8626129247   -0.6855887309
H       -2.1390917356    0.4761916231    0.4496633510
H       -1.0236898715    2.3285191000   -0.8812119088
C       -0.2824452983   -0.5842641698    1.0462377744
H       -0.4451230415   -0.9885896317    2.0349751821
13   
Frame  15 IRC: Energy =  -286.8765720000 ; +1.7106 kcal/mol
C        1.5355688787    0.3982519345   -0.4093838660
C        0.8157641196   -0.8319620335    0.0028509670
C       -0.6526891927   -1.0174995593   -0.3058095453
C       -1.0892822694    0.3599443072    0.1833727870
C       -0.4314004556    1.5038604353   -0.4976428682
N        0.8807037986    1.5180213223   -0.7094653460
H        2.6176640669    0.4464987140   -0.3161922255
H        1.4007909238   -1.7452199068    0.0919775922
H       -1.2160947135   -1.8623170629   -0.6761765810
H       -2.1335097658    0.4817942579    0.4635724414
H       -1.0270379365    2.3191489949   -0.9028066539
C       -0.2747602036   -0.5840946300    1.0426536475
H       -0.4257172506   -0.9864267735    2.0330496508
13   
Frame  16 IRC: Energy =  -286.8764710000 ; +1.7740 kcal/mol
C        1.5336880848    0.3978426343   -0.4090966726
C        0.8159121787   -0.8321407178    0.0009996201
C       -0.6535375722   -1.0175970312   -0.3060459045
C       -1.0890301018    0.3598879906    0.1840133847
C       -0.4322745269    1.5043671618   -0.4990080820
N        0.8812731094    1.5180369984   -0.7095054500
H        2.6183438214    0.4478742989   -0.3102488505
H        1.4000721216   -1.7460274146    0.0888424265
H       -1.2174673990   -1.8621307684   -0.6749413347
H       -2.1327846349    0.4825048922    0.4651813505
H       -1.0270175773    2.3174825039   -0.9050695924
C       -0.2737621422   -0.5838448606    1.0417803471
H       -0.4234153614   -0.9862556875    2.0330987575
13   
Frame  17 IRC: Energy =  -286.8756630000 ; +2.2810 kcal/mol
C        1.5348330577    0.3987633907   -0.4068633161
C        0.8123239745   -0.8364280654   -0.0140912236
C       -0.6587432691   -1.0170421701   -0.3074027717
C       -1.0868917772    0.3615751280    0.1849971461
C       -0.4323177559    1.5017886895   -0.5070620503
N        0.8800238608    1.5183447871   -0.7090982237
H        2.6106097260    0.4566657800   -0.2623831192
H        1.3951208224   -1.7521852827    0.0635029823
H       -1.2286711979   -1.8639235639   -0.6635197924
H       -2.1274158345    0.4872587348    0.4763820201
H       -1.0294302086    2.3109624843   -0.9228052889
C       -0.2660028529   -0.5831759874    1.0375890871
H       -0.4034385453   -0.9826039249    2.0307545503
13   
Frame  18 IRC: Energy =  -286.8755040000 ; +2.3808 kcal/mol
C        1.5326009461    0.3985524275   -0.4067757509
C        0.8124264492   -0.8368234155   -0.0165935878
C       -0.6599425879   -1.0172388019   -0.3077389331
C       -1.0863869970    0.3613502319    0.1854797052
C       -0.4334516397    1.5024045643   -0.5088553819
N        0.8808466022    1.5182005008   -0.7090437002
H        2.6108043688    0.4582535056   -0.2542293628
H        1.3942177888   -1.7532035295    0.0592957043
H       -1.2303673737   -1.8640145306   -0.6614798849
H       -2.1265541099    0.4881000445    0.4781655603
H       -1.0293186527    2.3092695224   -0.9253038893
C       -0.2647243719   -0.5827624601    1.0364219634
H       -0.4001504223   -0.9820880594    2.0306575578
13   
Frame  19 IRC: Energy =  -286.8745670000 ; +2.9687 kcal/mol
C        1.5337455632    0.3990489137   -0.4046120405
C        0.8087971280   -0.8409354814   -0.0316112332
C       -0.6646587988   -1.0172973933   -0.3091934108
C       -1.0846824449    0.3627678090    0.1848658164
C       -0.4330489236    1.5001131712   -0.5166042377
N        0.8793635643    1.5191959967   -0.7082555136
H        2.6004840072    0.4653003865   -0.2076693423
H        1.3897614659   -1.7588133372    0.0348047566
H       -1.2404730335   -1.8675326412   -0.6483090440
H       -2.1214651701    0.4919873441    0.4869774639
H       -1.0308873677    2.3052602828   -0.9398969796
C       -0.2568997670   -0.5816890141    1.0316999708
H       -0.3800362230   -0.9774060367    2.0278037940
13   
Frame  20 IRC: Energy =  -286.8743180000 ; +3.1250 kcal/mol
C        1.5312299955    0.3991459026   -0.4047274611
C        0.8089158756   -0.8416388934   -0.0350467676
C       -0.6663212244   -1.0176003696   -0.3096563910
C       -1.0838766939    0.3623322903    0.1850530297
C       -0.4344786813    1.5009302199   -0.5189413859
N        0.8804876395    1.5188617218   -0.7079953278
H        2.5997037067    0.4670301229   -0.1965835515
H        1.3886145528   -1.7600642731    0.0291556944
H       -1.2425718924   -1.8681048546   -0.6450727883
H       -2.1204308174    0.4929535777    0.4889322950
H       -1.0306300014    2.3036185066   -0.9426941648
C       -0.2552391108   -0.5810435088    1.0301294561
H       -0.3754033486   -0.9764204424    2.0274473629
13   
Frame  21 IRC: Energy =  -286.8732260000 ; +3.8102 kcal/mol
C        1.5322595411    0.3992271412   -0.4023983859
C        0.8051198795   -0.8455123533   -0.0501253328
C       -0.6705395735   -1.0181572368   -0.3113165865
C       -1.0826118248    0.3635863078    0.1831508855
C       -0.4336215257    1.4989172798   -0.5263037393
N        0.8788012203    1.5207046216   -0.7065699354
H        2.5870265132    0.4723075148   -0.1512118806
H        1.3846034211   -1.7651973897    0.0053275354
H       -1.2516195804   -1.8730363845   -0.6300612360
H       -2.1155722480    0.4959421215    0.4958186892
H       -1.0314447980    2.3017029505   -0.9549980823
C       -0.2472427785   -0.5795525098    1.0247923235
H       -0.3551582464   -0.9709320631    2.0238957451
13   
Frame  22 IRC: Energy =  -286.8728490000 ; +4.0468 kcal/mol
C        1.5295089189    0.3996900942   -0.4026474294
C        0.8052876156   -0.8466034882   -0.0546839709
C       -0.6726414420   -1.0185720620   -0.3119509200
C       -1.0814991200    0.3629144283    0.1828831553
C       -0.4353846715    1.5000586652   -0.5292041317
N        0.8802775458    1.5202444293   -0.7059378171
H        2.5847869527    0.4739554977   -0.1369481976
H        1.3831772859   -1.7666053322   -0.0019046578
H       -1.2540748155   -1.8742925905   -0.6252400305
H       -2.1143898142    0.4969291093    0.4978452269
H       -1.0309259453    2.3002344410   -0.9580176708
C       -0.2451268160   -0.5785866067    1.0226837246
H       -0.3489956944   -0.9693665853    2.0231227192
13   
Frame  23 IRC: Energy =  -286.8715340000 ; +4.8720 kcal/mol
C        1.5302754815    0.3995389500   -0.4000413652
C        0.8012447918   -0.8502855948   -0.0704333373
C       -0.6765556828   -1.0195248227   -0.3140393600
C       -1.0806197401    0.3640478132    0.1797655083
C       -0.4341248412    1.4984633593   -0.5363232368
N        0.8784714497    1.5230642166   -0.7033637476
H        2.5695957704    0.4773049849   -0.0913869167
H        1.3793804970   -1.7715263794   -0.0257884671
H       -1.2622600200   -1.8805680614   -0.6076342630
H       -2.1096039979    0.4988398377    0.5033577584
H       -1.0311494791    2.3001107859   -0.9689598263
C       -0.2366281737   -0.5764737292    1.0163809772
H       -0.3280260555   -0.9629913600    2.0184662760
13   
Frame  24 IRC: Energy =  -286.8710360000 ; +5.1845 kcal/mol
C        1.5273702277    0.4002600224   -0.4003584593
C        0.8016061523   -0.8516003660   -0.0756955824
C       -0.6789496706   -1.0200703123   -0.3148765192
C       -1.0792499075    0.3631374577    0.1789909644
C       -0.4363665082    1.5000775367   -0.5394455074
N        0.8804049124    1.5226501280   -0.7022267577
H        2.5660721519    0.4784055693   -0.0756309128
H        1.3777812834   -1.7728794506   -0.0337253453
H       -1.2646235221   -1.8823608445   -0.6014549614
H       -2.1084704933    0.4995552328    0.5051840467
H       -1.0303092279    2.2989591249   -0.9717774302
C       -0.2342516747   -0.5751817140    1.0138858064
H       -0.3210137235   -0.9609523845    2.0171306579
13   
Frame  25 IRC: Energy =  -286.8694910000 ; +6.1540 kcal/mol
C        1.5280136744    0.4001526495   -0.3972765109
C        0.7972642436   -0.8550824502   -0.0919452123
C       -0.6821190255   -1.0208471808   -0.3175411113
C       -1.0787750248    0.3641615799    0.1748165664
C       -0.4345045012    1.4989752815   -0.5460229166
N        0.8783521355    1.5264491060   -0.6980791570
H        2.5487420373    0.4792934193   -0.0310929483
H        1.3740201305   -1.7777147801   -0.0568863164
H       -1.2717529501   -1.8896271354   -0.5813540130
H       -2.1037491071    0.4998656087    0.5096135922
H       -1.0303352887    2.3004019629   -0.9815928453
C       -0.2252960204   -0.5721765858    1.0061676731
H       -0.2998603036   -0.9538514755    2.0111931995
13   
Frame  26 IRC: Energy =  -286.8688770000 ; +6.5393 kcal/mol
C        1.5252042078    0.4009313542   -0.3974744172
C        0.7981302943   -0.8563209994   -0.0978364320
C       -0.6851632348   -1.0221659455   -0.3192385229
C       -1.0773786727    0.3635424508    0.1734229924
C       -0.4370825525    1.5009877878   -0.5491043326
N        0.8805157303    1.5263259066   -0.6963165115
H        2.5440941550    0.4795176775   -0.0149104441
H        1.3722239443   -1.7790453961   -0.0648899745
H       -1.2735612767   -1.8914159887   -0.5738996019
H       -2.1026304375    0.4999693678    0.5112109551
H       -1.0293506000    2.2995969417   -0.9841289187
C       -0.2225783037   -0.5706776206    1.0044203870
H       -0.2924232537   -0.9512455359    2.0087448210
13   
Frame  27 IRC: Energy =  -286.8671350000 ; +7.6324 kcal/mol
C        1.5255103306    0.4011287977   -0.3939132183
C        0.7935522482   -0.8597784737   -0.1139555475
C       -0.6867257026   -1.0215722980   -0.3222174782
C       -1.0769489430    0.3640280439    0.1686018687
C       -0.4351114675    1.5007468837   -0.5549312344
N        0.8785255609    1.5307555743   -0.6905084145
H        2.5258437945    0.4775980163    0.0266858017
H        1.3682208891   -1.7840150210   -0.0859806542
H       -1.2794312246   -1.8989797605   -0.5520675541
H       -2.0980849080    0.4982797128    0.5149459224
H       -1.0297641023    2.3020286513   -0.9926824214
C       -0.2134916687   -0.5664314882    0.9941635656
H       -0.2720948067   -0.9437886387    2.0018593641
13   
Frame  28 IRC: Energy =  -286.8663010000 ; +8.1557 kcal/mol
C        1.5231306826    0.4018333806   -0.3935406138
C        0.7945208344   -0.8610301922   -0.1213498420
C       -0.6903038785   -1.0236539101   -0.3251642390
C       -1.0757653526    0.3640700876    0.1662901980
C       -0.4374026339    1.5028432506   -0.5580700415
N        0.8803070464    1.5314367265   -0.6876408013
H        2.5191572643    0.4765090878    0.0449518299
H        1.3659292830   -1.7858711134   -0.0947354463
H       -1.2807587311   -1.9007586436   -0.5421313493
H       -2.0965491651    0.4973177099    0.5166124589
H       -1.0291513765    2.3018716154   -0.9955126107
C       -0.2097438796   -0.5644714817    0.9927508787
H       -0.2633700935   -0.9400965173    1.9975395783
13   
Frame  29 IRC: Energy =  -286.8643140000 ; +9.4026 kcal/mol
C        1.5225895627    0.4024176824   -0.3892219160
C        0.7904095364   -0.8648289628   -0.1374199927
C       -0.6902764977   -1.0212925014   -0.3292027993
C       -1.0749333219    0.3640510421    0.1608389544
C       -0.4363791028    1.5040234064   -0.5633857470
N        0.8786968079    1.5359955256   -0.6799904099
H        2.5007741508    0.4715106892    0.0833795175
H        1.3612711750   -1.7917376213   -0.1131944187
H       -1.2850176423   -1.9074914576   -0.5184984308
H       -2.0920144874    0.4933043700    0.5201797521
H       -1.0307403130    2.3047102298   -1.0028219076
C       -0.2003596338   -0.5585434160    0.9799573546
H       -0.2440202339   -0.9321189864    1.9893800434
13   
Frame  30 IRC: Energy =  -286.8631070000 ; +10.1600 kcal/mol
C        1.5203035892    0.4030612865   -0.3875734825
C        0.7913814237   -0.8665856352   -0.1469814029
C       -0.6938625801   -1.0234344950   -0.3340382557
C       -1.0738800572    0.3646280533    0.1572589095
C       -0.4385464824    1.5065203667   -0.5667288583
N        0.8799464039    1.5376060014   -0.6753322887
H        2.4916114975    0.4682164536    0.1044844297
H        1.3580888992   -1.7950072229   -0.1226919322
H       -1.2855849333   -1.9088297571   -0.5048422526
H       -2.0897660544    0.4905660647    0.5222589049
H       -1.0313724367    2.3053847611   -1.0061328427
C       -0.1948340753   -0.5553182767    0.9778359248
H       -0.2334851940   -0.9268076004    1.9824831468
13   
Frame  31 IRC: Energy =  -286.8607660000 ; +11.6290 kcal/mol
C        1.5186031788    0.4034723165   -0.3814273376
C        0.7884853736   -0.8715397007   -0.1626815596
C       -0.6918245987   -1.0185704552   -0.3401854593
C       -1.0724121815    0.3650602480    0.1512292397
C       -0.4393621177    1.5092607863   -0.5719544330
N        0.8778756161    1.5413118465   -0.6654263494
H        2.4737589675    0.4598524825    0.1391352806
H        1.3530438798   -1.8033589790   -0.1380586095
H       -1.2873698765   -1.9128600175   -0.4791353352
H       -2.0847105103    0.4840720953    0.5260594676
H       -1.0357266943    2.3087117501   -1.0123642308
C       -0.1853651311   -0.5475949830    0.9624077717
H       -0.2149959056   -0.9178173897    1.9724015548
13   
Frame  32 IRC: Energy =  -286.8576830000 ; +13.5636 kcal/mol
C        1.5106008826    0.4028585935   -0.3683941384
C        0.7890769507   -0.8795111209   -0.1815075607
C       -0.6923034372   -1.0149391338   -0.3548765137
C       -1.0698487052    0.3670552867    0.1433464271
C       -0.4446282108    1.5142992827   -0.5775404653
N        0.8759740243    1.5422196352   -0.6542148426
H        2.4549275464    0.4484574639    0.1737817409
H        1.3479183892   -1.8156832508   -0.1521785168
H       -1.2841384824   -1.9101952508   -0.4486748904
H       -2.0783346237    0.4755160673    0.5303986896
H       -1.0425098357    2.3114751371   -1.0178613836
C       -0.1720794550   -0.5367634693    0.9515542048
H       -0.1946550434   -0.9047892408    1.9561672490
13   
Frame  33 IRC: Energy =  -286.8538050000 ; +15.9971 kcal/mol
C        1.5001656109    0.4011313577   -0.3499549149
C        0.7884810655   -0.8900345309   -0.1996967064
C       -0.6891772014   -1.0066130815   -0.3717000601
C       -1.0668407273    0.3691951316    0.1358954856
C       -0.4505711678    1.5190052541   -0.5824755022
N        0.8716389793    1.5410727727   -0.6429480723
H        2.4362410917    0.4358080208    0.2049273511
H        1.3440260051   -1.8305146379   -0.1645145144
H       -1.2793417738   -1.9055341089   -0.4175869176
H       -2.0710343718    0.4663865786    0.5345784905
H       -1.0512224924    2.3144801485   -1.0228486438
C       -0.1578147899   -0.5233413509    0.9360989649
H       -0.1745502279   -0.8910415540    1.9402250396
13   
Frame  34 IRC: Energy =  -286.8489800000 ; +19.0248 kcal/mol
C        1.4816194586    0.3981880937   -0.3200727916
C        0.7854072542   -0.9041127480   -0.2144372434
C       -0.6870561024   -0.9979145051   -0.4000930773
C       -1.0633832399    0.3693244526    0.1305488671
C       -0.4574854236    1.5222467258   -0.5837700790
N        0.8662946262    1.5360188815   -0.6378417472
H        2.4217946553    0.4256515489    0.2245761381
H        1.3431582065   -1.8445094004   -0.1719081259
H       -1.2736423193   -1.8994304251   -0.3938926296
H       -2.0648122805    0.4597172958    0.5369059943
H       -1.0579387214    2.3151627334   -1.0252278548
C       -0.1356072401   -0.5024224766    0.9272329749
H       -0.1583488737   -0.8779201767    1.9279795746
13   
Frame  35 IRC: Energy =  -286.8425330000 ; +23.0704 kcal/mol
C        1.4602644653    0.3952557586   -0.2855495234
C        0.7795662319   -0.9194071208   -0.2256288078
C       -0.6866922631   -0.9909322820   -0.4351461872
C       -1.0600788673    0.3678837351    0.1270610709
C       -0.4635795578    1.5241474180   -0.5827623985
N        0.8611728091    1.5302644759   -0.6372524265
H        2.4108264440    0.4182707731    0.2375090371
H        1.3436973616   -1.8558452895   -0.1766318688
H       -1.2697749053   -1.8956163278   -0.3769376839
H       -2.0606096106    0.4552481885    0.5380904027
H       -1.0621383312    2.3144277681   -1.0261622296
C       -0.1075818910   -0.4772574217    0.9232211833
H       -0.1450718856   -0.8664396756    1.9201894315
13   
Frame  36 IRC: Energy =  -286.8343980000 ; +28.1752 kcal/mol
C        1.4382950312    0.3923748938   -0.2490767104
C        0.7720142499   -0.9349897866   -0.2335793799
C       -0.6887240408   -0.9870300990   -0.4741264830
C       -1.0573748004    0.3663816476    0.1250451926
C       -0.4683516155    1.5246969693   -0.5803463697
N        0.8561108946    1.5250433534   -0.6399151996
H        2.4027805987    0.4132399259    0.2459178858
H        1.3447635886   -1.8643003021   -0.1796308572
H       -1.2675470351   -1.8937111815   -0.3653181071
H       -2.0582677328    0.4523906338    0.5385893895
H       -1.0642103267    2.3127995971   -1.0262518046
C       -0.0756405705   -0.4507197961    0.9232017463
H       -0.1338482411   -0.8561758556    1.9154906972
13   
Frame  37 IRC: Energy =  -286.8253920000 ; +33.8266 kcal/mol
C        1.4167737463    0.3892940316   -0.2119361760
C        0.7632555420   -0.9504614363   -0.2387477810
C       -0.6927975354   -0.9856880000   -0.5151805791
C       -1.0553633923    0.3650939787    0.1242797223
C       -0.4717586072    1.5239111760   -0.5773435551
N        0.8507607318    1.5208680883   -0.6446172544
H        2.3969340271    0.4098666579    0.2515019121
H        1.3458239763   -1.8703088502   -0.1816757209
H       -1.2664121097   -1.8928477249   -0.3573394297
H       -2.0572376911    0.4505218633    0.5387581313
H       -1.0647866058    2.3107055266   -1.0259646007
C       -0.0414562112   -0.4242975767    0.9254368388
H       -0.1237358709   -0.8466577344    1.9128284923
13   
Frame  38 IRC: Energy =  -286.8175010000 ; +38.7782 kcal/mol
C        1.3970329056    0.3840555201   -0.1744108353
C        0.7532328338   -0.9648797196   -0.2412879526
C       -0.6989859520   -0.9865829242   -0.5570107275
C       -1.0544074133    0.3624209358    0.1251738279
C       -0.4719594087    1.5218436154   -0.5746963020
N        0.8431279864    1.5193029894   -0.6508124418
H        2.3927483983    0.4077146787    0.2550572231
H        1.3465487982   -1.8739710824   -0.1832993038
H       -1.2658028374   -1.8917791198   -0.3525335533
H       -2.0569520360    0.4492014781    0.5386931931
H       -1.0644103231    2.3086367874   -1.0257373710
C       -0.0060207998   -0.3981223157    0.9289009954
H       -0.1141521519   -0.8378408432    1.9119632481
13   