
Running Job 1 of 1 irc_product.in
qchem irc_product.in_122392.0 ./irc_product.d/ 1
/home/leeping/opt/qchem/5.0.2-openmp/exe/qcprog.exe_s irc_product.in_122392.0 ./irc_product.d/
Check license passed

                  Welcome to Q-Chem
     A Quantum Leap Into The Future Of Chemistry


 Q-Chem 5.0, Q-Chem, Inc., Pleasanton, CA (2017)

 Yihan Shao,  Zhengting Gan,  E. Epifanovsky,  A. T. B. Gilbert,  M. Wormit,  
 J. Kussmann,  A. W. Lange,  A. Behn,  Jia Deng,  Xintian Feng,  D. Ghosh,  
 M. Goldey,  P. R. Horn,  L. D. Jacobson,  I. Kaliman,  T. Kus,  A. Landau,  
 Jie Liu,  E. I. Proynov,  R. M. Richard,  R. P. Steele,  E. J. Sundstrom,  
 H. L. Woodcock III,  P. M. Zimmerman,  D. Zuev,  B. Albrecht,  E. Alguire,  
 S. A. Baeppler,  D. Barton,  Z. Benda,  Y. A. Bernard,  E. J. Berquist,  
 K. B. Bravaya,  H. Burton,  D. Casanova,  Chun-Min Chang,  Yunqing Chen,  
 A. Chien,  K. D. Closser,  M. P. Coons,  S. Dasgupta,  A. L. Dempwolff,  
 M. Diedenhofen,  Hainam Do,  R. G. Edgar,  Po-Tung Fang,  S. Fatehi,  
 Qingguo Feng,  J. Fosso-Tande,  Qinghui Ge,  A. Ghysels,  G. Gidofalvi,  
 J. Gomes,  J. Gonthier,  A. Gunina,  M. W. D. Hanson-Heine,  
 P. H. P. Harbach,  A. W. Hauser,  J. E. Herr,  E. G. Hohenstein,  
 Z. C. Holden,  Kerwin Hui,  T.-C. Jagau,  Hyunjun Ji,  B. Kaduk,  
 K. Khistyaev,  Jaehoon Kim,  P. Klunzinger,  K. Koh,  D. Kosenkov,  
 L. Koulias,  T. Kowalczyk,  C. M. Krauter,  A. Kunitsa,  Ka Un Lao,  
 A. Laurent,  K. V. Lawler,  Joonho Lee,  D. Lefrancois,  S. Lehtola,  
 D. S. Levine,  Yi-Pei Li,  You-Sheng Lin,  Fenglai Liu,  E. Livshits,  
 A. Luenser,  P. Manohar,  E. Mansoor,  S. F. Manzer,  Shan-Ping Mao,  
 Yuezhi Mao,  N. Mardirossian,  A. V. Marenich,  T. Markovich,  
 L. A. Martinez-Martinez,  S. A. Maurer,  N. J. Mayhall,  S. C. McKenzie,  
 J.-M. Mewes,  A. F. Morrison,  J. W. Mullinax,  K. Nanda,  
 T. S. Nguyen-Beck,  R. Olivares-Amaya,  J. A. Parkhill,  T. M. Perrine,  
 F. Plasser,  S. Prager,  A. Prociuk,  E. Ramos,  D. R. Rehn,  F. Rob,  
 M. Schneider,  N. Sergueev,  S. M. Sharada,  S. Sharma,  D. W. Small,  
 T. Stauch,  T. Stein,  Yu-Chuan Su,  A. J. W. Thom,  A. Tkatchenko,  
 T. Tsuchimochi,  L. Vogt,  O. Vydrov,  M. A. Watson,  J. Wenzel,  
 M. de Wergifosse,  T. A. Wesolowski,  A. White,  J. Witte,  A. Yamada,  
 Jun Yang,  K. Yao,  S. Yeganeh,  S. R. Yost,  Zhi-Qiang You,  A. Zech,  
 Igor Ying Zhang,  Xing Zhang,  Yan Zhao,  Ying Zhu,  B. R. Brooks,  
 G. K. L. Chan,  C. J. Cramer,  M. S. Gordon,  W. J. Hehre,  A. Klamt,  
 M. W. Schmidt,  C. D. Sherrill,  D. G. Truhlar,  A. Aspuru-Guzik,  R. Baer,  
 A. T. Bell,  N. A. Besley,  Jeng-Da Chai,  R. A. DiStasio Jr.,  A. Dreuw,  
 B. D. Dunietz,  T. R. Furlani,  Chao-Ping Hsu,  Yousung Jung,  Jing Kong,  
 D. S. Lambrecht,  WanZhen Liang,  C. Ochsenfeld,  V. A. Rassolov,  
 L. V. Slipchenko,  J. E. Subotnik,  T. Van Voorhis,  J. M. Herbert,  
 A. I. Krylov,  P. M. W. Gill,  M. Head-Gordon

 Contributors to earlier versions of Q-Chem not listed above: 
 R. D. Adamson,  B. Austin,  J. Baker,  G. J. O. Beran,  K. Brandhorst,  
 S. T. Brown,  E. F. C. Byrd,  A. K. Chakraborty,  C.-L. Cheng,  
 Siu Hung Chien,  D. M. Chipman,  D. L. Crittenden,  H. Dachsel,  
 R. J. Doerksen,  A. D. Dutoi,  L. Fusti-Molnar,  W. A. Goddard III,  
 A. Golubeva-Zadorozhnaya,  S. R. Gwaltney,  G. Hawkins,  A. Heyden,  
 S. Hirata,  G. Kedziora,  F. J. Keil,  C. Kelley,  Jihan Kim,  R. A. King,  
 R. Z. Khaliullin,  P. P. Korambath,  W. Kurlancheek,  A. M. Lee,  M. S. Lee,  
 S. V. Levchenko,  Ching Yeh Lin,  D. Liotard,  R. C. Lochan,  I. Lotan,  
 P. E. Maslen,  N. Nair,  D. P. O'Neill,  D. Neuhauser,  E. Neuscamman,  
 C. M. Oana,  R. Olson,  B. Peters,  R. Peverati,  P. A. Pieniazek,  
 Y. M. Rhee,  J. Ritchie,  M. A. Rohrdanz,  E. Rosta,  N. J. Russ,  
 H. F. Schaefer III,  N. E. Schultz,  N. Shenvi,  A. C. Simmonett,  A. Sodt,  
 D. Stuck,  K. S. Thanthiriwatte,  V. Vanovschi,  Tao Wang,  A. Warshel,  
 C. F. Williams,  Q. Wu,  X. Xu,  W. Zhang

 Please cite Q-Chem as follows:
 Y. Shao et al., Mol. Phys. 113, 184-215 (2015)
 DOI: 10.1080/00268976.2014.952696

 Q-Chem 5.0.2 for Intel X86 EM64T Linux

 Parts of Q-Chem use Armadillo 5.200.1 (Boston Tea Smuggler).
 http://arma.sourceforge.net/

 Q-Chem begins on Wed Mar  2 21:01:33 2022  

Host: 
0

     Scratch files written to ./irc_product.d//
 Dec517 15110_ 26548  26544 5633   
Processing $rem in /home/leeping/opt/qchem/5.0.2-openmp/config/preferences.
 MEM_STATIC 2000
 MEM_TOTAL  8000
 SYMMETRY   OFF
 SYM_IGNORE TRUE 

Checking the input file for inconsistencies... 	...done.

--------------------------------------------------------------
User input:
--------------------------------------------------------------
$molecule
0 2
C        1.2597448084    0.3321969575    0.1068559308
C        0.6489960655   -1.0675865977   -0.1936357648
C       -0.7132319978   -0.9451369054   -0.7330007774
C       -1.0391926723    0.2469393086    0.1796590851
C       -0.4931654901    1.4551200509   -0.5688286865
N        0.7869585746    1.4734679724   -0.6470928761
H        2.3049806421    0.3294328027    0.3945910797
H        1.2971764082   -1.9370483221   -0.2233693693
H       -1.3824965898   -1.7736001156   -0.9325051877
H       -2.0343718091    0.3223283394    0.6168036708
H       -1.1096161737    2.1736055418   -1.1056649509
C        0.2068598179   -0.1957771508    1.0222708238
H        0.2673584161   -0.4139418817    2.0839170225
$end

$rem
method                b3lyp
basis                 6-31+g(d,p)
unrestricted          true
symmetry              off
sym_ignore            true
incdft                false
incfock               0
scf_convergence       6
thresh                14
jobtype               sp
scf_guess             read
scf_algorithm         diis
max_scf_cycles        100
stability_analysis    true
max_cis_cycles        100
cis_n_roots           4
$end

--------------------------------------------------------------
 ----------------------------------------------------------------
             Standard Nuclear Orientation (Angstroms)
    I     Atom           X                Y                Z
 ----------------------------------------------------------------
    1      C       1.2597448084     0.3321969575     0.1068559308
    2      C       0.6489960655    -1.0675865977    -0.1936357648
    3      C      -0.7132319978    -0.9451369054    -0.7330007774
    4      C      -1.0391926723     0.2469393086     0.1796590851
    5      C      -0.4931654901     1.4551200509    -0.5688286865
    6      N       0.7869585746     1.4734679724    -0.6470928761
    7      H       2.3049806421     0.3294328027     0.3945910797
    8      H       1.2971764082    -1.9370483221    -0.2233693693
    9      H      -1.3824965898    -1.7736001156    -0.9325051877
   10      H      -2.0343718091     0.3223283394     0.6168036708
   11      H      -1.1096161737     2.1736055418    -1.1056649509
   12      C       0.2068598179    -0.1957771508     1.0222708238
   13      H       0.2673584161    -0.4139418817     2.0839170225
 ----------------------------------------------------------------
 Nuclear Repulsion Energy =   282.0876633581 hartrees
 There are       25 alpha and       24 beta electrons
 Requested basis set is 6-31+G(d,p)
 There are 53 shells and 163 basis functions

 Total QAlloc Memory Limit   8000 MB
 Mega-Array Size      1956 MB
 MEM_STATIC part      2000 MB

                       Distance Matrix (Angstroms)
             C (  1)   C (  2)   C (  3)   C (  4)   C (  5)   N (  6)
   C (  2)  1.556504
   C (  3)  2.495912  1.470229
   C (  4)  2.301670  2.171937  1.536309
   C (  5)  2.188653  2.794522  2.415909  1.522524
   N (  6)  1.447227  2.584882  2.847385  2.350047  1.282646
   H (  7)  1.084120  2.244985  3.464910  3.352088  3.166223  2.167559
   H (  8)  2.293452  1.084890  2.298990  3.223485  3.851165  3.474404
   H (  9)  3.534981  2.274059  1.083544  2.331812  3.368650  3.915539
   H ( 10)  3.333369  3.128760  2.274610  1.089569  2.250391  3.298858
   H ( 11)  3.236489  3.798663  3.165842  2.317123  1.088313  2.073036
   C ( 12)  1.491747  1.560117  2.118747  1.568005  2.397310  2.430981
   H ( 13)  2.334593  2.400030  3.029645  2.402090  3.332994  3.360166
             H (  7)   H (  8)   H (  9)   H ( 10)   H ( 11)   C ( 12)
   H (  8)  2.556263
   H (  9)  4.447631  2.776731
   H ( 10)  4.345044  4.112163  2.686674
   H ( 11)  4.160675  4.844437  3.960414  2.692452
   C ( 12)  2.252096  2.402589  2.972664  2.335799  3.446040
   H ( 13)  2.749242  2.950246  3.697228  2.827097  4.331846  1.085518

 
 A cutoff of  1.0D-14 yielded   1402 shell pairs
 There are     13508 function pairs
 Smallest overlap matrix eigenvalue = 2.55E-05

 Scale SEOQF with 1.000000e-01/1.000000e-01/1.000000e-01

 Standard Electronic Orientation quadrupole field applied
 Nucleus-field energy     =     0.0000000030 hartrees
 Guess MOs from SCF MO coefficient file
 Reading MOs from coefficient file
 Reading MOs from coefficient file
 An unrestricted hybrid HF-DFT SCF calculation will be
 performed using Pulay DIIS extrapolation
 Exchange:     0.2000 Hartree-Fock + 0.0800 Slater + 0.7200 B88
 Correlation:  0.1900 VWN1RPA + 0.8100 LYP
 Using SG-1 standard quadrature grid
 SCF converges when DIIS error is below 1.0E-06
Using Q-Chem read-in guess as SCF_GUESS READ specified.

 -------------------------------------------------------
 OpenMP BLAS3 based DFT computing Module                
 -------------------------------------------------------
 ---------------------------------------
  Cycle       Energy         DIIS Error
 ---------------------------------------
    1    -286.8568785878      8.94E-10
    2    -286.8568785878      1.13E-09 Convergence criterion met
 ---------------------------------------
 <S^2> = 0.7556
 SCF time:  CPU 6.44 s  wall 7.39 s
 SCF   energy in the final basis set = -286.85687859
 Total energy in the final basis set = -286.85687859
 
 Direct TDDFT/TDA calculation will be performed
 Exchange:     0.2000 Hartree-Fock + 0.0800 Slater + 0.7200 B88
 Correlation:  0.1900 VWN1RPA + 0.8100 LYP
 Using SG-1 standard quadrature grid
 CIS energy converged when residual is below 10e- 6
 ---------------------------------------------------
 Iter    Rts Conv    Rts Left    Ttl Dev     Max Dev
 ---------------------------------------------------
   1         0           4      0.001578    0.000794
   2         0           4      0.000728    0.000256
   3         0           4      0.000298    0.000123
   4         0           4      0.000178    0.000069
   5         0           4      0.001004    0.000926
   6         0           4      0.000353    0.000319
   7         0           4      0.000191    0.000163
   8         1           3      0.000103    0.000081
   9         1           3      0.000025    0.000018
  10         2           2      0.000005    0.000004
  11         4           0      0.000001    0.000001    Roots Converged
 ---------------------------------------------------
 
 ---------------------------------------------------
         TDDFT/TDA Excitation Energies              
 ---------------------------------------------------

 Excited state   1: excitation energy (eV) =    3.1511
 Total energy for state  1:                  -286.74107750 au
    <S**2>     :  0.8596
    Trans. Mom.:  0.0190 X   0.3059 Y  -0.0244 Z
    Strength   :     0.0072972050
    S(  1) --> V(  1) amplitude =  0.9801 alpha

 Excited state   2: excitation energy (eV) =    3.9888
 Total energy for state  2:                  -286.71029383 au
    <S**2>     :  0.8126
    Trans. Mom.:  0.0104 X  -0.0252 Y   0.1912 Z
    Strength   :     0.0036452672
    S(  1) --> V(  2) amplitude =  0.9798 alpha

 Excited state   3: excitation energy (eV) =    4.0760
 Total energy for state  3:                  -286.70709014 au
    <S**2>     :  1.8067
    Trans. Mom.:  0.0620 X   0.0531 Y   0.0059 Z
    Strength   :     0.0006685360
    D( 24) --> V(  1) amplitude =  0.4311 alpha
    D( 23) --> S(  1) amplitude = -0.2395 beta
    D( 24) --> S(  1) amplitude = -0.7568 beta
    D( 24) --> V(  1) amplitude = -0.2920 beta

 Excited state   4: excitation energy (eV) =    4.4472
 Total energy for state  4:                  -286.69344843 au
    <S**2>     :  0.8400
    Trans. Mom.: -0.1665 X   0.0408 Y  -0.0909 Z
    Strength   :     0.0041022778
    S(  1) --> V(  3) amplitude =  0.9187 alpha
    S(  1) --> V(  4) amplitude = -0.3083 alpha
 
 ---------------------------------------------------

 Stability analysis will be performed
 ---------------------------------------------------
 Iter    Rts Conv    Rts Left    Ttl Dev     Max Dev
 ---------------------------------------------------
   1         0           8      0.003042    0.000665
   2         0           8      0.002214    0.000819
   3         0           8      0.001417    0.000610
   4         1           7      0.000711    0.000347
   5         2           6      0.000368    0.000196
   6         2           6      0.000154    0.000097
   7         4           4      0.000055    0.000037
   8         4           4      0.000020    0.000014
   9         7           1      0.000007    0.000005
  10         7           1      0.000003    0.000002
  11         8           0      0.000002    0.000000    Roots Converged
 UKS-> UKS   stable,    smallest eigenvalue:      0.1029737
 UKS->CUKS   stable,    smallest eigenvalue:      0.1151624
 ---------------------------------------------------
  SETman timing summary (seconds)
  CPU time               209.94s
  System time              0.00s
  Wall time              222.91s
 
 --------------------------------------------------------------
 
                    Orbital Energies (a.u.)
 --------------------------------------------------------------
 
 Alpha MOs
 -- Occupied --
-14.334 -10.233 -10.231 -10.223 -10.221 -10.220 -10.211  -0.980
 -0.867  -0.760  -0.673  -0.615  -0.583  -0.549  -0.518  -0.464
 -0.450  -0.420  -0.410  -0.369  -0.344  -0.317  -0.282  -0.270
 -0.180
 -- Virtual --
 -0.021  -0.001   0.015   0.021   0.029   0.045   0.049   0.061
  0.071   0.073   0.080   0.092   0.103   0.107   0.110   0.119
  0.121   0.137   0.143   0.161   0.163   0.175   0.178   0.185
  0.187   0.197   0.212   0.218   0.224   0.241   0.246   0.254
  0.261   0.271   0.285   0.298   0.306   0.321   0.328   0.343
  0.354   0.382   0.420   0.460   0.620   0.656   0.666   0.673
  0.691   0.711   0.724   0.745   0.752   0.757   0.784   0.794
  0.802   0.809   0.859   0.894   0.915   0.938   0.958   0.981
  0.999   1.013   1.044   1.059   1.084   1.086   1.125   1.169
  1.211   1.242   1.263   1.391   1.411   1.433   1.482   1.512
  1.576   1.602   1.644   1.674   1.734   1.773   1.809   1.839
  1.889   1.924   1.936   2.012   2.028   2.078   2.110   2.152
  2.157   2.220   2.248   2.298   2.321   2.361   2.366   2.370
  2.392   2.442   2.453   2.463   2.489   2.510   2.545   2.558
  2.580   2.615   2.633   2.635   2.691   2.700   2.743   2.820
  2.828   2.903   2.993   3.028   3.094   3.268   3.314   3.355
  3.511   3.533   3.691   4.177   4.417   4.461   4.584   4.601
  4.659   4.852
 
 Beta MOs
 -- Occupied --
-14.334 -10.233 -10.231 -10.221 -10.220 -10.220 -10.199  -0.976
 -0.861  -0.753  -0.661  -0.611  -0.579  -0.544  -0.511  -0.458
 -0.446  -0.415  -0.406  -0.360  -0.340  -0.304  -0.275  -0.266
 -- Virtual --
 -0.060  -0.012  -0.000   0.015   0.022   0.032   0.045   0.050
  0.061   0.071   0.077   0.083   0.094   0.104   0.108   0.111
  0.121   0.124   0.139   0.146   0.162   0.165   0.177   0.179
  0.186   0.189   0.197   0.212   0.223   0.227   0.243   0.249
  0.256   0.261   0.274   0.289   0.299   0.310   0.322   0.330
  0.348   0.359   0.385   0.425   0.465   0.624   0.664   0.668
  0.693   0.703   0.714   0.727   0.751   0.755   0.768   0.787
  0.797   0.806   0.813   0.863   0.897   0.917   0.943   0.961
  0.984   1.001   1.016   1.046   1.062   1.087   1.093   1.135
  1.175   1.217   1.247   1.268   1.395   1.413   1.439   1.485
  1.515   1.579   1.617   1.648   1.678   1.740   1.783   1.814
  1.849   1.895   1.931   1.942   2.019   2.032   2.086   2.123
  2.156   2.162   2.234   2.254   2.303   2.323   2.364   2.367
  2.374   2.396   2.451   2.456   2.470   2.492   2.517   2.548
  2.562   2.590   2.621   2.638   2.641   2.695   2.705   2.745
  2.822   2.833   2.909   2.995   3.033   3.095   3.270   3.316
  3.358   3.512   3.536   3.695   4.178   4.436   4.464   4.589
  4.604   4.663   4.857
 --------------------------------------------------------------
 
          Ground-State Mulliken Net Atomic Charges

     Atom                 Charge (a.u.)    Spin (a.u.)
  --------------------------------------------------------
      1 C                    -0.252763       0.013896
      2 C                    -0.105839      -0.100926
      3 C                    -0.112111       1.000164
      4 C                    -0.109622      -0.086708
      5 C                    -0.011946      -0.001511
      6 N                    -0.177757       0.027052
      7 H                     0.144852       0.003257
      8 H                     0.140091       0.000360
      9 H                     0.136871      -0.039868
     10 H                     0.131484       0.008308
     11 H                     0.131973       0.001596
     12 C                    -0.050420       0.166695
     13 H                     0.135187       0.007685
  --------------------------------------------------------
  Sum of atomic charges =     0.000000
  Sum of spin   charges =     1.000000

 -----------------------------------------------------------------
                    Cartesian Multipole Moments
 -----------------------------------------------------------------
    Charge (ESU x 10^10)
                 0.0000
    Dipole Moment (Debye)
         X      -1.2641      Y      -1.8140      Z       1.9029
       Tot       2.9172
    Quadrupole Moments (Debye-Ang)
        XX     -38.6635     XY      -4.3981     YY     -43.2517
        XZ       2.2150     YZ       0.9939     ZZ     -43.3340
    Octopole Moments (Debye-Ang^2)
       XXX      -8.8964    XXY      -9.5325    XYY     -11.4384
       YYY     -28.1499    XXZ       7.4961    XYZ       3.6577
       YYZ       3.8926    XZZ      -4.8670    YZZ      -7.6732
       ZZZ      21.9729
    Hexadecapole Moments (Debye-Ang^3)
      XXXX    -232.2587   XXXY     -10.0303   XXYY     -93.0550
      XYYY     -25.8875   YYYY    -318.2302   XXXZ      -6.1255
      XXYZ       9.9586   XYYZ       7.1911   YYYZ      24.3048
      XXZZ     -71.2196   XYZZ      -7.5059   YYZZ     -81.3880
      XZZZ      -9.1664   YZZZ      15.8061   ZZZZ    -162.3291
 -----------------------------------------------------------------
Archival summary:
1\1\c8-90\SP\ProcedureUnspecified\6-31+G**\166(2)\hpark21\WedMar221:05:262022WedMar221:05:262022\0\\#,ProcedureUnspecified,6-31+G**,\\0,2\N\C,1,1.28265\H,2,1.08831,1,121.72\C,1,1.44723,2,106.438,3,-175.983,0\H,4,1.08412,1,117.081,2,-163.121,0\C,4,1.49175,1,111.606,2,-17.3592,0\H,6,1.08552,4,129.194,1,-129.005,0\C,2,1.52252,1,113.533,3,172.477,0\H,8,1.08957,2,118.028,1,157.453,0\C,8,1.53631,2,104.335,1,-67.7908,0\H,10,1.08354,8,124.862,2,-138.586,0\C,10,1.47023,8,92.4802,2,84.2748,0\H,12,1.08489,10,127.609,8,158.921,0\\\@

 Total job time:  232.34s(wall), 216.59s(cpu) 
 Wed Mar  2 21:05:26 2022

        *************************************************************
        *                                                           *
        *  Thank you very much for using Q-Chem.  Have a nice day.  *
        *                                                           *
        *************************************************************


