
Running Job 1 of 1 irc_reactant.in
qchem irc_reactant.in_120788.0 ./irc_reactant.d/ 1
/home/leeping/opt/qchem/5.0.2-openmp/exe/qcprog.exe_s irc_reactant.in_120788.0 ./irc_reactant.d/
Check license passed

                  Welcome to Q-Chem
     A Quantum Leap Into The Future Of Chemistry


 Q-Chem 5.0, Q-Chem, Inc., Pleasanton, CA (2017)

 Yihan Shao,  Zhengting Gan,  E. Epifanovsky,  A. T. B. Gilbert,  M. Wormit,  
 J. Kussmann,  A. W. Lange,  A. Behn,  Jia Deng,  Xintian Feng,  D. Ghosh,  
 M. Goldey,  P. R. Horn,  L. D. Jacobson,  I. Kaliman,  T. Kus,  A. Landau,  
 Jie Liu,  E. I. Proynov,  R. M. Richard,  R. P. Steele,  E. J. Sundstrom,  
 H. L. Woodcock III,  P. M. Zimmerman,  D. Zuev,  B. Albrecht,  E. Alguire,  
 S. A. Baeppler,  D. Barton,  Z. Benda,  Y. A. Bernard,  E. J. Berquist,  
 K. B. Bravaya,  H. Burton,  D. Casanova,  Chun-Min Chang,  Yunqing Chen,  
 A. Chien,  K. D. Closser,  M. P. Coons,  S. Dasgupta,  A. L. Dempwolff,  
 M. Diedenhofen,  Hainam Do,  R. G. Edgar,  Po-Tung Fang,  S. Fatehi,  
 Qingguo Feng,  J. Fosso-Tande,  Qinghui Ge,  A. Ghysels,  G. Gidofalvi,  
 J. Gomes,  J. Gonthier,  A. Gunina,  M. W. D. Hanson-Heine,  
 P. H. P. Harbach,  A. W. Hauser,  J. E. Herr,  E. G. Hohenstein,  
 Z. C. Holden,  Kerwin Hui,  T.-C. Jagau,  Hyunjun Ji,  B. Kaduk,  
 K. Khistyaev,  Jaehoon Kim,  P. Klunzinger,  K. Koh,  D. Kosenkov,  
 L. Koulias,  T. Kowalczyk,  C. M. Krauter,  A. Kunitsa,  Ka Un Lao,  
 A. Laurent,  K. V. Lawler,  Joonho Lee,  D. Lefrancois,  S. Lehtola,  
 D. S. Levine,  Yi-Pei Li,  You-Sheng Lin,  Fenglai Liu,  E. Livshits,  
 A. Luenser,  P. Manohar,  E. Mansoor,  S. F. Manzer,  Shan-Ping Mao,  
 Yuezhi Mao,  N. Mardirossian,  A. V. Marenich,  T. Markovich,  
 L. A. Martinez-Martinez,  S. A. Maurer,  N. J. Mayhall,  S. C. McKenzie,  
 J.-M. Mewes,  A. F. Morrison,  J. W. Mullinax,  K. Nanda,  
 T. S. Nguyen-Beck,  R. Olivares-Amaya,  J. A. Parkhill,  T. M. Perrine,  
 F. Plasser,  S. Prager,  A. Prociuk,  E. Ramos,  D. R. Rehn,  F. Rob,  
 M. Schneider,  N. Sergueev,  S. M. Sharada,  S. Sharma,  D. W. Small,  
 T. Stauch,  T. Stein,  Yu-Chuan Su,  A. J. W. Thom,  A. Tkatchenko,  
 T. Tsuchimochi,  L. Vogt,  O. Vydrov,  M. A. Watson,  J. Wenzel,  
 M. de Wergifosse,  T. A. Wesolowski,  A. White,  J. Witte,  A. Yamada,  
 Jun Yang,  K. Yao,  S. Yeganeh,  S. R. Yost,  Zhi-Qiang You,  A. Zech,  
 Igor Ying Zhang,  Xing Zhang,  Yan Zhao,  Ying Zhu,  B. R. Brooks,  
 G. K. L. Chan,  C. J. Cramer,  M. S. Gordon,  W. J. Hehre,  A. Klamt,  
 M. W. Schmidt,  C. D. Sherrill,  D. G. Truhlar,  A. Aspuru-Guzik,  R. Baer,  
 A. T. Bell,  N. A. Besley,  Jeng-Da Chai,  R. A. DiStasio Jr.,  A. Dreuw,  
 B. D. Dunietz,  T. R. Furlani,  Chao-Ping Hsu,  Yousung Jung,  Jing Kong,  
 D. S. Lambrecht,  WanZhen Liang,  C. Ochsenfeld,  V. A. Rassolov,  
 L. V. Slipchenko,  J. E. Subotnik,  T. Van Voorhis,  J. M. Herbert,  
 A. I. Krylov,  P. M. W. Gill,  M. Head-Gordon

 Contributors to earlier versions of Q-Chem not listed above: 
 R. D. Adamson,  B. Austin,  J. Baker,  G. J. O. Beran,  K. Brandhorst,  
 S. T. Brown,  E. F. C. Byrd,  A. K. Chakraborty,  C.-L. Cheng,  
 Siu Hung Chien,  D. M. Chipman,  D. L. Crittenden,  H. Dachsel,  
 R. J. Doerksen,  A. D. Dutoi,  L. Fusti-Molnar,  W. A. Goddard III,  
 A. Golubeva-Zadorozhnaya,  S. R. Gwaltney,  G. Hawkins,  A. Heyden,  
 S. Hirata,  G. Kedziora,  F. J. Keil,  C. Kelley,  Jihan Kim,  R. A. King,  
 R. Z. Khaliullin,  P. P. Korambath,  W. Kurlancheek,  A. M. Lee,  M. S. Lee,  
 S. V. Levchenko,  Ching Yeh Lin,  D. Liotard,  R. C. Lochan,  I. Lotan,  
 P. E. Maslen,  N. Nair,  D. P. O'Neill,  D. Neuhauser,  E. Neuscamman,  
 C. M. Oana,  R. Olson,  B. Peters,  R. Peverati,  P. A. Pieniazek,  
 Y. M. Rhee,  J. Ritchie,  M. A. Rohrdanz,  E. Rosta,  N. J. Russ,  
 H. F. Schaefer III,  N. E. Schultz,  N. Shenvi,  A. C. Simmonett,  A. Sodt,  
 D. Stuck,  K. S. Thanthiriwatte,  V. Vanovschi,  Tao Wang,  A. Warshel,  
 C. F. Williams,  Q. Wu,  X. Xu,  W. Zhang

 Please cite Q-Chem as follows:
 Y. Shao et al., Mol. Phys. 113, 184-215 (2015)
 DOI: 10.1080/00268976.2014.952696

 Q-Chem 5.0.2 for Intel X86 EM64T Linux

 Parts of Q-Chem use Armadillo 5.200.1 (Boston Tea Smuggler).
 http://arma.sourceforge.net/

 Q-Chem begins on Wed Mar  2 20:57:04 2022  

Host: 
0

     Scratch files written to ./irc_reactant.d//
 Dec517 15110_ 26548  26544 5633   
Processing $rem in /home/leeping/opt/qchem/5.0.2-openmp/config/preferences.
 MEM_STATIC 2000
 MEM_TOTAL  8000
 SYMMETRY   OFF
 SYM_IGNORE TRUE 

Checking the input file for inconsistencies... 	...done.

--------------------------------------------------------------
User input:
--------------------------------------------------------------
$molecule
0 2
C        1.5317691294    0.3875039343   -0.4399566548
C        0.8337690146   -0.8076834498    0.0900348634
C       -0.6165411829   -1.0368339542   -0.3009473845
C       -1.1067408798    0.3381790563    0.1309002093
C       -0.4241352321    1.5188815620   -0.4507590603
N        0.8829745997    1.5199230081   -0.7107587759
H        2.6067161170    0.3678267039   -0.6028350782
H        1.4364525296   -1.6986929617    0.2546796319
H       -1.1326541347   -1.8966532769   -0.7027413773
H       -2.1710226880    0.4345942093    0.3358014699
H       -0.9905233400    2.4134509508   -0.6984913175
C       -0.3202338580   -0.5756028613    1.0547054956
H       -0.5298300744   -0.9648929203    2.0403679785
$end

$rem
method                b3lyp
basis                 6-31+g(d,p)
unrestricted          true
symmetry              off
sym_ignore            true
incdft                false
incfock               0
scf_convergence       6
thresh                14
jobtype               sp
scf_guess             read
scf_algorithm         diis
max_scf_cycles        100
stability_analysis    true
max_cis_cycles        100
cis_n_roots           4
$end

--------------------------------------------------------------
 ----------------------------------------------------------------
             Standard Nuclear Orientation (Angstroms)
    I     Atom           X                Y                Z
 ----------------------------------------------------------------
    1      C       1.5317691294     0.3875039343    -0.4399566548
    2      C       0.8337690146    -0.8076834498     0.0900348634
    3      C      -0.6165411829    -1.0368339542    -0.3009473845
    4      C      -1.1067408798     0.3381790563     0.1309002093
    5      C      -0.4241352321     1.5188815620    -0.4507590603
    6      N       0.8829745997     1.5199230081    -0.7107587759
    7      H       2.6067161170     0.3678267039    -0.6028350782
    8      H       1.4364525296    -1.6986929617     0.2546796319
    9      H      -1.1326541347    -1.8966532769    -0.7027413773
   10      H      -2.1710226880     0.4345942093     0.3358014699
   11      H      -0.9905233400     2.4134509508    -0.6984913175
   12      C      -0.3202338580    -0.5756028613     1.0547054956
   13      H      -0.5298300744    -0.9648929203     2.0403679785
 ----------------------------------------------------------------
 Nuclear Repulsion Energy =   277.1372684093 hartrees
 There are       25 alpha and       24 beta electrons
 Requested basis set is 6-31+G(d,p)
 There are 53 shells and 163 basis functions

 Total QAlloc Memory Limit   8000 MB
 Mega-Array Size      1956 MB
 MEM_STATIC part      2000 MB

                       Distance Matrix (Angstroms)
             C (  1)   C (  2)   C (  3)   C (  4)   C (  5)   N (  6)
   C (  2)  1.482082
   C (  3)  2.581337  1.519466
   C (  4)  2.700008  2.253941  1.522317
   C (  5)  2.259578  2.699571  2.567323  1.482679
   N (  6)  1.332907  2.462000  2.992240  2.462494  1.332718
   H (  7)  1.087395  2.237238  3.528965  3.785368  3.245630  2.076116
   H (  8)  2.200869  1.088225  2.227456  3.260675  3.783149  3.405569
   H (  9)  3.519315  2.383520  1.080324  2.385394  3.497338  3.966840
   H ( 10)  3.783475  3.260740  2.233151  1.088107  2.201357  3.405896
   H ( 11)  3.245499  3.784907  3.493189  2.237890  1.087392  2.075702
   C ( 12)  2.567393  1.521898  1.462302  1.518883  2.581489  2.992625
   H ( 13)  3.497310  2.384935  2.344025  2.382622  3.519378  3.967244
             H (  7)   H (  8)   H (  9)   H ( 10)   H ( 11)   C ( 12)
   H (  8)  2.524946
   H (  9)  4.372727  2.748846
   H ( 10)  4.869526  4.191822  2.755267
   H ( 11)  4.139307  4.869135  4.312449  2.525711
   C ( 12)  3.493499  2.233231  2.343890  2.227721  3.529508
   H ( 13)  4.312840  2.755615  2.959092  2.749113  4.373419  1.080281

 
 A cutoff of  1.0D-14 yielded   1391 shell pairs
 There are     13471 function pairs
 Smallest overlap matrix eigenvalue = 4.90E-05

 Scale SEOQF with 1.000000e-01/1.000000e-01/1.000000e-01

 Standard Electronic Orientation quadrupole field applied
 Nucleus-field energy     =     0.0000000039 hartrees
 Guess MOs from SCF MO coefficient file
 Reading MOs from coefficient file
 Reading MOs from coefficient file
 An unrestricted hybrid HF-DFT SCF calculation will be
 performed using Pulay DIIS extrapolation
 Exchange:     0.2000 Hartree-Fock + 0.0800 Slater + 0.7200 B88
 Correlation:  0.1900 VWN1RPA + 0.8100 LYP
 Using SG-1 standard quadrature grid
 SCF converges when DIIS error is below 1.0E-06
Using Q-Chem read-in guess as SCF_GUESS READ specified.

 -------------------------------------------------------
 OpenMP BLAS3 based DFT computing Module                
 -------------------------------------------------------
 ---------------------------------------
  Cycle       Energy         DIIS Error
 ---------------------------------------
    1    -286.8792976383      1.29E-09
    2    -286.8792976383      1.04E-09 Convergence criterion met
 ---------------------------------------
 <S^2> = 0.7726
 SCF time:  CPU 6.34 s  wall 6.83 s
 SCF   energy in the final basis set = -286.87929764
 Total energy in the final basis set = -286.87929764
 
 Direct TDDFT/TDA calculation will be performed
 Exchange:     0.2000 Hartree-Fock + 0.0800 Slater + 0.7200 B88
 Correlation:  0.1900 VWN1RPA + 0.8100 LYP
 Using SG-1 standard quadrature grid
 CIS energy converged when residual is below 10e- 6
 ---------------------------------------------------
 Iter    Rts Conv    Rts Left    Ttl Dev     Max Dev
 ---------------------------------------------------
   1         0           4      0.002107    0.001367
   2         0           4      0.000645    0.000338
   3         0           4      0.000309    0.000215
   4         0           4      0.000110    0.000070
   5         0           4      0.000035    0.000022
   6         2           2      0.000013    0.000007
   7         2           2      0.000057    0.000054
   8         3           1      0.000209    0.000207
   9         3           1      0.000082    0.000080
  10         3           1      0.000035    0.000033
  11         3           1      0.000012    0.000010
  12         3           1      0.000005    0.000003
  13         4           0      0.000003    0.000001    Roots Converged
 ---------------------------------------------------
 
 ---------------------------------------------------
         TDDFT/TDA Excitation Energies              
 ---------------------------------------------------

 Excited state   1: excitation energy (eV) =    2.8207
 Total energy for state  1:                  -286.77563899 au
    <S**2>     :  0.7804
    Trans. Mom.: -0.0008 X  -0.0015 Y   0.0008 Z
    Strength   :     0.0000002492
    D( 24) --> S(  1) amplitude =  0.9970 beta

 Excited state   2: excitation energy (eV) =    3.5321
 Total energy for state  2:                  -286.74949594 au
    <S**2>     :  0.7681
    Trans. Mom.: -0.3892 X   0.2322 Y   0.0116 Z
    Strength   :     0.0177862124
    S(  1) --> V(  1) amplitude =  0.9207 alpha
    S(  1) --> V(  5) amplitude =  0.1676 alpha
    D( 23) --> S(  1) amplitude =  0.3011 beta

 Excited state   3: excitation energy (eV) =    4.1714
 Total energy for state  3:                  -286.72600018 au
    <S**2>     :  0.7906
    Trans. Mom.:  0.0038 X   0.0071 Y  -0.0027 Z
    Strength   :     0.0000073430
    S(  1) --> V(  2) amplitude =  0.9916 alpha

 Excited state   4: excitation energy (eV) =    4.5467
 Total energy for state  4:                  -286.71220774 au
    <S**2>     :  2.4845
    Trans. Mom.:  0.0112 X  -0.0376 Y  -0.0666 Z
    Strength   :     0.0006656626
    D( 24) --> V(  1) amplitude = -0.8459 alpha
    D( 24) --> V(  5) amplitude = -0.2264 alpha
    D( 24) --> V(  2) amplitude = -0.3610 beta
    D( 24) --> V(  5) amplitude =  0.1725 beta
 
 ---------------------------------------------------

 Stability analysis will be performed
 ---------------------------------------------------
 Iter    Rts Conv    Rts Left    Ttl Dev     Max Dev
 ---------------------------------------------------
   1         0           8      0.003229    0.000641
   2         0           8      0.001247    0.000448
   3         0           8      0.000545    0.000237
   4         1           7      0.000201    0.000098
   5         3           5      0.000129    0.000053
   6         3           5      0.000154    0.000121
   7         5           3      0.000087    0.000074
   8         6           2      0.000016    0.000011
   9         7           1      0.000005    0.000002
  10         8           0      0.000004    0.000001    Roots Converged
 UKS-> UKS   stable,    smallest eigenvalue:      0.1010497
 UKS->CUKS   stable,    smallest eigenvalue:      0.1049791
 ---------------------------------------------------
  SETman timing summary (seconds)
  CPU time               187.48s
  System time              0.00s
  Wall time              194.11s
 
 --------------------------------------------------------------
 
                    Orbital Energies (a.u.)
 --------------------------------------------------------------
 
 Alpha MOs
 -- Occupied --
-14.331 -10.226 -10.226 -10.226 -10.225 -10.225 -10.225  -0.970
 -0.907  -0.760  -0.652  -0.645  -0.597  -0.553  -0.490  -0.482
 -0.473  -0.417  -0.405  -0.373  -0.348  -0.310  -0.309  -0.239
 -0.184
 -- Virtual --
 -0.009  -0.001   0.017   0.023   0.030   0.044   0.053   0.062
  0.064   0.077   0.087   0.095   0.097   0.114   0.116   0.118
  0.123   0.143   0.147   0.149   0.162   0.173   0.179   0.186
  0.193   0.198   0.211   0.224   0.228   0.236   0.251   0.258
  0.259   0.269   0.309   0.310   0.313   0.317   0.322   0.324
  0.344   0.368   0.455   0.474   0.632   0.638   0.641   0.661
  0.676   0.711   0.736   0.740   0.745   0.751   0.784   0.786
  0.820   0.840   0.860   0.903   0.936   0.954   0.958   0.978
  1.012   1.023   1.044   1.088   1.113   1.136   1.152   1.155
  1.193   1.205   1.326   1.354   1.401   1.402   1.467   1.505
  1.545   1.562   1.594   1.653   1.729   1.775   1.789   1.810
  1.849   1.906   1.940   1.958   1.983   2.078   2.079   2.161
  2.165   2.175   2.195   2.272   2.334   2.348   2.367   2.395
  2.410   2.420   2.436   2.478   2.513   2.531   2.545   2.556
  2.598   2.609   2.614   2.661   2.677   2.705   2.763   2.882
  2.912   2.928   2.962   3.141   3.149   3.277   3.296   3.425
  3.521   3.571   3.684   4.171   4.315   4.400   4.600   4.606
  4.712   4.740
 
 Beta MOs
 -- Occupied --
-14.334 -10.226 -10.226 -10.223 -10.223 -10.218 -10.217  -0.966
 -0.905  -0.748  -0.641  -0.640  -0.592  -0.550  -0.484  -0.476
 -0.472  -0.413  -0.387  -0.370  -0.333  -0.309  -0.305  -0.239
 -- Virtual --
 -0.080  -0.001   0.001   0.017   0.024   0.038   0.045   0.053
  0.062   0.065   0.079   0.087   0.097   0.106   0.114   0.117
  0.118   0.130   0.144   0.148   0.151   0.163   0.173   0.181
  0.192   0.196   0.199   0.211   0.231   0.232   0.238   0.250
  0.264   0.265   0.269   0.310   0.311   0.316   0.318   0.328
  0.329   0.345   0.372   0.459   0.479   0.636   0.643   0.660
  0.662   0.680   0.738   0.745   0.746   0.754   0.756   0.788
  0.788   0.824   0.846   0.862   0.909   0.939   0.955   0.958
  0.980   1.007   1.024   1.044   1.086   1.126   1.143   1.155
  1.155   1.195   1.207   1.339   1.355   1.408   1.417   1.475
  1.508   1.559   1.570   1.595   1.664   1.735   1.777   1.793
  1.813   1.864   1.907   1.950   1.966   1.987   2.080   2.080
  2.167   2.170   2.189   2.210   2.275   2.334   2.354   2.371
  2.398   2.413   2.431   2.436   2.480   2.526   2.537   2.549
  2.567   2.599   2.610   2.626   2.666   2.685   2.713   2.763
  2.883   2.914   2.932   2.967   3.143   3.152   3.278   3.297
  3.427   3.523   3.572   3.687   4.167   4.329   4.409   4.604
  4.611   4.721   4.744
 --------------------------------------------------------------
 
          Ground-State Mulliken Net Atomic Charges

     Atom                 Charge (a.u.)    Spin (a.u.)
  --------------------------------------------------------
      1 C                    -0.100759       0.605706
      2 C                    -0.173201      -0.050554
      3 C                    -0.014160       0.081490
      4 C                    -0.172178      -0.050597
      5 C                    -0.102053       0.605374
      6 N                    -0.216376      -0.201758
      7 H                     0.124245      -0.032288
      8 H                     0.130359       0.000805
      9 H                     0.141388      -0.004008
     10 H                     0.130383       0.000801
     11 H                     0.124218      -0.032261
     12 C                    -0.013255       0.081282
     13 H                     0.141390      -0.003993
  --------------------------------------------------------
  Sum of atomic charges =    -0.000000
  Sum of spin   charges =     1.000000

 -----------------------------------------------------------------
                    Cartesian Multipole Moments
 -----------------------------------------------------------------
    Charge (ESU x 10^10)
                -0.0000
    Dipole Moment (Debye)
         X      -1.5157      Y      -2.6095      Z       1.2209
       Tot       3.2554
    Quadrupole Moments (Debye-Ang)
        XX     -38.5730     XY      -3.9678     YY     -43.1826
        XZ       0.6539     YZ       0.9559     ZZ     -43.0804
    Octopole Moments (Debye-Ang^2)
       XXX     -10.5152    XXY     -10.4685    XYY     -13.7760
       YYY     -31.7522    XXZ       3.4080    XYZ       2.5682
       YYZ       5.8597    XZZ      -7.0952    YZZ     -11.8217
       ZZZ      15.9590
    Hexadecapole Moments (Debye-Ang^3)
      XXXX    -273.2757   XXXY     -20.3694   XXYY    -107.7975
      XYYY     -35.9436   YYYY    -339.3124   XXXZ      20.7205
      XXYZ      17.3239   XYYZ      19.5527   YYYZ      50.6993
      XXZZ     -77.1170   XYZZ      -6.0987   YYZZ     -83.2771
      XZZZ      25.2419   YZZZ      42.5799   ZZZZ    -140.0405
 -----------------------------------------------------------------
Archival summary:
1\1\c8-90\SP\ProcedureUnspecified\6-31+G**\166(2)\hpark21\WedMar221:00:262022WedMar221:00:262022\0\\#,ProcedureUnspecified,6-31+G**,\\0,2\N\C,1,1.33272\H,2,1.08739,1,117.76\C,1,1.33291,2,115.919,3,-177.543,0\H,4,1.08739,1,117.783,2,-177.587,0\C,4,1.48208,1,121.907,2,1.28659,0\H,6,1.08822,4,116.972,1,178.226,0\C,2,1.48268,1,121.917,3,178.782,0\H,8,1.08811,2,116.976,1,178.372,0\C,8,1.51888,2,118.639,1,30.4606,0\H,10,1.08028,8,132.165,2,129.353,0\C,10,1.4623,8,61.3784,2,-105.846,0\H,12,1.08032,10,133.839,8,-122.16,0\\\@

 Total job time:  202.37s(wall), 194.03s(cpu) 
 Wed Mar  2 21:00:26 2022

        *************************************************************
        *                                                           *
        *  Thank you very much for using Q-Chem.  Have a nice day.  *
        *                                                           *
        *************************************************************


