
Running Job 1 of 1 irc_transition.in
qchem irc_transition.in_122731.0 ./irc_transition.d/ 1
/home/leeping/opt/qchem/5.0.2-openmp/exe/qcprog.exe_s irc_transition.in_122731.0 ./irc_transition.d/
Check license passed

                  Welcome to Q-Chem
     A Quantum Leap Into The Future Of Chemistry


 Q-Chem 5.0, Q-Chem, Inc., Pleasanton, CA (2017)

 Yihan Shao,  Zhengting Gan,  E. Epifanovsky,  A. T. B. Gilbert,  M. Wormit,  
 J. Kussmann,  A. W. Lange,  A. Behn,  Jia Deng,  Xintian Feng,  D. Ghosh,  
 M. Goldey,  P. R. Horn,  L. D. Jacobson,  I. Kaliman,  T. Kus,  A. Landau,  
 Jie Liu,  E. I. Proynov,  R. M. Richard,  R. P. Steele,  E. J. Sundstrom,  
 H. L. Woodcock III,  P. M. Zimmerman,  D. Zuev,  B. Albrecht,  E. Alguire,  
 S. A. Baeppler,  D. Barton,  Z. Benda,  Y. A. Bernard,  E. J. Berquist,  
 K. B. Bravaya,  H. Burton,  D. Casanova,  Chun-Min Chang,  Yunqing Chen,  
 A. Chien,  K. D. Closser,  M. P. Coons,  S. Dasgupta,  A. L. Dempwolff,  
 M. Diedenhofen,  Hainam Do,  R. G. Edgar,  Po-Tung Fang,  S. Fatehi,  
 Qingguo Feng,  J. Fosso-Tande,  Qinghui Ge,  A. Ghysels,  G. Gidofalvi,  
 J. Gomes,  J. Gonthier,  A. Gunina,  M. W. D. Hanson-Heine,  
 P. H. P. Harbach,  A. W. Hauser,  J. E. Herr,  E. G. Hohenstein,  
 Z. C. Holden,  Kerwin Hui,  T.-C. Jagau,  Hyunjun Ji,  B. Kaduk,  
 K. Khistyaev,  Jaehoon Kim,  P. Klunzinger,  K. Koh,  D. Kosenkov,  
 L. Koulias,  T. Kowalczyk,  C. M. Krauter,  A. Kunitsa,  Ka Un Lao,  
 A. Laurent,  K. V. Lawler,  Joonho Lee,  D. Lefrancois,  S. Lehtola,  
 D. S. Levine,  Yi-Pei Li,  You-Sheng Lin,  Fenglai Liu,  E. Livshits,  
 A. Luenser,  P. Manohar,  E. Mansoor,  S. F. Manzer,  Shan-Ping Mao,  
 Yuezhi Mao,  N. Mardirossian,  A. V. Marenich,  T. Markovich,  
 L. A. Martinez-Martinez,  S. A. Maurer,  N. J. Mayhall,  S. C. McKenzie,  
 J.-M. Mewes,  A. F. Morrison,  J. W. Mullinax,  K. Nanda,  
 T. S. Nguyen-Beck,  R. Olivares-Amaya,  J. A. Parkhill,  T. M. Perrine,  
 F. Plasser,  S. Prager,  A. Prociuk,  E. Ramos,  D. R. Rehn,  F. Rob,  
 M. Schneider,  N. Sergueev,  S. M. Sharada,  S. Sharma,  D. W. Small,  
 T. Stauch,  T. Stein,  Yu-Chuan Su,  A. J. W. Thom,  A. Tkatchenko,  
 T. Tsuchimochi,  L. Vogt,  O. Vydrov,  M. A. Watson,  J. Wenzel,  
 M. de Wergifosse,  T. A. Wesolowski,  A. White,  J. Witte,  A. Yamada,  
 Jun Yang,  K. Yao,  S. Yeganeh,  S. R. Yost,  Zhi-Qiang You,  A. Zech,  
 Igor Ying Zhang,  Xing Zhang,  Yan Zhao,  Ying Zhu,  B. R. Brooks,  
 G. K. L. Chan,  C. J. Cramer,  M. S. Gordon,  W. J. Hehre,  A. Klamt,  
 M. W. Schmidt,  C. D. Sherrill,  D. G. Truhlar,  A. Aspuru-Guzik,  R. Baer,  
 A. T. Bell,  N. A. Besley,  Jeng-Da Chai,  R. A. DiStasio Jr.,  A. Dreuw,  
 B. D. Dunietz,  T. R. Furlani,  Chao-Ping Hsu,  Yousung Jung,  Jing Kong,  
 D. S. Lambrecht,  WanZhen Liang,  C. Ochsenfeld,  V. A. Rassolov,  
 L. V. Slipchenko,  J. E. Subotnik,  T. Van Voorhis,  J. M. Herbert,  
 A. I. Krylov,  P. M. W. Gill,  M. Head-Gordon

 Contributors to earlier versions of Q-Chem not listed above: 
 R. D. Adamson,  B. Austin,  J. Baker,  G. J. O. Beran,  K. Brandhorst,  
 S. T. Brown,  E. F. C. Byrd,  A. K. Chakraborty,  C.-L. Cheng,  
 Siu Hung Chien,  D. M. Chipman,  D. L. Crittenden,  H. Dachsel,  
 R. J. Doerksen,  A. D. Dutoi,  L. Fusti-Molnar,  W. A. Goddard III,  
 A. Golubeva-Zadorozhnaya,  S. R. Gwaltney,  G. Hawkins,  A. Heyden,  
 S. Hirata,  G. Kedziora,  F. J. Keil,  C. Kelley,  Jihan Kim,  R. A. King,  
 R. Z. Khaliullin,  P. P. Korambath,  W. Kurlancheek,  A. M. Lee,  M. S. Lee,  
 S. V. Levchenko,  Ching Yeh Lin,  D. Liotard,  R. C. Lochan,  I. Lotan,  
 P. E. Maslen,  N. Nair,  D. P. O'Neill,  D. Neuhauser,  E. Neuscamman,  
 C. M. Oana,  R. Olson,  B. Peters,  R. Peverati,  P. A. Pieniazek,  
 Y. M. Rhee,  J. Ritchie,  M. A. Rohrdanz,  E. Rosta,  N. J. Russ,  
 H. F. Schaefer III,  N. E. Schultz,  N. Shenvi,  A. C. Simmonett,  A. Sodt,  
 D. Stuck,  K. S. Thanthiriwatte,  V. Vanovschi,  Tao Wang,  A. Warshel,  
 C. F. Williams,  Q. Wu,  X. Xu,  W. Zhang

 Please cite Q-Chem as follows:
 Y. Shao et al., Mol. Phys. 113, 184-215 (2015)
 DOI: 10.1080/00268976.2014.952696

 Q-Chem 5.0.2 for Intel X86 EM64T Linux

 Parts of Q-Chem use Armadillo 5.200.1 (Boston Tea Smuggler).
 http://arma.sourceforge.net/

 Q-Chem begins on Wed Mar  2 21:06:30 2022  

Host: 
0

     Scratch files written to ./irc_transition.d//
 Dec517 15110_ 26548  26544 5633   
Processing $rem in /home/leeping/opt/qchem/5.0.2-openmp/config/preferences.
 MEM_STATIC 2000
 MEM_TOTAL  8000
 SYMMETRY   OFF
 SYM_IGNORE TRUE 

Checking the input file for inconsistencies... 	...done.

--------------------------------------------------------------
User input:
--------------------------------------------------------------
$molecule
0 2
C        1.3772927928    0.3698162948   -0.1401522876
C        0.7345151415   -0.9819211461   -0.2410781642
C       -0.7143132167   -0.9860541392   -0.5934669443
C       -1.0545037639    0.3613697780    0.1261745393
C       -0.4657318055    1.5195505193   -0.5790755395
N        0.8385188046    1.5130385872   -0.6648508329
H        2.3888016886    0.3959570566    0.2526770218
H        1.3349612127   -1.8828510860   -0.1797593883
H       -1.2774123096   -1.8843639932   -0.3420142180
H       -2.0562753312    0.4604552393    0.5385825068
H       -1.0564370496    2.3084423775   -1.0343977427
C        0.0259179073   -0.3667900974    0.9347706932
H       -0.1083483134   -0.8205776329    1.9145479911
$end

$rem
method                b3lyp
basis                 6-31+g(d,p)
unrestricted          true
symmetry              off
sym_ignore            true
incdft                false
incfock               0
scf_convergence       6
thresh                14
jobtype               sp
scf_guess             read
scf_algorithm         diis
max_scf_cycles        100
stability_analysis    true
max_cis_cycles        100
cis_n_roots           4
$end

--------------------------------------------------------------
 ----------------------------------------------------------------
             Standard Nuclear Orientation (Angstroms)
    I     Atom           X                Y                Z
 ----------------------------------------------------------------
    1      C       1.3772927928     0.3698162948    -0.1401522876
    2      C       0.7345151415    -0.9819211461    -0.2410781642
    3      C      -0.7143132167    -0.9860541392    -0.5934669443
    4      C      -1.0545037639     0.3613697780     0.1261745393
    5      C      -0.4657318055     1.5195505193    -0.5790755395
    6      N       0.8385188046     1.5130385872    -0.6648508329
    7      H       2.3888016886     0.3959570566     0.2526770218
    8      H       1.3349612127    -1.8828510860    -0.1797593883
    9      H      -1.2774123096    -1.8843639932    -0.3420142180
   10      H      -2.0562753312     0.4604552393     0.5385825068
   11      H      -1.0564370496     2.3084423775    -1.0343977427
   12      C       0.0259179073    -0.3667900974     0.9347706932
   13      H      -0.1083483134    -0.8205776329     1.9145479911
 ----------------------------------------------------------------
 Nuclear Repulsion Energy =   280.5111674338 hartrees
 There are       25 alpha and       24 beta electrons
 Requested basis set is 6-31+G(d,p)
 There are 53 shells and 163 basis functions

 Total QAlloc Memory Limit   8000 MB
 Mega-Array Size      1956 MB
 MEM_STATIC part      2000 MB

                       Distance Matrix (Angstroms)
             C (  1)   C (  2)   C (  3)   C (  4)   C (  5)   N (  6)
   C (  2)  1.500181
   C (  3)  2.533514  1.491073
   C (  4)  2.446352  2.267133  1.564981
   C (  5)  2.216141  2.795030  2.517946  1.478314
   N (  6)  1.368409  2.532829  2.943102  2.352785  1.307084
   H (  7)  1.085425  2.208847  3.500748  3.445802  3.178464  2.119695
   H (  8)  2.253413  1.084422  2.274846  3.292365  3.870179  3.466098
   H (  9)  3.488486  2.207361  1.089619  2.304823  3.507372  4.015437
   H ( 10)  3.501184  3.236793  2.274816  1.087862  2.213746  3.306965
   H ( 11)  3.237435  3.829276  3.341433  2.266721  1.085634  2.088083
   C ( 12)  1.877302  1.504366  1.807468  1.533413  2.468143  2.598628
   H ( 13)  2.801064  2.320167  2.585482  2.343179  3.438325  3.604944
             H (  7)   H (  8)   H (  9)   H ( 10)   H ( 11)   C ( 12)
   H (  8)  2.547655
   H (  9)  4.358285  2.617408
   H ( 10)  4.454729  4.184207  2.623024
   H ( 11)  4.145339  4.900626  4.255332  2.624690
   C ( 12)  2.574928  2.292207  2.373158  2.275265  3.493707
   H ( 13)  3.236901  2.756391  2.755073  2.707166  4.402944  1.088078

 
 A cutoff of  1.0D-14 yielded   1398 shell pairs
 There are     13494 function pairs
 Smallest overlap matrix eigenvalue = 4.02E-05

 Scale SEOQF with 1.000000e-01/1.000000e-01/1.000000e-01

 Standard Electronic Orientation quadrupole field applied
 Nucleus-field energy     =     0.0000000038 hartrees
 Guess MOs from SCF MO coefficient file
 Reading MOs from coefficient file
 Reading MOs from coefficient file
 An unrestricted hybrid HF-DFT SCF calculation will be
 performed using Pulay DIIS extrapolation
 Exchange:     0.2000 Hartree-Fock + 0.0800 Slater + 0.7200 B88
 Correlation:  0.1900 VWN1RPA + 0.8100 LYP
 Using SG-1 standard quadrature grid
 SCF converges when DIIS error is below 1.0E-06
Using Q-Chem read-in guess as SCF_GUESS READ specified.

 -------------------------------------------------------
 OpenMP BLAS3 based DFT computing Module                
 -------------------------------------------------------
 ---------------------------------------
  Cycle       Energy         DIIS Error
 ---------------------------------------
    1    -286.8141332062      3.59E-09
    2    -286.8141332062      4.04E-09 Convergence criterion met
 ---------------------------------------
 <S^2> = 0.7754
 SCF time:  CPU 6.54 s  wall 7.46 s
 SCF   energy in the final basis set = -286.81413321
 Total energy in the final basis set = -286.81413321
 
 Direct TDDFT/TDA calculation will be performed
 Exchange:     0.2000 Hartree-Fock + 0.0800 Slater + 0.7200 B88
 Correlation:  0.1900 VWN1RPA + 0.8100 LYP
 Using SG-1 standard quadrature grid
 CIS energy converged when residual is below 10e- 6
 ---------------------------------------------------
 Iter    Rts Conv    Rts Left    Ttl Dev     Max Dev
 ---------------------------------------------------
   1         0           4      0.003003    0.001498
   2         0           4      0.000756    0.000280
   3         0           4      0.000382    0.000200
   4         0           4      0.000140    0.000082
   5         0           4      0.000052    0.000031
   6         0           4      0.000019    0.000012
   7         3           1      0.000007    0.000005
   8         3           1      0.000003    0.000001
   9         4           0      0.000002    0.000001    Roots Converged
 ---------------------------------------------------
 
 ---------------------------------------------------
         TDDFT/TDA Excitation Energies              
 ---------------------------------------------------

 Excited state   1: excitation energy (eV) =    1.7159
 Total energy for state  1:                  -286.75107459 au
    <S**2>     :  0.7762
    Trans. Mom.: -0.1586 X  -0.6745 Y  -0.0592 Z
    Strength   :     0.0203301851
    S(  1) --> V(  1) amplitude =  0.9721 alpha
    D( 24) --> S(  1) amplitude = -0.1611 beta

 Excited state   2: excitation energy (eV) =    2.6417
 Total energy for state  2:                  -286.71705422 au
    <S**2>     :  0.7880
    Trans. Mom.: -0.1021 X  -0.2570 Y   0.2869 Z
    Strength   :     0.0102736084
    S(  1) --> V(  2) amplitude =  0.9951 alpha

 Excited state   3: excitation energy (eV) =    3.1221
 Total energy for state  3:                  -286.69939954 au
    <S**2>     :  0.8032
    Trans. Mom.:  0.2453 X  -0.1690 Y  -0.0491 Z
    Strength   :     0.0069710232
    S(  1) --> V(  3) amplitude =  0.7892 alpha
    S(  1) --> V(  4) amplitude =  0.5349 alpha
    S(  1) --> V(  6) amplitude =  0.1604 alpha

 Excited state   4: excitation energy (eV) =    3.3173
 Total energy for state  4:                  -286.69222435 au
    <S**2>     :  0.7879
    Trans. Mom.: -0.1305 X   0.1280 Y  -0.0231 Z
    Strength   :     0.0027593437
    S(  1) --> V(  3) amplitude = -0.5701 alpha
    S(  1) --> V(  4) amplitude =  0.8170 alpha
 
 ---------------------------------------------------

 Stability analysis will be performed
 ---------------------------------------------------
 Iter    Rts Conv    Rts Left    Ttl Dev     Max Dev
 ---------------------------------------------------
   1         0           8      0.003137    0.000726
   2         0           8      0.001018    0.000334
   3         0           8      0.000641    0.000295
   4         3           5      0.001004    0.000607
   5         4           4      0.000637    0.000348
   6         4           4      0.000253    0.000140
   7         4           4      0.000077    0.000042
   8         6           2      0.000029    0.000015
   9         6           2      0.000010    0.000004
  10         7           1      0.000005    0.000001
  11         8           0      0.000004    0.000001    Roots Converged
 UKS-> UKS   stable,    smallest eigenvalue:      0.0544338
 UKS->CUKS   stable,    smallest eigenvalue:      0.0579104
 ---------------------------------------------------
  SETman timing summary (seconds)
  CPU time               174.78s
  System time              0.00s
  Wall time              184.65s
 
 --------------------------------------------------------------
 
                    Orbital Energies (a.u.)
 --------------------------------------------------------------
 
 Alpha MOs
 -- Occupied --
-14.331 -10.252 -10.246 -10.232 -10.230 -10.228 -10.219  -0.979
 -0.887  -0.767  -0.655  -0.636  -0.613  -0.557  -0.506  -0.461
 -0.450  -0.433  -0.423  -0.380  -0.374  -0.321  -0.280  -0.257
 -0.137
 -- Virtual --
 -0.035  -0.008   0.015   0.016   0.027   0.038   0.052   0.053
  0.065   0.069   0.074   0.096   0.098   0.102   0.109   0.111
  0.120   0.129   0.142   0.149   0.157   0.166   0.172   0.183
  0.187   0.200   0.207   0.217   0.231   0.240   0.244   0.249
  0.253   0.266   0.280   0.285   0.307   0.317   0.325   0.340
  0.360   0.365   0.437   0.461   0.616   0.621   0.638   0.672
  0.692   0.705   0.719   0.739   0.746   0.753   0.771   0.791
  0.808   0.839   0.873   0.891   0.918   0.928   0.960   0.977
  0.997   1.019   1.038   1.070   1.084   1.104   1.135   1.149
  1.178   1.223   1.304   1.340   1.358   1.404   1.444   1.483
  1.520   1.588   1.593   1.679   1.709   1.736   1.808   1.837
  1.861   1.905   1.941   1.983   2.038   2.061   2.100   2.160
  2.176   2.190   2.264   2.267   2.297   2.340   2.363   2.365
  2.415   2.423   2.453   2.491   2.511   2.517   2.537   2.555
  2.576   2.593   2.627   2.649   2.677   2.707   2.713   2.754
  2.824   2.882   2.960   3.081   3.109   3.288   3.312   3.375
  3.446   3.502   3.673   4.193   4.381   4.456   4.531   4.582
  4.654   4.705
 
 Beta MOs
 -- Occupied --
-14.331 -10.253 -10.243 -10.228 -10.227 -10.224 -10.215  -0.974
 -0.883  -0.760  -0.648  -0.627  -0.610  -0.553  -0.501  -0.458
 -0.443  -0.430  -0.412  -0.374  -0.366  -0.303  -0.273  -0.247
 -- Virtual --
 -0.051  -0.019  -0.007   0.015   0.020   0.029   0.040   0.053
  0.060   0.065   0.072   0.076   0.096   0.098   0.103   0.109
  0.112   0.122   0.131   0.143   0.152   0.158   0.167   0.174
  0.184   0.190   0.201   0.211   0.218   0.233   0.245   0.247
  0.251   0.256   0.269   0.283   0.290   0.309   0.320   0.328
  0.343   0.365   0.371   0.442   0.467   0.620   0.626   0.641
  0.669   0.698   0.719   0.731   0.747   0.751   0.758   0.776
  0.797   0.814   0.844   0.881   0.895   0.922   0.931   0.962
  0.979   1.002   1.021   1.039   1.073   1.086   1.109   1.141
  1.155   1.184   1.227   1.310   1.347   1.365   1.406   1.451
  1.488   1.525   1.594   1.600   1.683   1.717   1.745   1.822
  1.841   1.867   1.909   1.944   1.987   2.045   2.065   2.110
  2.168   2.182   2.195   2.269   2.273   2.303   2.343   2.369
  2.372   2.418   2.426   2.457   2.497   2.518   2.520   2.544
  2.568   2.584   2.597   2.634   2.656   2.683   2.711   2.717
  2.759   2.828   2.885   2.964   3.084   3.111   3.289   3.313
  3.381   3.447   3.504   3.676   4.195   4.389   4.471   4.536
  4.590   4.655   4.710
 --------------------------------------------------------------
 
          Ground-State Mulliken Net Atomic Charges

     Atom                 Charge (a.u.)    Spin (a.u.)
  --------------------------------------------------------
      1 C                    -0.245102       0.248606
      2 C                    -0.065678       0.044187
      3 C                    -0.142059       0.606907
      4 C                    -0.263470      -0.043646
      5 C                     0.015229       0.245335
      6 N                    -0.199029      -0.007026
      7 H                     0.142841      -0.009210
      8 H                     0.150762      -0.007267
      9 H                     0.152777      -0.004948
     10 H                     0.139653      -0.002852
     11 H                     0.128467      -0.013450
     12 C                     0.036907      -0.071644
     13 H                     0.148703       0.015008
  --------------------------------------------------------
  Sum of atomic charges =    -0.000000
  Sum of spin   charges =     1.000000

 -----------------------------------------------------------------
                    Cartesian Multipole Moments
 -----------------------------------------------------------------
    Charge (ESU x 10^10)
                -0.0000
    Dipole Moment (Debye)
         X      -1.0335      Y      -2.5542      Z       2.1012
       Tot       3.4651
    Quadrupole Moments (Debye-Ang)
        XX     -39.1153     XY      -4.7870     YY     -43.5530
        XZ       0.8166     YZ      -0.4556     ZZ     -44.3203
    Octopole Moments (Debye-Ang^2)
       XXX      -8.9842    XXY      -9.8366    XYY     -11.5559
       YYY     -32.8593    XXZ       9.4726    XYZ       4.5852
       YYZ       7.1317    XZZ      -5.0165    YZZ      -8.5893
       ZZZ      24.4799
    Hexadecapole Moments (Debye-Ang^3)
      XXXX    -249.2269   XXXY     -14.8088   XXYY    -101.5278
      XYYY     -30.6068   YYYY    -340.6977   XXXZ       6.3199
      XXYZ      12.2848   XYYZ      10.2814   YYYZ      29.8929
      XXZZ     -74.3225   XYZZ      -9.5115   YYZZ     -84.0707
      XZZZ       2.7682   YZZZ      24.2115   ZZZZ    -146.8591
 -----------------------------------------------------------------
Archival summary:
1\1\c8-90\SP\ProcedureUnspecified\6-31+G**\166(2)\hpark21\WedMar221:09:432022WedMar221:09:432022\0\\#,ProcedureUnspecified,6-31+G**,\\0,2\N\C,1,1.30708\H,2,1.08563,1,121.267\C,1,1.36841,2,111.831,3,-174.005,0\H,4,1.08543,1,119.049,2,-153.373,0\C,2,1.47831,1,115.139,3,177.7,0\H,6,1.08786,2,118.441,1,158.746,0\C,4,1.50018,1,123.937,2,35.5966,0\H,8,1.08442,4,120.5,1,155.486,0\C,8,1.49107,4,115.768,1,-17.2448,0\H,10,1.08962,8,116.737,4,-159.464,0\C,8,1.50437,4,77.3379,1,-82.5481,0\H,12,1.08808,8,126.258,4,-129.244,0\\\@

 Total job time:  193.68s(wall), 181.55s(cpu) 
 Wed Mar  2 21:09:43 2022

        *************************************************************
        *                                                           *
        *  Thank you very much for using Q-Chem.  Have a nice day.  *
        *                                                           *
        *************************************************************


