
Running Job 1 of 1 qcopt_prd.in
qchem qcopt_prd.in_101674.0 ./qcopt_prd.d/ 1
/home/leeping/opt/qchem/5.0.2-openmp/exe/qcprog.exe_s qcopt_prd.in_101674.0 ./qcopt_prd.d/
Check license passed

                  Welcome to Q-Chem
     A Quantum Leap Into The Future Of Chemistry


 Q-Chem 5.0, Q-Chem, Inc., Pleasanton, CA (2017)

 Yihan Shao,  Zhengting Gan,  E. Epifanovsky,  A. T. B. Gilbert,  M. Wormit,  
 J. Kussmann,  A. W. Lange,  A. Behn,  Jia Deng,  Xintian Feng,  D. Ghosh,  
 M. Goldey,  P. R. Horn,  L. D. Jacobson,  I. Kaliman,  T. Kus,  A. Landau,  
 Jie Liu,  E. I. Proynov,  R. M. Richard,  R. P. Steele,  E. J. Sundstrom,  
 H. L. Woodcock III,  P. M. Zimmerman,  D. Zuev,  B. Albrecht,  E. Alguire,  
 S. A. Baeppler,  D. Barton,  Z. Benda,  Y. A. Bernard,  E. J. Berquist,  
 K. B. Bravaya,  H. Burton,  D. Casanova,  Chun-Min Chang,  Yunqing Chen,  
 A. Chien,  K. D. Closser,  M. P. Coons,  S. Dasgupta,  A. L. Dempwolff,  
 M. Diedenhofen,  Hainam Do,  R. G. Edgar,  Po-Tung Fang,  S. Fatehi,  
 Qingguo Feng,  J. Fosso-Tande,  Qinghui Ge,  A. Ghysels,  G. Gidofalvi,  
 J. Gomes,  J. Gonthier,  A. Gunina,  M. W. D. Hanson-Heine,  
 P. H. P. Harbach,  A. W. Hauser,  J. E. Herr,  E. G. Hohenstein,  
 Z. C. Holden,  Kerwin Hui,  T.-C. Jagau,  Hyunjun Ji,  B. Kaduk,  
 K. Khistyaev,  Jaehoon Kim,  P. Klunzinger,  K. Koh,  D. Kosenkov,  
 L. Koulias,  T. Kowalczyk,  C. M. Krauter,  A. Kunitsa,  Ka Un Lao,  
 A. Laurent,  K. V. Lawler,  Joonho Lee,  D. Lefrancois,  S. Lehtola,  
 D. S. Levine,  Yi-Pei Li,  You-Sheng Lin,  Fenglai Liu,  E. Livshits,  
 A. Luenser,  P. Manohar,  E. Mansoor,  S. F. Manzer,  Shan-Ping Mao,  
 Yuezhi Mao,  N. Mardirossian,  A. V. Marenich,  T. Markovich,  
 L. A. Martinez-Martinez,  S. A. Maurer,  N. J. Mayhall,  S. C. McKenzie,  
 J.-M. Mewes,  A. F. Morrison,  J. W. Mullinax,  K. Nanda,  
 T. S. Nguyen-Beck,  R. Olivares-Amaya,  J. A. Parkhill,  T. M. Perrine,  
 F. Plasser,  S. Prager,  A. Prociuk,  E. Ramos,  D. R. Rehn,  F. Rob,  
 M. Schneider,  N. Sergueev,  S. M. Sharada,  S. Sharma,  D. W. Small,  
 T. Stauch,  T. Stein,  Yu-Chuan Su,  A. J. W. Thom,  A. Tkatchenko,  
 T. Tsuchimochi,  L. Vogt,  O. Vydrov,  M. A. Watson,  J. Wenzel,  
 M. de Wergifosse,  T. A. Wesolowski,  A. White,  J. Witte,  A. Yamada,  
 Jun Yang,  K. Yao,  S. Yeganeh,  S. R. Yost,  Zhi-Qiang You,  A. Zech,  
 Igor Ying Zhang,  Xing Zhang,  Yan Zhao,  Ying Zhu,  B. R. Brooks,  
 G. K. L. Chan,  C. J. Cramer,  M. S. Gordon,  W. J. Hehre,  A. Klamt,  
 M. W. Schmidt,  C. D. Sherrill,  D. G. Truhlar,  A. Aspuru-Guzik,  R. Baer,  
 A. T. Bell,  N. A. Besley,  Jeng-Da Chai,  R. A. DiStasio Jr.,  A. Dreuw,  
 B. D. Dunietz,  T. R. Furlani,  Chao-Ping Hsu,  Yousung Jung,  Jing Kong,  
 D. S. Lambrecht,  WanZhen Liang,  C. Ochsenfeld,  V. A. Rassolov,  
 L. V. Slipchenko,  J. E. Subotnik,  T. Van Voorhis,  J. M. Herbert,  
 A. I. Krylov,  P. M. W. Gill,  M. Head-Gordon

 Contributors to earlier versions of Q-Chem not listed above: 
 R. D. Adamson,  B. Austin,  J. Baker,  G. J. O. Beran,  K. Brandhorst,  
 S. T. Brown,  E. F. C. Byrd,  A. K. Chakraborty,  C.-L. Cheng,  
 Siu Hung Chien,  D. M. Chipman,  D. L. Crittenden,  H. Dachsel,  
 R. J. Doerksen,  A. D. Dutoi,  L. Fusti-Molnar,  W. A. Goddard III,  
 A. Golubeva-Zadorozhnaya,  S. R. Gwaltney,  G. Hawkins,  A. Heyden,  
 S. Hirata,  G. Kedziora,  F. J. Keil,  C. Kelley,  Jihan Kim,  R. A. King,  
 R. Z. Khaliullin,  P. P. Korambath,  W. Kurlancheek,  A. M. Lee,  M. S. Lee,  
 S. V. Levchenko,  Ching Yeh Lin,  D. Liotard,  R. C. Lochan,  I. Lotan,  
 P. E. Maslen,  N. Nair,  D. P. O'Neill,  D. Neuhauser,  E. Neuscamman,  
 C. M. Oana,  R. Olson,  B. Peters,  R. Peverati,  P. A. Pieniazek,  
 Y. M. Rhee,  J. Ritchie,  M. A. Rohrdanz,  E. Rosta,  N. J. Russ,  
 H. F. Schaefer III,  N. E. Schultz,  N. Shenvi,  A. C. Simmonett,  A. Sodt,  
 D. Stuck,  K. S. Thanthiriwatte,  V. Vanovschi,  Tao Wang,  A. Warshel,  
 C. F. Williams,  Q. Wu,  X. Xu,  W. Zhang

 Please cite Q-Chem as follows:
 Y. Shao et al., Mol. Phys. 113, 184-215 (2015)
 DOI: 10.1080/00268976.2014.952696

 Q-Chem 5.0.2 for Intel X86 EM64T Linux

 Parts of Q-Chem use Armadillo 5.200.1 (Boston Tea Smuggler).
 http://arma.sourceforge.net/

 Q-Chem begins on Wed Mar  2 16:00:56 2022  

Host: 
0

     Scratch files written to ./qcopt_prd.d//
 Dec517 15110_ 26548  26544 5633   
Processing $rem in /home/leeping/opt/qchem/5.0.2-openmp/config/preferences.
 MEM_STATIC 2000
 MEM_TOTAL  8000
 SYMMETRY   OFF
 SYM_IGNORE TRUE 

Checking the input file for inconsistencies... 	...done.

--------------------------------------------------------------
User input:
--------------------------------------------------------------
$molecule
0 2
C        1.3177762897    0.3255932594    0.1681873515
C        0.6048898863   -1.0117254988   -0.1161461509
C       -0.7150233397   -0.5389908367   -0.7751441635
C       -1.0622982375    0.2279471336    0.4705753121
C       -0.5490500607    0.9932927433   -0.7638551816
N        0.8041628415    1.3783267221   -0.6236494114
H        2.3651165381    0.3429290828    0.4489662625
H        1.1192950764   -1.9574672544   -0.2444568955
H       -1.3471117254   -1.0766721015   -1.4729416271
H       -2.0207116347    0.4087472650    0.9442219879
H       -1.2176591413    1.6241911993   -1.3392424657
C        0.2583415736   -0.2447332343    1.1296078552
H        0.4422719338   -0.4714384799    2.1738771267
$end

$rem
method                b3lyp
basis                 6-31g(d)
unrestricted          true
symmetry              off
sym_ignore            true
incdft                false
incfock               0
scf_convergence       8
thresh                14
jobtype               opt
scf_guess             core
scf_guess_mix         5
scf_algorithm         diis
max_scf_cycles        100
geom_opt_max_cycles   300
$end

--------------------------------------------------------------
 ----------------------------------------------------------------
             Standard Nuclear Orientation (Angstroms)
    I     Atom           X                Y                Z
 ----------------------------------------------------------------
    1      C       1.3177762897     0.3255932594     0.1681873515
    2      C       0.6048898863    -1.0117254988    -0.1161461509
    3      C      -0.7150233397    -0.5389908367    -0.7751441635
    4      C      -1.0622982375     0.2279471336     0.4705753121
    5      C      -0.5490500607     0.9932927433    -0.7638551816
    6      N       0.8041628415     1.3783267221    -0.6236494114
    7      H       2.3651165381     0.3429290828     0.4489662625
    8      H       1.1192950764    -1.9574672544    -0.2444568955
    9      H      -1.3471117254    -1.0766721015    -1.4729416271
   10      H      -2.0207116347     0.4087472650     0.9442219879
   11      H      -1.2176591413     1.6241911993    -1.3392424657
   12      C       0.2583415736    -0.2447332343     1.1296078552
   13      H       0.4422719338    -0.4714384799     2.1738771267
 ----------------------------------------------------------------
 Nuclear Repulsion Energy =   288.0374383555 hartrees
 There are       25 alpha and       24 beta electrons
 Requested basis set is 6-31G(d)
 There are 40 shells and 117 basis functions

 Total QAlloc Memory Limit   8000 MB
 Mega-Array Size      1956 MB
 MEM_STATIC part      2000 MB
 A cutoff of  1.0D-14 yielded    812 shell pairs
 There are      7084 function pairs
 
 -------------------------------------------------------
 OpenMP Integral Computing Module                       
 Release: version 1.0, May 2013, Q-Chem Inc. Pittsburgh 
 -------------------------------------------------------
 Integral Job Info:
 Integral job number is                      11
 Integral operator is                         1
 short-range coefficients                     0
 long-range coefficients              100000000
 Omega coefficients                           0
 if combine SR and LR in K                    0
 Integral screening is                        0
 Integral computing path is                   2
 max size of driver memory is            800000
 size of driver memory is                593474
 size of scratch memory is              2361544
 max col of scratch BK array               1296
 max len of scratch array in speh3          155
 max len of scratch index in speh4           18
 max int batch size is                      520
 min int batch size is                       52
 fixed nKL is                                52
 max L of basis functions is                  2
 order of int derivative is                   0
 number of shells is                         40
 number of basis is                         117
 number of cartesian basis is               117
 number of contracted shell pairs           812
 number of primitive shell pairs           3655
 maxK2 (contraction) of shell pair           36
 max number of K2 of shell pair               1
 max number of CS2 of shell pair             84
 max number of PS2 of shell pair            402
 mem total for path MDJ                  535308
 -------------------------------------------------------
 Smallest overlap matrix eigenvalue = 1.00E-03

 Scale SEOQF with 1.000000e-01/1.000000e-01/1.000000e-01

 Standard Electronic Orientation quadrupole field applied
 Nucleus-field energy     =     0.0000000011 hartrees
 Guess MOs from core Hamiltonian diagonalization
 Mixing HOMO and LUMO in initial guess
 Adding  50% of the LUMO to the HOMO
 An unrestricted hybrid HF-DFT SCF calculation will be
 performed using Pulay DIIS extrapolation
 Exchange:     0.2000 Hartree-Fock + 0.0800 Slater + 0.7200 B88
 Correlation:  0.1900 VWN1RPA + 0.8100 LYP
 Using SG-1 standard quadrature grid
 SCF converges when DIIS error is below 1.0E-08
 using 4 threads for integral computing
 -------------------------------------------------------
 OpenMP Integral computing Module                
 Release: version 1.0, May 2013, Q-Chem Inc. Pittsburgh 
 -------------------------------------------------------
 -------------------------------------------------------
 OpenMP BLAS3 based DFT computing Module                
 Release: version 1.0, May 2013, Q-Chem Inc. Pittsburgh 
 -------------------------------------------------------
 ---------------------------------------
  Cycle       Energy         DIIS Error
 ---------------------------------------
    1    -239.7190207335      1.31E-01
    2    -233.1123695319      1.03E-01
    3    -266.5374300781      9.23E-02
    4    -280.1325533493      6.27E-02
    5    -283.9421538350      3.96E-02
    6    -286.1860687198      1.62E-02
    7    -286.7959332857      3.67E-03
    8    -286.8138057372      2.45E-03
    9    -286.8242266038      5.31E-04
   10    -286.8249273358      9.86E-05
   11    -286.8249715239      4.06E-05
   12    -286.8249801755      2.11E-05
   13    -286.8249825118      6.23E-06
   14    -286.8249828555      3.20E-06
   15    -286.8249829806      1.81E-06
   16    -286.8249830049      5.81E-07
   17    -286.8249830075      3.65E-07
   18    -286.8249830080      1.10E-07
   19    -286.8249830081      2.53E-08
   20    -286.8249830081      5.77E-09 Convergence criterion met
 ---------------------------------------
 <S^2> = 0.7558
 SCF time:  CPU 52.69 s  wall 23.16 s
 SCF   energy in the final basis set = -286.82498301
 Total energy in the final basis set = -286.82498301
 
 --------------------------------------------------------------
 
                    Orbital Energies (a.u.)
 --------------------------------------------------------------
 
 Alpha MOs
 -- Occupied --
-14.335 -10.215 -10.215 -10.207 -10.207 -10.207 -10.206  -0.986
 -0.836  -0.793  -0.649  -0.588  -0.574  -0.542  -0.533  -0.455
 -0.427  -0.415  -0.395  -0.384  -0.337  -0.275  -0.274  -0.248
 -0.212
 -- Virtual --
  0.090   0.094   0.117   0.147   0.150   0.156   0.167   0.180
  0.184   0.197   0.217   0.251   0.255   0.302   0.364   0.378
  0.477   0.520   0.537   0.541   0.562   0.565   0.574   0.608
  0.621   0.630   0.676   0.728   0.729   0.742   0.743   0.781
  0.786   0.801   0.828   0.831   0.848   0.856   0.918   0.938
  0.983   1.005   1.137   1.161   1.195   1.235   1.399   1.455
  1.490   1.538   1.622   1.629   1.653   1.659   1.667   1.691
  1.754   1.824   1.854   1.942   1.967   1.974   1.978   1.984
  2.043   2.128   2.134   2.241   2.272   2.404   2.412   2.489
  2.516   2.522   2.536   2.560   2.570   2.638   2.710   2.719
  2.757   2.769   2.837   2.881   2.932   3.847   4.233   4.317
  4.370   4.460   4.639   4.673
 
 Beta MOs
 -- Occupied --
-14.319 -10.217 -10.216 -10.205 -10.205 -10.205 -10.205  -0.976
 -0.811  -0.789  -0.644  -0.585  -0.568  -0.537  -0.529  -0.453
 -0.423  -0.392  -0.389  -0.378  -0.322  -0.269  -0.257  -0.244
 -- Virtual --
 -0.078   0.091   0.101   0.120   0.147   0.152   0.157   0.176
  0.182   0.188   0.202   0.225   0.259   0.259   0.302   0.367
  0.384   0.479   0.522   0.540   0.542   0.568   0.568   0.576
  0.613   0.621   0.639   0.679   0.732   0.733   0.743   0.782
  0.787   0.794   0.801   0.830   0.839   0.849   0.857   0.919
  0.944   1.003   1.007   1.141   1.164   1.205   1.236   1.401
  1.474   1.507   1.541   1.626   1.634   1.658   1.661   1.691
  1.696   1.759   1.827   1.858   1.947   1.969   1.979   1.982
  1.987   2.058   2.130   2.156   2.247   2.282   2.403   2.431
  2.502   2.523   2.529   2.541   2.565   2.603   2.640   2.714
  2.721   2.760   2.772   2.839   2.887   2.938   3.873   4.239
  4.320   4.369   4.462   4.641   4.676
 --------------------------------------------------------------
 
          Ground-State Mulliken Net Atomic Charges

     Atom                 Charge (a.u.)    Spin (a.u.)
  --------------------------------------------------------
      1 C                    -0.044814      -0.080332
      2 C                    -0.124820       0.089850
      3 C                    -0.124679       0.089319
      4 C                    -0.124719       0.088954
      5 C                    -0.045079      -0.080257
      6 N                    -0.285771       0.811566
      7 H                     0.149304       0.001046
      8 H                     0.143988      -0.002546
      9 H                     0.144003      -0.002502
     10 H                     0.143988      -0.002458
     11 H                     0.149357       0.001045
     12 C                    -0.124707       0.088756
     13 H                     0.143949      -0.002439
  --------------------------------------------------------
  Sum of atomic charges =    -0.000000
  Sum of spin   charges =     1.000000

 -----------------------------------------------------------------
                    Cartesian Multipole Moments
 -----------------------------------------------------------------
    Charge (ESU x 10^10)
                -0.0000
    Dipole Moment (Debye)
         X      -1.0908      Y      -1.8682      Z       0.8465
       Tot       2.3230
    Quadrupole Moments (Debye-Ang)
        XX     -37.7623     XY      -3.5657     YY     -43.2785
        XZ       2.6810     YZ       1.3220     ZZ     -39.5751
    Octopole Moments (Debye-Ang^2)
       XXX      -9.1036    XXY      -6.6896    XYY      -7.4549
       YYY     -25.3677    XXZ       4.5528    XYZ       2.0014
       YYZ       2.2130    XZZ      -6.4860    YZZ      -7.4466
       ZZZ      11.0895
    Hexadecapole Moments (Debye-Ang^3)
      XXXX    -229.4321   XXXY      -5.8573   XXYY     -79.0019
      XYYY     -16.6972   YYYY    -224.9652   XXXZ      -8.8993
      XXYZ       9.8734   XYYZ       2.6741   YYYZ      26.6739
      XXZZ     -68.3961   XYZZ      -3.9112   YYZZ     -66.1145
      XZZZ      -8.3698   YZZZ      19.8211   ZZZZ    -170.5975
 -----------------------------------------------------------------
 Calculating analytic gradient of the SCF energy
 Gradient of SCF Energy
            1           2           3           4           5           6
    1  -0.0001508  -0.0001670   0.0000738   0.0000133  -0.0000800  -0.0000078
    2   0.0002020  -0.0002764  -0.0001494   0.0001278   0.0000560   0.0000254
    3   0.0003292  -0.0000345  -0.0000762  -0.0002081   0.0002021  -0.0000271
            7           8           9          10          11          12
    1  -0.0000073   0.0001133  -0.0000044  -0.0000141  -0.0000303   0.0003380
    2   0.0000222   0.0000789   0.0000164  -0.0000939  -0.0000221   0.0000273
    3   0.0000157  -0.0000171   0.0000052   0.0000145  -0.0000138  -0.0002241
           13
    1  -0.0000768
    2  -0.0000143
    3   0.0000342
 Max gradient component =       3.380E-04
 RMS gradient           =       1.267E-04
 Gradient time:  CPU 8.09 s  wall 3.04 s
 Geometry Optimization Parameters
   NAtoms,    NIC,     NZ,  NCons,   NDum,   NFix, NCnnct, MaxDiis
       13     151       0       0       0       0       0       0


** GEOMETRY OPTIMIZATION IN DELOCALIZED INTERNAL COORDINATES **
   Searching for a Minimum

   Optimization Cycle:   1

                       Coordinates (Angstroms)
     ATOM                X               Y               Z
      1  C         1.3177762897    0.3255932594    0.1681873515
      2  C         0.6048898863   -1.0117254988   -0.1161461509
      3  C        -0.7150233397   -0.5389908367   -0.7751441635
      4  C        -1.0622982375    0.2279471336    0.4705753121
      5  C        -0.5490500607    0.9932927433   -0.7638551816
      6  N         0.8041628415    1.3783267221   -0.6236494114
      7  H         2.3651165381    0.3429290828    0.4489662625
      8  H         1.1192950764   -1.9574672544   -0.2444568955
      9  H        -1.3471117254   -1.0766721015   -1.4729416271
     10  H        -2.0207116347    0.4087472650    0.9442219879
     11  H        -1.2176591413    1.6241911993   -1.3392424657
     12  C         0.2583415736   -0.2447332343    1.1296078552
     13  H         0.4422719338   -0.4714384799    2.1738771267
   Point Group: c1    Number of degrees of freedom:    33


   Energy is   -286.824983008


 Attempting to Generate Delocalized Internal Coordinates

 33 Hessian modes will be used to form the next step
  Hessian Eigenvalues:
     0.011270    0.013574    0.015611    0.017249    0.018157    0.018955
     0.020308    0.021592    0.054958    0.056058    0.064535    0.066359
     0.076559    0.084917    0.086820    0.114540    0.138887    0.139517
     0.146044    0.169442    0.210248    0.215309    0.258045    0.261437
     0.297963    0.354560    0.354605    0.354788    0.354863    0.354879
     0.354908    0.378029    0.383928

 Minimum Search - Taking Simple RFO Step
 Searching for Lamda that Minimizes Along All modes
 Value Taken    Lamda =  -0.00000102
 Step Taken.  Stepsize is  0.005119

                             Maximum     Tolerance    Cnvgd?
         Gradient           0.000171      0.000300     YES
         Displacement       0.003137      0.001200      NO
         Energy change     *********      0.000001      NO


 New Cartesian Coordinates Obtained by Inverse Iteration

 Displacement from previous Coordinates is:  0.002579
 ----------------------------------------------------------------
             Standard Nuclear Orientation (Angstroms)
    I     Atom           X                Y                Z
 ----------------------------------------------------------------
    1      C       1.3179286975     0.3254003044     0.1677545743
    2      C       0.6049106088    -1.0115354423    -0.1160610501
    3      C      -0.7149839448    -0.5389001994    -0.7750849349
    4      C      -1.0624789205     0.2277356379     0.4707455087
    5      C      -0.5490614836     0.9932149374    -0.7638775987
    6      N       0.8041042710     1.3783649014    -0.6235733635
    7      H       2.3652096092     0.3429859612     0.4487303436
    8      H       1.1187408091    -1.9576460446    -0.2441067054
    9      H      -1.3464861185    -1.0766388259    -1.4733907095
   10      H      -2.0209629071     0.4087076432     0.9441742701
   11      H      -1.2177217093     1.6242976103    -1.3389779888
   12      C       0.2582126761    -0.2446218411     1.1297599739
   13      H       0.4425884124    -0.4713646426     2.1739076807
 ----------------------------------------------------------------
 Nuclear Repulsion Energy =   288.0368135773 hartrees
 There are       25 alpha and       24 beta electrons
 Applying Cartesian multipole field
    Component          Value
    ---------          -----
     (2,0,0)        1.00000E-11
     (0,2,0)        2.00000E-11
     (0,0,2)       -3.00000E-11
 Nucleus-field energy     =     0.0000000011 hartrees
 Requested basis set is 6-31G(d)
 There are 40 shells and 117 basis functions
 A cutoff of  1.0D-14 yielded    812 shell pairs
 There are      7084 function pairs
 Smallest overlap matrix eigenvalue = 1.00E-03
 Guess MOs from SCF MO coefficient file
 Reading MOs from coefficient file
 Mixing HOMO and LUMO in initial guess
 Adding  50% of the LUMO to the HOMO
 Reading MOs from coefficient file
 An unrestricted hybrid HF-DFT SCF calculation will be
 performed using Pulay DIIS extrapolation
 Exchange:     0.2000 Hartree-Fock + 0.0800 Slater + 0.7200 B88
 Correlation:  0.1900 VWN1RPA + 0.8100 LYP
 Using SG-1 standard quadrature grid
 SCF converges when DIIS error is below 1.0E-08
 Geometry optimization detected.  Setting ReadMinima to 0
 Setting SaveMinima to 0
 using 4 threads for integral computing
 -------------------------------------------------------
 OpenMP Integral computing Module                
 Release: version 1.0, May 2013, Q-Chem Inc. Pittsburgh 
 -------------------------------------------------------
 -------------------------------------------------------
 OpenMP BLAS3 based DFT computing Module                
 Release: version 1.0, May 2013, Q-Chem Inc. Pittsburgh 
 -------------------------------------------------------
 ---------------------------------------
  Cycle       Energy         DIIS Error
 ---------------------------------------
    1    -286.7701138761      1.71E-03
    2    -286.8122385297      2.53E-03
    3    -286.8242861591      3.77E-04
    4    -286.8247393114      3.47E-04
    5    -286.8249670648      8.20E-05
    6    -286.8249825779      1.62E-05
    7    -286.8249835554      7.19E-06
    8    -286.8249837394      2.59E-06
    9    -286.8249837793      4.44E-07
   10    -286.8249837868      3.08E-07
   11    -286.8249837882      1.63E-07
   12    -286.8249837886      4.76E-08
   13    -286.8249837886      1.07E-08
   14    -286.8249837886      2.46E-09 Convergence criterion met
 ---------------------------------------
 <S^2> = 0.7558
 SCF time:  CPU 36.64 s  wall 14.63 s
 SCF   energy in the final basis set = -286.82498379
 Total energy in the final basis set = -286.82498379
 
 --------------------------------------------------------------
 
                    Orbital Energies (a.u.)
 --------------------------------------------------------------
 
 Alpha MOs
 -- Occupied --
-14.335 -10.215 -10.215 -10.207 -10.207 -10.207 -10.206  -0.986
 -0.836  -0.793  -0.649  -0.588  -0.574  -0.542  -0.533  -0.455
 -0.427  -0.415  -0.395  -0.384  -0.337  -0.275  -0.274  -0.248
 -0.212
 -- Virtual --
  0.090   0.094   0.117   0.147   0.150   0.156   0.167   0.180
  0.184   0.197   0.216   0.251   0.255   0.302   0.364   0.378
  0.477   0.520   0.537   0.541   0.562   0.565   0.574   0.608
  0.621   0.630   0.676   0.728   0.729   0.742   0.743   0.781
  0.786   0.801   0.828   0.831   0.848   0.856   0.918   0.938
  0.983   1.005   1.137   1.161   1.195   1.235   1.399   1.455
  1.490   1.538   1.622   1.629   1.653   1.659   1.667   1.691
  1.754   1.824   1.854   1.942   1.967   1.974   1.978   1.984
  2.043   2.128   2.134   2.241   2.272   2.404   2.412   2.489
  2.516   2.522   2.536   2.560   2.570   2.638   2.710   2.719
  2.757   2.769   2.837   2.881   2.932   3.847   4.233   4.317
  4.370   4.460   4.639   4.673
 
 Beta MOs
 -- Occupied --
-14.319 -10.217 -10.216 -10.205 -10.205 -10.205 -10.205  -0.976
 -0.811  -0.789  -0.644  -0.585  -0.568  -0.537  -0.529  -0.453
 -0.423  -0.392  -0.389  -0.378  -0.322  -0.269  -0.257  -0.244
 -- Virtual --
 -0.078   0.091   0.101   0.120   0.147   0.152   0.157   0.176
  0.182   0.188   0.202   0.225   0.259   0.259   0.302   0.367
  0.384   0.479   0.522   0.540   0.542   0.568   0.568   0.576
  0.613   0.621   0.639   0.679   0.732   0.733   0.743   0.782
  0.787   0.794   0.801   0.830   0.839   0.849   0.857   0.919
  0.944   1.003   1.007   1.141   1.164   1.205   1.236   1.401
  1.474   1.507   1.541   1.626   1.634   1.658   1.661   1.691
  1.697   1.759   1.827   1.858   1.947   1.970   1.979   1.982
  1.987   2.058   2.130   2.156   2.247   2.282   2.403   2.431
  2.502   2.523   2.529   2.541   2.565   2.603   2.640   2.714
  2.721   2.760   2.772   2.839   2.887   2.938   3.873   4.239
  4.320   4.369   4.462   4.641   4.676
 --------------------------------------------------------------
 
          Ground-State Mulliken Net Atomic Charges

     Atom                 Charge (a.u.)    Spin (a.u.)
  --------------------------------------------------------
      1 C                    -0.044781      -0.080340
      2 C                    -0.124760       0.089577
      3 C                    -0.124673       0.089226
      4 C                    -0.124677       0.089106
      5 C                    -0.045109      -0.080271
      6 N                    -0.285766       0.811527
      7 H                     0.149302       0.001046
      8 H                     0.143977      -0.002527
      9 H                     0.143987      -0.002497
     10 H                     0.143996      -0.002470
     11 H                     0.149354       0.001045
     12 C                    -0.124819       0.089036
     13 H                     0.143970      -0.002457
  --------------------------------------------------------
  Sum of atomic charges =    -0.000000
  Sum of spin   charges =     1.000000

 -----------------------------------------------------------------
                    Cartesian Multipole Moments
 -----------------------------------------------------------------
    Charge (ESU x 10^10)
                -0.0000
    Dipole Moment (Debye)
         X      -1.0904      Y      -1.8687      Z       0.8455
       Tot       2.3229
    Quadrupole Moments (Debye-Ang)
        XX     -37.7626     XY      -3.5658     YY     -43.2793
        XZ       2.6801     YZ       1.3215     ZZ     -39.5740
    Octopole Moments (Debye-Ang^2)
       XXX      -9.0999    XXY      -6.6840    XYY      -7.4551
       YYY     -25.3715    XXZ       4.5539    XYZ       1.9994
       YYZ       2.2124    XZZ      -6.4832    YZZ      -7.4480
       ZZZ      11.0842
    Hexadecapole Moments (Debye-Ang^3)
      XXXX    -229.4432   XXXY      -5.8571   XXYY     -79.0052
      XYYY     -16.6993   YYYY    -224.9436   XXXZ      -8.8936
      XXYZ       9.8706   XYYZ       2.6785   YYYZ      26.6737
      XXZZ     -68.3990   XYZZ      -3.9101   YYZZ     -66.1131
      XZZZ      -8.3555   YZZZ      19.8278   ZZZZ    -170.5960
 -----------------------------------------------------------------
 Calculating analytic gradient of the SCF energy
 Gradient of SCF Energy
            1           2           3           4           5           6
    1  -0.0000801  -0.0001485   0.0000892  -0.0000292  -0.0000652   0.0000011
    2   0.0001340  -0.0001791  -0.0000933   0.0000414   0.0000251   0.0000275
    3   0.0001766  -0.0000331  -0.0000443  -0.0001197   0.0001219   0.0000080
            7           8           9          10          11          12
    1  -0.0000085   0.0000958   0.0000220  -0.0000194  -0.0000234   0.0002303
    2   0.0000336   0.0000627   0.0000139  -0.0000928  -0.0000134   0.0000559
    3   0.0000162  -0.0000103  -0.0000233   0.0000056   0.0000042  -0.0001185
           13
    1  -0.0000640
    2  -0.0000156
    3   0.0000167
 Max gradient component =       2.303E-04
 RMS gradient           =       8.279E-05
 Gradient time:  CPU 8.00 s  wall 2.30 s
 Geometry Optimization Parameters
   NAtoms,    NIC,     NZ,  NCons,   NDum,   NFix, NCnnct, MaxDiis
       13     151       0       0       0       0       0       0

 Cartesian Hessian Update
 Hessian Updated using BFGS Update


** GEOMETRY OPTIMIZATION IN DELOCALIZED INTERNAL COORDINATES **
   Searching for a Minimum

   Optimization Cycle:   2

                       Coordinates (Angstroms)
     ATOM                X               Y               Z
      1  C         1.3179286975    0.3254003044    0.1677545743
      2  C         0.6049106088   -1.0115354423   -0.1160610501
      3  C        -0.7149839448   -0.5389001994   -0.7750849349
      4  C        -1.0624789205    0.2277356379    0.4707455087
      5  C        -0.5490614836    0.9932149374   -0.7638775987
      6  N         0.8041042710    1.3783649014   -0.6235733635
      7  H         2.3652096092    0.3429859612    0.4487303436
      8  H         1.1187408091   -1.9576460446   -0.2441067054
      9  H        -1.3464861185   -1.0766388259   -1.4733907095
     10  H        -2.0209629071    0.4087076432    0.9441742701
     11  H        -1.2177217093    1.6242976103   -1.3389779888
     12  C         0.2582126761   -0.2446218411    1.1297599739
     13  H         0.4425884124   -0.4713646426    2.1739076807
   Point Group: c1    Number of degrees of freedom:    33


   Energy is   -286.824983789

 Hessian Updated using BFGS Update

 33 Hessian modes will be used to form the next step
  Hessian Eigenvalues:
     0.010327    0.012623    0.015683    0.016466    0.018177    0.018771
     0.019570    0.022162    0.040032    0.056069    0.064531    0.066339
     0.076772    0.084986    0.086819    0.113980    0.133576    0.139292
     0.139658    0.157416    0.196564    0.215240    0.258060    0.262018
     0.298385    0.354595    0.354610    0.354658    0.354866    0.354894
     0.354928    0.377865    0.385077

 Minimum Search - Taking Simple RFO Step
 Searching for Lamda that Minimizes Along All modes
 Value Taken    Lamda =  -0.00000110
 Step Taken.  Stepsize is  0.008577

                             Maximum     Tolerance    Cnvgd?
         Gradient           0.000107      0.000300     YES
         Displacement       0.005307      0.001200      NO
         Energy change     -0.000001      0.000001     YES


                       Distance Matrix (Angstroms)
             C (  1)   C (  2)   C (  3)   C (  4)   C (  5)   N (  6)
   C (  2)  1.541539
   C (  3)  2.401811  1.549135
   C (  4)  2.401600  2.158778  1.503521
   C (  5)  2.190791  2.402154  1.541114  1.540730
   N (  6)  1.413842  2.451300  2.450814  2.450635  1.413889
   H (  7)  1.084460  2.291805  3.429729  3.429696  3.222762  2.158447
   H (  8)  2.328434  1.084224  2.378513  3.169326  3.429185  3.372234
   H (  9)  3.429020  2.377926  1.084246  2.358330  2.328860  3.372576
   H ( 10)  3.428989  3.168028  2.357837  1.084240  2.329288  3.373288
   H ( 11)  3.222871  3.430034  2.291320  2.291197  1.084487  2.158719
   C ( 12)  1.540577  1.503471  2.159200  1.549725  2.402040  2.450768
   H ( 13)  2.329314  2.358408  3.168768  2.377968  3.429132  3.373143
             H (  7)   H (  8)   H (  9)   H ( 10)   H ( 11)   C ( 12)
   H (  8)  2.706772
   H (  9)  4.414359  2.892172
   H ( 10)  4.414555  4.107235  2.916469
   H ( 11)  4.204171  4.414535  2.707343  2.708439
   C ( 12)  2.290965  2.358489  3.169180  2.378218  3.430147
   H ( 13)  2.708482  2.917706  4.107302  2.890650  4.414612  1.084274

 
 Final energy is   -286.824983788631     


 ******************************
 **  OPTIMIZATION CONVERGED  **
 ******************************

                       Coordinates (Angstroms)
     ATOM                X               Y               Z
      1  C         1.3179286975    0.3254003044    0.1677545743
      2  C         0.6049106088   -1.0115354423   -0.1160610501
      3  C        -0.7149839448   -0.5389001994   -0.7750849349
      4  C        -1.0624789205    0.2277356379    0.4707455087
      5  C        -0.5490614836    0.9932149374   -0.7638775987
      6  N         0.8041042710    1.3783649014   -0.6235733635
      7  H         2.3652096092    0.3429859612    0.4487303436
      8  H         1.1187408091   -1.9576460446   -0.2441067054
      9  H        -1.3464861185   -1.0766388259   -1.4733907095
     10  H        -2.0209629071    0.4087076432    0.9441742701
     11  H        -1.2177217093    1.6242976103   -1.3389779888
     12  C         0.2582126761   -0.2446218411    1.1297599739
     13  H         0.4425884124   -0.4713646426    2.1739076807

Z-matrix Print:
$molecule
0 2
N 
C  1 1.413842
H  2 1.084460 1 118.940557
C  1 1.413889 2 101.565151 3 179.987715 0
H  4 1.084487 1 118.959648 2 -179.987961 0
C  2 1.540577 1 112.029053 3 148.272075 0
H  6 1.084274 2 124.176341 1 -135.375452 0
C  6 1.503471 2 60.835612 1 103.043976 0
H  8 1.084224 6 130.712296 2 111.351722 0
C  4 1.540730 1 112.008197 2 31.730830 0
H  10 1.084240 4 124.162911 1 135.462460 0
C  10 1.503521 4 60.812469 1 -103.043524 0
H  12 1.084246 10 130.687684 4 -111.472742 0
$end

 
 --------------------------------------------------------------
 
                    Orbital Energies (a.u.)
 --------------------------------------------------------------
 
 Alpha MOs
 -- Occupied --
-14.335 -10.215 -10.215 -10.207 -10.207 -10.207 -10.206  -0.986
 -0.836  -0.793  -0.649  -0.588  -0.574  -0.542  -0.533  -0.455
 -0.427  -0.415  -0.395  -0.384  -0.337  -0.275  -0.274  -0.248
 -0.212
 -- Virtual --
  0.090   0.094   0.117   0.147   0.150   0.156   0.167   0.180
  0.184   0.197   0.216   0.251   0.255   0.302   0.364   0.378
  0.477   0.520   0.537   0.541   0.562   0.565   0.574   0.608
  0.621   0.630   0.676   0.728   0.729   0.742   0.743   0.781
  0.786   0.801   0.828   0.831   0.848   0.856   0.918   0.938
  0.983   1.005   1.137   1.161   1.195   1.235   1.399   1.455
  1.490   1.538   1.622   1.629   1.653   1.659   1.667   1.691
  1.754   1.824   1.854   1.942   1.967   1.974   1.978   1.984
  2.043   2.128   2.134   2.241   2.272   2.404   2.412   2.489
  2.516   2.522   2.536   2.560   2.570   2.638   2.710   2.719
  2.757   2.769   2.837   2.881   2.932   3.847   4.233   4.317
  4.370   4.460   4.639   4.673
 
 Beta MOs
 -- Occupied --
-14.319 -10.217 -10.216 -10.205 -10.205 -10.205 -10.205  -0.976
 -0.811  -0.789  -0.644  -0.585  -0.568  -0.537  -0.529  -0.453
 -0.423  -0.392  -0.389  -0.378  -0.322  -0.269  -0.257  -0.244
 -- Virtual --
 -0.078   0.091   0.101   0.120   0.147   0.152   0.157   0.176
  0.182   0.188   0.202   0.225   0.259   0.259   0.302   0.367
  0.384   0.479   0.522   0.540   0.542   0.568   0.568   0.576
  0.613   0.621   0.639   0.679   0.732   0.733   0.743   0.782
  0.787   0.794   0.801   0.830   0.839   0.849   0.857   0.919
  0.944   1.003   1.007   1.141   1.164   1.205   1.236   1.401
  1.474   1.507   1.541   1.626   1.634   1.658   1.661   1.691
  1.697   1.759   1.827   1.858   1.947   1.970   1.979   1.982
  1.987   2.058   2.130   2.156   2.247   2.282   2.403   2.431
  2.502   2.523   2.529   2.541   2.565   2.603   2.640   2.714
  2.721   2.760   2.772   2.839   2.887   2.938   3.873   4.239
  4.320   4.369   4.462   4.641   4.676
 --------------------------------------------------------------
 
          Ground-State Mulliken Net Atomic Charges

     Atom                 Charge (a.u.)    Spin (a.u.)
  --------------------------------------------------------
      1 C                    -0.044781      -0.080340
      2 C                    -0.124760       0.089577
      3 C                    -0.124673       0.089226
      4 C                    -0.124677       0.089106
      5 C                    -0.045109      -0.080271
      6 N                    -0.285766       0.811527
      7 H                     0.149302       0.001046
      8 H                     0.143977      -0.002527
      9 H                     0.143987      -0.002497
     10 H                     0.143996      -0.002470
     11 H                     0.149354       0.001045
     12 C                    -0.124819       0.089036
     13 H                     0.143970      -0.002457
  --------------------------------------------------------
  Sum of atomic charges =    -0.000000
  Sum of spin   charges =     1.000000

 -----------------------------------------------------------------
                    Cartesian Multipole Moments
 -----------------------------------------------------------------
    Charge (ESU x 10^10)
                -0.0000
    Dipole Moment (Debye)
         X      -1.0904      Y      -1.8687      Z       0.8455
       Tot       2.3229
    Quadrupole Moments (Debye-Ang)
        XX     -37.7626     XY      -3.5658     YY     -43.2793
        XZ       2.6801     YZ       1.3215     ZZ     -39.5740
    Octopole Moments (Debye-Ang^2)
       XXX      -9.0999    XXY      -6.6840    XYY      -7.4551
       YYY     -25.3715    XXZ       4.5539    XYZ       1.9994
       YYZ       2.2124    XZZ      -6.4832    YZZ      -7.4480
       ZZZ      11.0842
    Hexadecapole Moments (Debye-Ang^3)
      XXXX    -229.4432   XXXY      -5.8571   XXYY     -79.0052
      XYYY     -16.6993   YYYY    -224.9436   XXXZ      -8.8936
      XXYZ       9.8706   XYYZ       2.6785   YYYZ      26.6737
      XXZZ     -68.3990   XYZZ      -3.9101   YYZZ     -66.1131
      XZZZ      -8.3555   YZZZ      19.8278   ZZZZ    -170.5960
 -----------------------------------------------------------------
Archival summary:
1\1\c8-90\OPT\ProcedureUnspecified\6-31G*\166(2)\hpark21\WedMar216:01:442022WedMar216:01:442022\0\\#,OPT,ProcedureUnspecified,6-31G*,\\0,2\N\C,1,1.41384\H,2,1.08446,1,118.941\C,1,1.41389,2,101.565,3,179.988,0\H,4,1.08449,1,118.96,2,-179.988,0\C,2,1.54058,1,112.029,3,148.272,0\H,6,1.08427,2,124.176,1,-135.375,0\C,6,1.50347,2,60.8356,1,103.044,0\H,8,1.08422,6,130.712,2,111.352,0\C,4,1.54073,1,112.008,2,31.7308,0\H,10,1.08424,4,124.163,1,135.462,0\C,10,1.50352,4,60.8125,1,-103.044,0\H,12,1.08425,10,130.688,4,-111.473,0\\\@

 Total job time:  48.69s(wall), 108.01s(cpu) 
 Wed Mar  2 16:01:44 2022

        *************************************************************
        *                                                           *
        *  Thank you very much for using Q-Chem.  Have a nice day.  *
        *                                                           *
        *************************************************************


