
Running Job 1 of 1 qcts2.in
qchem qcts2.in_107520.0 ./qcts2.d/ 1
/home/leeping/opt/qchem/5.0.2-openmp/exe/qcprog.exe_s qcts2.in_107520.0 ./qcts2.d/
Check license passed

                  Welcome to Q-Chem
     A Quantum Leap Into The Future Of Chemistry


 Q-Chem 5.0, Q-Chem, Inc., Pleasanton, CA (2017)

 Yihan Shao,  Zhengting Gan,  E. Epifanovsky,  A. T. B. Gilbert,  M. Wormit,  
 J. Kussmann,  A. W. Lange,  A. Behn,  Jia Deng,  Xintian Feng,  D. Ghosh,  
 M. Goldey,  P. R. Horn,  L. D. Jacobson,  I. Kaliman,  T. Kus,  A. Landau,  
 Jie Liu,  E. I. Proynov,  R. M. Richard,  R. P. Steele,  E. J. Sundstrom,  
 H. L. Woodcock III,  P. M. Zimmerman,  D. Zuev,  B. Albrecht,  E. Alguire,  
 S. A. Baeppler,  D. Barton,  Z. Benda,  Y. A. Bernard,  E. J. Berquist,  
 K. B. Bravaya,  H. Burton,  D. Casanova,  Chun-Min Chang,  Yunqing Chen,  
 A. Chien,  K. D. Closser,  M. P. Coons,  S. Dasgupta,  A. L. Dempwolff,  
 M. Diedenhofen,  Hainam Do,  R. G. Edgar,  Po-Tung Fang,  S. Fatehi,  
 Qingguo Feng,  J. Fosso-Tande,  Qinghui Ge,  A. Ghysels,  G. Gidofalvi,  
 J. Gomes,  J. Gonthier,  A. Gunina,  M. W. D. Hanson-Heine,  
 P. H. P. Harbach,  A. W. Hauser,  J. E. Herr,  E. G. Hohenstein,  
 Z. C. Holden,  Kerwin Hui,  T.-C. Jagau,  Hyunjun Ji,  B. Kaduk,  
 K. Khistyaev,  Jaehoon Kim,  P. Klunzinger,  K. Koh,  D. Kosenkov,  
 L. Koulias,  T. Kowalczyk,  C. M. Krauter,  A. Kunitsa,  Ka Un Lao,  
 A. Laurent,  K. V. Lawler,  Joonho Lee,  D. Lefrancois,  S. Lehtola,  
 D. S. Levine,  Yi-Pei Li,  You-Sheng Lin,  Fenglai Liu,  E. Livshits,  
 A. Luenser,  P. Manohar,  E. Mansoor,  S. F. Manzer,  Shan-Ping Mao,  
 Yuezhi Mao,  N. Mardirossian,  A. V. Marenich,  T. Markovich,  
 L. A. Martinez-Martinez,  S. A. Maurer,  N. J. Mayhall,  S. C. McKenzie,  
 J.-M. Mewes,  A. F. Morrison,  J. W. Mullinax,  K. Nanda,  
 T. S. Nguyen-Beck,  R. Olivares-Amaya,  J. A. Parkhill,  T. M. Perrine,  
 F. Plasser,  S. Prager,  A. Prociuk,  E. Ramos,  D. R. Rehn,  F. Rob,  
 M. Schneider,  N. Sergueev,  S. M. Sharada,  S. Sharma,  D. W. Small,  
 T. Stauch,  T. Stein,  Yu-Chuan Su,  A. J. W. Thom,  A. Tkatchenko,  
 T. Tsuchimochi,  L. Vogt,  O. Vydrov,  M. A. Watson,  J. Wenzel,  
 M. de Wergifosse,  T. A. Wesolowski,  A. White,  J. Witte,  A. Yamada,  
 Jun Yang,  K. Yao,  S. Yeganeh,  S. R. Yost,  Zhi-Qiang You,  A. Zech,  
 Igor Ying Zhang,  Xing Zhang,  Yan Zhao,  Ying Zhu,  B. R. Brooks,  
 G. K. L. Chan,  C. J. Cramer,  M. S. Gordon,  W. J. Hehre,  A. Klamt,  
 M. W. Schmidt,  C. D. Sherrill,  D. G. Truhlar,  A. Aspuru-Guzik,  R. Baer,  
 A. T. Bell,  N. A. Besley,  Jeng-Da Chai,  R. A. DiStasio Jr.,  A. Dreuw,  
 B. D. Dunietz,  T. R. Furlani,  Chao-Ping Hsu,  Yousung Jung,  Jing Kong,  
 D. S. Lambrecht,  WanZhen Liang,  C. Ochsenfeld,  V. A. Rassolov,  
 L. V. Slipchenko,  J. E. Subotnik,  T. Van Voorhis,  J. M. Herbert,  
 A. I. Krylov,  P. M. W. Gill,  M. Head-Gordon

 Contributors to earlier versions of Q-Chem not listed above: 
 R. D. Adamson,  B. Austin,  J. Baker,  G. J. O. Beran,  K. Brandhorst,  
 S. T. Brown,  E. F. C. Byrd,  A. K. Chakraborty,  C.-L. Cheng,  
 Siu Hung Chien,  D. M. Chipman,  D. L. Crittenden,  H. Dachsel,  
 R. J. Doerksen,  A. D. Dutoi,  L. Fusti-Molnar,  W. A. Goddard III,  
 A. Golubeva-Zadorozhnaya,  S. R. Gwaltney,  G. Hawkins,  A. Heyden,  
 S. Hirata,  G. Kedziora,  F. J. Keil,  C. Kelley,  Jihan Kim,  R. A. King,  
 R. Z. Khaliullin,  P. P. Korambath,  W. Kurlancheek,  A. M. Lee,  M. S. Lee,  
 S. V. Levchenko,  Ching Yeh Lin,  D. Liotard,  R. C. Lochan,  I. Lotan,  
 P. E. Maslen,  N. Nair,  D. P. O'Neill,  D. Neuhauser,  E. Neuscamman,  
 C. M. Oana,  R. Olson,  B. Peters,  R. Peverati,  P. A. Pieniazek,  
 Y. M. Rhee,  J. Ritchie,  M. A. Rohrdanz,  E. Rosta,  N. J. Russ,  
 H. F. Schaefer III,  N. E. Schultz,  N. Shenvi,  A. C. Simmonett,  A. Sodt,  
 D. Stuck,  K. S. Thanthiriwatte,  V. Vanovschi,  Tao Wang,  A. Warshel,  
 C. F. Williams,  Q. Wu,  X. Xu,  W. Zhang

 Please cite Q-Chem as follows:
 Y. Shao et al., Mol. Phys. 113, 184-215 (2015)
 DOI: 10.1080/00268976.2014.952696

 Q-Chem 5.0.2 for Intel X86 EM64T Linux

 Parts of Q-Chem use Armadillo 5.200.1 (Boston Tea Smuggler).
 http://arma.sourceforge.net/

 Q-Chem begins on Wed Mar  2 17:02:01 2022  

Host: 
0

     Scratch files written to ./qcts2.d//
 Dec517 15110_ 26548  26544 5633   
Processing $rem in /home/leeping/opt/qchem/5.0.2-openmp/config/preferences.
 MEM_STATIC 2000
 MEM_TOTAL  8000
 SYMMETRY   OFF
 SYM_IGNORE TRUE 

Checking the input file for inconsistencies... 	...done.

--------------------------------------------------------------
User input:
--------------------------------------------------------------
$molecule
0 2
C        1.3800397214    0.3727486308   -0.1465679716
C        0.7318083402   -0.9795902813   -0.2369655050
C       -0.7164156319   -0.9839370970   -0.6042998501
C       -1.0530894865    0.3601685638    0.1287169469
C       -0.4630765339    1.5183429408   -0.5759832129
N        0.8397152218    1.5143907297   -0.6650662999
H        2.3922666876    0.3990073250    0.2462070279
H        1.3337378961   -1.8802747579   -0.1738155364
H       -1.2732449321   -1.8815051222   -0.3342375579
H       -2.0559600881    0.4600457314    0.5398825123
H       -1.0551812423    2.3052324041   -1.0349266661
C        0.0241050553   -0.3698057442    0.9360522726
H       -0.1177192501   -0.8287515653    1.9129614748
$end

$rem
method                b3lyp
basis                 6-31+g(d,p)
unrestricted          true
symmetry              off
sym_ignore            true
incdft                false
incfock               0
scf_convergence       8
thresh                14
jobtype               freq
scf_guess             read
scf_algorithm         diis
max_scf_cycles        100
$end

--------------------------------------------------------------
 ----------------------------------------------------------------
             Standard Nuclear Orientation (Angstroms)
    I     Atom           X                Y                Z
 ----------------------------------------------------------------
    1      C       1.3800397214     0.3727486308    -0.1465679716
    2      C       0.7318083402    -0.9795902813    -0.2369655050
    3      C      -0.7164156319    -0.9839370970    -0.6042998501
    4      C      -1.0530894865     0.3601685638     0.1287169469
    5      C      -0.4630765339     1.5183429408    -0.5759832129
    6      N       0.8397152218     1.5143907297    -0.6650662999
    7      H       2.3922666876     0.3990073250     0.2462070279
    8      H       1.3337378961    -1.8802747579    -0.1738155364
    9      H      -1.2732449321    -1.8815051222    -0.3342375579
   10      H      -2.0559600881     0.4600457314     0.5398825123
   11      H      -1.0551812423     2.3052324041    -1.0349266661
   12      C       0.0241050553    -0.3698057442     0.9360522726
   13      H      -0.1177192501    -0.8287515653     1.9129614748
 ----------------------------------------------------------------
 Nuclear Repulsion Energy =   280.4631828445 hartrees
 There are       25 alpha and       24 beta electrons
 Requested basis set is 6-31+G(d,p)
 There are 53 shells and 163 basis functions

 Total QAlloc Memory Limit   8000 MB
 Mega-Array Size      1956 MB
 MEM_STATIC part      2000 MB

                       Distance Matrix (Angstroms)
             C (  1)   C (  2)   C (  3)   C (  4)   C (  5)   N (  6)
   C (  2)  1.502397
   C (  3)  2.538748  1.494090
   C (  4)  2.448685  2.261534  1.567572
   C (  5)  2.212207  2.789687  2.515231  1.478542
   N (  6)  1.365334  2.532756  2.943956  2.354789  1.305840
   H (  7)  1.086078  2.211585  3.507107  3.447578  3.175200  2.117762
   H (  8)  2.253664  1.085145  2.278567  3.287561  3.865344  3.465421
   H (  9)  3.486660  2.200716  1.090239  2.299543  3.503396  4.013248
   H ( 10)  3.504986  3.232290  2.277854  1.088477  2.214143  3.308849
   H ( 11)  3.233261  3.823628  3.334492  2.266571  1.086468  2.086351
   C ( 12)  1.887329  1.499551  1.816098  1.531340  2.467530  2.603651
   H ( 13)  2.815767  2.316600  2.592127  2.339226  3.438455  3.612925
             H (  7)   H (  8)   H (  9)   H ( 10)   H ( 11)   C ( 12)
   H (  8)  2.547946
   H (  9)  4.355873  2.611914
   H ( 10)  4.458328  4.180492  2.619082
   H ( 11)  4.142450  4.895602  4.250563  2.624175
   C ( 12)  2.583631  2.286583  2.362623  2.274264  3.493629
   H ( 13)  3.253535  2.750830  2.737414  2.702429  4.403491  1.088622

 
 A cutoff of  1.0D-14 yielded   1398 shell pairs
 There are     13494 function pairs
 Smallest overlap matrix eigenvalue = 4.02E-05
 Guess MOs from SCF MO coefficient file
 Reading MOs from coefficient file
 Reading MOs from coefficient file
 An unrestricted hybrid HF-DFT SCF calculation will be
 performed using Pulay DIIS extrapolation
 Exchange:     0.2000 Hartree-Fock + 0.0800 Slater + 0.7200 B88
 Correlation:  0.1900 VWN1RPA + 0.8100 LYP
 Using SG-1 standard quadrature grid
 SCF converges when DIIS error is below 1.0E-08
Using Q-Chem read-in guess as SCF_GUESS READ specified.

 -------------------------------------------------------
 OpenMP BLAS3 based DFT computing Module                
 -------------------------------------------------------
 ---------------------------------------
  Cycle       Energy         DIIS Error
 ---------------------------------------
    1    -286.8140839209      8.71E-10
    2    -286.8140839209      1.60E-09 Convergence criterion met
 ---------------------------------------
 <S^2> = 0.7771
 SCF time:  CPU 6.97 s  wall 10.73 s
 SCF   energy in the final basis set = -286.81408392
 Total energy in the final basis set = -286.81408392
 
 --------------------------------------------------------------
 
                    Orbital Energies (a.u.)
 --------------------------------------------------------------
 
 Alpha MOs
 -- Occupied --
-14.332 -10.251 -10.246 -10.232 -10.230 -10.228 -10.220  -0.979
 -0.888  -0.767  -0.655  -0.637  -0.613  -0.556  -0.505  -0.461
 -0.449  -0.433  -0.422  -0.381  -0.374  -0.322  -0.281  -0.256
 -0.139
 -- Virtual --
 -0.036  -0.008   0.015   0.016   0.027   0.037   0.052   0.053
  0.065   0.069   0.074   0.096   0.098   0.102   0.108   0.110
  0.120   0.129   0.142   0.149   0.157   0.166   0.172   0.183
  0.188   0.200   0.208   0.217   0.231   0.240   0.244   0.249
  0.252   0.266   0.280   0.285   0.307   0.317   0.324   0.342
  0.360   0.365   0.438   0.460   0.616   0.622   0.638   0.672
  0.692   0.706   0.719   0.740   0.748   0.754   0.771   0.791
  0.808   0.840   0.873   0.890   0.918   0.927   0.962   0.976
  0.998   1.018   1.037   1.069   1.084   1.102   1.133   1.148
  1.177   1.224   1.306   1.338   1.360   1.404   1.445   1.481
  1.521   1.588   1.594   1.676   1.713   1.735   1.803   1.835
  1.862   1.903   1.944   1.986   2.038   2.062   2.096   2.160
  2.176   2.188   2.260   2.268   2.296   2.340   2.360   2.365
  2.417   2.423   2.456   2.490   2.509   2.514   2.538   2.556
  2.574   2.590   2.628   2.650   2.675   2.708   2.714   2.755
  2.820   2.882   2.962   3.080   3.110   3.290   3.312   3.375
  3.444   3.500   3.670   4.194   4.378   4.453   4.533   4.581
  4.653   4.708
 
 Beta MOs
 -- Occupied --
-14.332 -10.252 -10.243 -10.228 -10.227 -10.224 -10.216  -0.974
 -0.884  -0.759  -0.647  -0.627  -0.610  -0.553  -0.500  -0.458
 -0.443  -0.429  -0.412  -0.374  -0.366  -0.303  -0.274  -0.246
 -- Virtual --
 -0.052  -0.020  -0.007   0.015   0.020   0.029   0.040   0.053
  0.059   0.065   0.072   0.076   0.096   0.098   0.103   0.109
  0.112   0.122   0.131   0.143   0.152   0.158   0.167   0.174
  0.184   0.190   0.201   0.212   0.218   0.233   0.245   0.247
  0.251   0.255   0.269   0.283   0.290   0.309   0.319   0.327
  0.344   0.365   0.371   0.443   0.466   0.620   0.627   0.641
  0.669   0.699   0.720   0.731   0.748   0.752   0.758   0.776
  0.797   0.814   0.844   0.882   0.894   0.922   0.930   0.964
  0.979   1.002   1.021   1.038   1.072   1.085   1.107   1.139
  1.154   1.183   1.228   1.311   1.345   1.366   1.405   1.452
  1.487   1.526   1.593   1.603   1.680   1.721   1.744   1.818
  1.839   1.868   1.907   1.948   1.990   2.044   2.066   2.105
  2.167   2.182   2.192   2.265   2.274   2.302   2.343   2.369
  2.370   2.421   2.427   2.460   2.496   2.516   2.518   2.545
  2.569   2.582   2.594   2.634   2.657   2.680   2.711   2.718
  2.760   2.823   2.886   2.966   3.083   3.112   3.291   3.313
  3.381   3.445   3.502   3.673   4.195   4.386   4.469   4.538
  4.588   4.654   4.712
 --------------------------------------------------------------
 
          Ground-State Mulliken Net Atomic Charges

     Atom                 Charge (a.u.)    Spin (a.u.)
  --------------------------------------------------------
      1 C                    -0.240006       0.258082
      2 C                    -0.067862       0.038519
      3 C                    -0.144609       0.611203
      4 C                    -0.268732      -0.045372
      5 C                     0.018232       0.245819
      6 N                    -0.197029      -0.011759
      7 H                     0.142647      -0.009807
      8 H                     0.150433      -0.007073
      9 H                     0.152455      -0.003629
     10 H                     0.139768      -0.002821
     11 H                     0.128456      -0.013587
     12 C                     0.038150      -0.075286
     13 H                     0.148097       0.015710
  --------------------------------------------------------
  Sum of atomic charges =    -0.000000
  Sum of spin   charges =     1.000000

 -----------------------------------------------------------------
                    Cartesian Multipole Moments
 -----------------------------------------------------------------
    Charge (ESU x 10^10)
                -0.0000
    Dipole Moment (Debye)
         X      -1.0201      Y      -2.5028      Z       2.1036
       Tot       3.4248
    Quadrupole Moments (Debye-Ang)
        XX     -39.1350     XY      -4.7762     YY     -43.5240
        XZ       0.7522     YZ      -0.5307     ZZ     -44.3720
    Octopole Moments (Debye-Ang^2)
       XXX      -8.9395    XXY      -9.7455    XYY     -11.4757
       YYY     -32.6941    XXZ       9.5428    XYZ       4.6029
       YYZ       7.2791    XZZ      -5.0223    YZZ      -8.5269
       ZZZ      24.5559
    Hexadecapole Moments (Debye-Ang^3)
      XXXX    -249.4384   XXXY     -15.1327   XXYY    -101.5224
      XYYY     -30.9144   YYYY    -340.3476   XXXZ       6.3043
      XXYZ      12.1252   XYYZ      10.1797   YYYZ      29.6897
      XXZZ     -74.4538   XYZZ      -9.6278   YYZZ     -84.0601
      XZZZ       2.7080   YZZZ      24.0470   ZZZZ    -147.5713
 -----------------------------------------------------------------
 Calculating MO derivatives via CPSCF
   1         3          39      0.314635    0.061991
   2         3          39      0.044446    0.008860
   3         3          39      0.005944    0.001061
   4         3          39      0.000802    0.000141
   5        22          20      0.000076    0.000015
   6        40           2      0.000003    0.000001
   7        42           0      0.000000    0.000000    Roots Converged
 Time for AOints: 20.0 s (CPU) 23.0 s (wall)
 ------------------------------------------------------------------------------
                     AOints        : Timing summary (seconds)
 ------------------------------------------------------------------------------
     job step          cpu (% of tot)      sys (% of tot)     wall (% of tot)
 ------------------------------------------------------------------------------
  cpscf_lag         0.1188E+03 (27.8)   0.4800E-04 (21.1)   0.1223E+03 (27.2)
  iterzp            0.2888E+03 (67.5)   0.1730E-03 (75.9)   0.3041E+03 (67.6)
  make_fx           0.0000E+00 ( 0.0)   0.0000E+00 ( 0.0)   0.0000E+00 ( 0.0)
  AOints            0.1999E+02 ( 4.7)   0.2000E-05 ( 0.9)   0.2300E+02 ( 5.1)
 ------------------------------------------------------------------------------
   Grand Totals     0.4279E+03          0.2280E-03          0.4498E+03
 ------------------------------------------------------------------------------
 Calculating analytic Hessian of the SCF energy
 Polarizability Matrix (a.u.)
            1           2           3
    1 -78.8086647  -4.4398634  -1.5314495
    2  -4.4398634 -87.5310633   4.8708621
    3  -1.5314495   4.8708621 -64.6696567
 
 Direct stationary perturbation theory relativistic correction:
 
 rels  =       0.069393397056
 relv  =      -0.341103283309
 rel2e =       0.158742275592
 E_rel =      -0.112967610661
 
 Hessian of the SCF Energy
            1           2           3           4           5           6
    1   0.6025613  -0.0609352   0.2457279  -0.1015709  -0.0808314  -0.0512251
    2  -0.0609352   0.4987204  -0.0227963  -0.0602581  -0.2064379  -0.0169587
    3   0.2457279  -0.0227963   0.0835441  -0.0115963   0.0491087  -0.0063695
    4  -0.1015709  -0.0602581  -0.0115963   0.5585032  -0.1480893   0.0142106
    5  -0.0808314  -0.2064379   0.0491087  -0.1480893   0.6074769   0.0204774
    6  -0.0512251  -0.0169587  -0.0063695   0.0142106   0.0204774   0.2425234
    7  -0.0123139  -0.0229278   0.0126597  -0.2283374   0.0001880  -0.0452604
    8  -0.0265576  -0.0001995  -0.0090337  -0.0160132  -0.0907391  -0.0025533
    9  -0.0154893  -0.0424376   0.0971604  -0.0959415  -0.0209742  -0.0074305
   10  -0.0330627  -0.0092521   0.0230574  -0.0324521   0.0344389   0.0077471
   11   0.0105369  -0.0151468   0.0206046   0.0160855  -0.0146503   0.0137064
   12  -0.0086191  -0.0061894  -0.0122196   0.0279722  -0.0106191  -0.0003903
   13  -0.0646906   0.0570313  -0.0732392   0.0207021   0.0076746  -0.0122336
   14   0.0393614  -0.0240229   0.0192850   0.0033609  -0.0013968  -0.0012316
   15  -0.0079778   0.0210299  -0.0082114  -0.0008118   0.0060381   0.0056852
   16  -0.1210187   0.0727187   0.0203602  -0.0238303  -0.0194278   0.0158620
   17   0.0737607  -0.2247253   0.0352225   0.0136109  -0.0271528   0.0190979
   18  -0.0576155   0.0446432  -0.0489545   0.0032207  -0.0130704   0.0048220
   19  -0.3014879  -0.0137094  -0.1031841  -0.0061920  -0.0006999  -0.0012357
   20  -0.0187819  -0.0468567   0.0039623  -0.0270090  -0.0015322  -0.0113161
   21  -0.1025208  -0.0010332  -0.0708492  -0.0066407   0.0024705  -0.0048893
   22   0.0109381  -0.0142197   0.0037087  -0.1389899   0.1339117  -0.0108781
   23   0.0135018  -0.0148664   0.0033103   0.1372935  -0.2512823   0.0126254
   24  -0.0061834   0.0002188  -0.0000737  -0.0180250   0.0210501  -0.0395402
   25  -0.0044474   0.0058040  -0.0038554  -0.0125071  -0.0279980   0.0055154
   26   0.0008539  -0.0003471  -0.0028452   0.0072292   0.0087833  -0.0028019
   27   0.0043619   0.0014499  -0.0073929  -0.0034850   0.0003101  -0.0022570
   28  -0.0012782   0.0002065   0.0004346  -0.0015195   0.0011232   0.0004833
   29  -0.0020439  -0.0017694   0.0011341   0.0044219  -0.0060580  -0.0030439
   30  -0.0046234   0.0015948   0.0011750  -0.0033795  -0.0032459  -0.0020101
   31  -0.0046262   0.0006826  -0.0005865  -0.0004763   0.0000788  -0.0000799
   32   0.0002844   0.0073057   0.0011674  -0.0016795   0.0010439   0.0002994
   33   0.0030325   0.0063282   0.0056020  -0.0031322   0.0014188   0.0013200
   34   0.0221557   0.0307641  -0.1021525  -0.0315125   0.1069708   0.0649005
   35   0.0435723   0.0218736  -0.0886497   0.0708605  -0.0258164  -0.0101995
   36  -0.0016692   0.0129144  -0.0285663   0.0934976  -0.0601712  -0.1777634
   37   0.0088415   0.0140950  -0.0113345  -0.0018173  -0.0073397   0.0121938
   38   0.0072784   0.0064723  -0.0104699   0.0001866   0.0077618  -0.0181015
   39   0.0028014   0.0012360  -0.0048444   0.0041108   0.0072069  -0.0137005
            7           8           9          10          11          12
    1  -0.0123139  -0.0265576  -0.0154893  -0.0330627   0.0105369  -0.0086191
    2  -0.0229278  -0.0001995  -0.0424376  -0.0092521  -0.0151468  -0.0061894
    3   0.0126597  -0.0090337   0.0971604   0.0230574   0.0206046  -0.0122196
    4  -0.2283374  -0.0160132  -0.0959415  -0.0324521   0.0160855   0.0279722
    5   0.0001880  -0.0907391  -0.0209742   0.0344389  -0.0146503  -0.0106191
    6  -0.0452604  -0.0025533  -0.0074305   0.0077471   0.0137064  -0.0003903
    7   0.4072011   0.1438069  -0.0298025  -0.0686275  -0.0318838   0.0307892
    8   0.1438069   0.4746758  -0.0195081   0.0154506  -0.1099135  -0.0330237
    9  -0.0298025  -0.0195081   0.0114897   0.0194529  -0.0731952  -0.0024405
   10  -0.0686275   0.0154506   0.0194529   0.6520587  -0.0462692  -0.1526481
   11  -0.0318838  -0.1099135  -0.0731952  -0.0462692   0.3860093  -0.0809957
   12   0.0307892  -0.0330237  -0.0024405  -0.1526481  -0.0809957   0.3000771
   13   0.0282871  -0.0109561   0.0546574  -0.1070987  -0.0035002   0.0206083
   14  -0.0010802  -0.0416739  -0.0029171  -0.0357638  -0.1445741   0.0717475
   15  -0.0171899  -0.0123606   0.0102187   0.0303290   0.0547977  -0.1061582
   16  -0.0271982   0.0023986  -0.0686456  -0.0466426  -0.0600698   0.0306173
   17   0.0128047   0.0044420   0.0223614  -0.0210728   0.0164669   0.0155531
   18  -0.0020585   0.0054646  -0.0307149   0.0098649   0.0054633   0.0095086
   19  -0.0001133  -0.0008194  -0.0015125  -0.0006531  -0.0011604   0.0002082
   20   0.0009394  -0.0052579   0.0041089   0.0004287   0.0007413  -0.0002856
   21   0.0003698  -0.0019205  -0.0002526   0.0026619   0.0003416   0.0009580
   22  -0.0059072   0.0199287   0.0060616  -0.0069434   0.0021328  -0.0002654
   23  -0.0033751   0.0065431   0.0020339  -0.0023823   0.0001936  -0.0023488
   24  -0.0033789   0.0121866  -0.0057242  -0.0000456  -0.0040182  -0.0022898
   25  -0.1162384  -0.1142090   0.0381565   0.0084406   0.0086384  -0.0050273
   26  -0.1227931  -0.2411311   0.0556617  -0.0103459  -0.0089278   0.0069927
   27   0.0580527   0.0773644  -0.0323307  -0.0054502  -0.0079266  -0.0047371
   28   0.0007096   0.0006150  -0.0019240  -0.2889397   0.0254153   0.0984084
   29   0.0229936   0.0003055  -0.0007785   0.0224808  -0.0484042  -0.0042634
   30   0.0151329   0.0005195  -0.0055310   0.1012568  -0.0022673  -0.0897935
   31   0.0004989   0.0001535   0.0012498   0.0096581  -0.0087531   0.0062694
   32   0.0001986  -0.0008386  -0.0008721   0.0128867  -0.0076195   0.0094324
   33  -0.0002912  -0.0004730  -0.0061810  -0.0059671   0.0025651   0.0046455
   34   0.0151931  -0.0217871   0.0814184  -0.0912873   0.0772597  -0.0288679
   35  -0.0086379  -0.0021038   0.0682395   0.0486591  -0.0535434   0.0312886
   36  -0.0234651  -0.0183365  -0.0350264  -0.0314472   0.0653497  -0.0918218
   37   0.0068459   0.0079891   0.0123189   0.0055496   0.0115679  -0.0194453
   38   0.0097667   0.0058908   0.0082775  -0.0092586  -0.0006315   0.0027113
   39   0.0044423   0.0016744   0.0067630   0.0011882   0.0055745  -0.0053384
           13          14          15          16          17          18
    1  -0.0646906   0.0393614  -0.0079778  -0.1210187   0.0737607  -0.0576155
    2   0.0570313  -0.0240229   0.0210299   0.0727187  -0.2247253   0.0446432
    3  -0.0732392   0.0192850  -0.0082114   0.0203602   0.0352225  -0.0489545
    4   0.0207021   0.0033609  -0.0008118  -0.0238303   0.0136109   0.0032207
    5   0.0076746  -0.0013968   0.0060381  -0.0194278  -0.0271528  -0.0130704
    6  -0.0122336  -0.0012316   0.0056852   0.0158620   0.0190979   0.0048220
    7   0.0282871  -0.0010802  -0.0171899  -0.0271982   0.0128047  -0.0020585
    8  -0.0109561  -0.0416739  -0.0123606   0.0023986   0.0044420   0.0054646
    9   0.0546574  -0.0029171   0.0102187  -0.0686456   0.0223614  -0.0307149
   10  -0.1070987  -0.0357638   0.0303290  -0.0466426  -0.0210728   0.0098649
   11  -0.0035002  -0.1445741   0.0547977  -0.0600698   0.0164669   0.0054633
   12   0.0206083   0.0717475  -0.1061582   0.0306173   0.0155531   0.0095086
   13   0.7352441  -0.1098970   0.0279928  -0.4274871  -0.0028672   0.0444652
   14  -0.1098970   0.5087117  -0.2179684  -0.0199643  -0.0763245   0.0152593
   15   0.0279928  -0.2179684   0.2673751   0.0403313   0.0096785  -0.0616889
   16  -0.4274871  -0.0199643   0.0403313   0.6113935  -0.0591347  -0.0301842
   17  -0.0028672  -0.0763245   0.0096785  -0.0591347   0.3531560  -0.1088480
   18   0.0444652   0.0152593  -0.0616889  -0.0301842  -0.1088480   0.1342415
   19   0.0032863   0.0011656  -0.0033482  -0.0101716   0.0053934  -0.0024301
   20   0.0007027  -0.0037487   0.0038063   0.0323606  -0.0017592   0.0087465
   21   0.0008238   0.0021467   0.0004976  -0.0142021   0.0011757  -0.0054125
   22  -0.0009758  -0.0015262   0.0007607  -0.0001882  -0.0017153  -0.0022889
   23  -0.0008623  -0.0006556   0.0003041  -0.0005391  -0.0015161  -0.0028684
   24   0.0043169  -0.0007236   0.0008257  -0.0035837   0.0041143  -0.0018821
   25  -0.0002300   0.0018363   0.0014052   0.0014411  -0.0002222   0.0001990
   26  -0.0020806  -0.0016357  -0.0030366   0.0031025  -0.0011760   0.0025277
   27  -0.0038707   0.0020735  -0.0015628   0.0016434  -0.0016886   0.0037679
   28  -0.0067737   0.0015787   0.0008690  -0.0003532  -0.0003170   0.0016476
   29  -0.0244563   0.0077967   0.0053418  -0.0024147  -0.0033010   0.0030462
   30   0.0113655  -0.0067045  -0.0022246   0.0023442   0.0042097   0.0001205
   31  -0.1300161   0.1047207  -0.0611383  -0.0211698   0.0248483  -0.0133638
   32   0.1080029  -0.2040328   0.1026838   0.0047950   0.0009485  -0.0035975
   33  -0.0628005   0.1048662  -0.0888606   0.0027786  -0.0087606  -0.0013887
   34  -0.0409193   0.0191080  -0.0094703   0.0550181  -0.0402425   0.0434686
   35  -0.0137795  -0.0153239   0.0271371   0.0372146  -0.0339405   0.0371473
   36  -0.0069307   0.0165798  -0.0160970  -0.0024626   0.0098677  -0.0060574
   37  -0.0093283  -0.0029001  -0.0017518   0.0102070  -0.0048463   0.0050748
   38  -0.0050123  -0.0031193   0.0025483   0.0089604  -0.0051181   0.0060862
   39  -0.0051552  -0.0024128   0.0002012   0.0051411  -0.0019836   0.0036385
           19          20          21          22          23          24
    1  -0.3014879  -0.0187819  -0.1025208   0.0109381   0.0135018  -0.0061834
    2  -0.0137094  -0.0468567  -0.0010332  -0.0142197  -0.0148664   0.0002188
    3  -0.1031841   0.0039623  -0.0708492   0.0037087   0.0033103  -0.0000737
    4  -0.0061920  -0.0270090  -0.0066407  -0.1389899   0.1372935  -0.0180250
    5  -0.0006999  -0.0015322   0.0024705   0.1339117  -0.2512823   0.0210501
    6  -0.0012357  -0.0113161  -0.0048893  -0.0108781   0.0126254  -0.0395402
    7  -0.0001133   0.0009394   0.0003698  -0.0059072  -0.0033751  -0.0033789
    8  -0.0008194  -0.0052579  -0.0019205   0.0199287   0.0065431   0.0121866
    9  -0.0015125   0.0041089  -0.0002526   0.0060616   0.0020339  -0.0057242
   10  -0.0006531   0.0004287   0.0026619  -0.0069434  -0.0023823  -0.0000456
   11  -0.0011604   0.0007413   0.0003416   0.0021328   0.0001936  -0.0040182
   12   0.0002082  -0.0002856   0.0009580  -0.0002654  -0.0023488  -0.0022898
   13   0.0032863   0.0007027   0.0008238  -0.0009758  -0.0008623   0.0043169
   14   0.0011656  -0.0037487   0.0021467  -0.0015262  -0.0006556  -0.0007236
   15  -0.0033482   0.0038063   0.0004976   0.0007607   0.0003041   0.0008257
   16  -0.0101716   0.0323606  -0.0142021  -0.0001882  -0.0005391  -0.0035837
   17   0.0053934  -0.0017592   0.0011757  -0.0017153  -0.0015161   0.0041143
   18  -0.0024301   0.0087465  -0.0054125  -0.0022889  -0.0028684  -0.0018821
   19   0.3153921   0.0094890   0.1144533   0.0001797  -0.0004781  -0.0002054
   20   0.0094890   0.0580423  -0.0043064   0.0008351   0.0007808  -0.0005414
   21   0.1144533  -0.0043064   0.0693989   0.0004523   0.0003490   0.0006758
   22   0.0001797   0.0008351   0.0004523   0.1462942  -0.1438480   0.0097242
   23  -0.0004781   0.0007808   0.0003490  -0.1438480   0.2623993  -0.0145267
   24  -0.0002054  -0.0005414   0.0006758   0.0097242  -0.0145267   0.0339808
   25  -0.0006680  -0.0019912   0.0001806   0.0007175   0.0005500   0.0002268
   26   0.0001824   0.0002785   0.0005200  -0.0006377   0.0000266  -0.0006816
   27   0.0004829  -0.0002973   0.0000293   0.0000755  -0.0004002   0.0004587
   28   0.0000046   0.0000992   0.0001677  -0.0002936  -0.0003951   0.0003450
   29  -0.0000515   0.0000752   0.0000060   0.0018206   0.0003472  -0.0003443
   30  -0.0001545   0.0000335   0.0006613   0.0000879   0.0004184   0.0007291
   31  -0.0004021   0.0012527  -0.0003836   0.0002406   0.0001745  -0.0000757
   32  -0.0000060  -0.0002432  -0.0000437   0.0003443   0.0004016   0.0000352
   33   0.0000656  -0.0003439   0.0007546   0.0002966   0.0007032   0.0002595
   34   0.0004486   0.0019528   0.0053124  -0.0055272   0.0004584   0.0182229
   35   0.0004428  -0.0005299   0.0010256   0.0033767  -0.0033335  -0.0182400
   36  -0.0037418  -0.0036203   0.0087129  -0.0074347   0.0004175   0.0104530
   37   0.0003768  -0.0002782  -0.0006746   0.0004552  -0.0000982  -0.0013381
   38   0.0002514   0.0000099  -0.0007314  -0.0004030   0.0009618   0.0014707
   39   0.0006022   0.0000536  -0.0002848  -0.0003004  -0.0000175   0.0021274
           25          26          27          28          29          30
    1  -0.0044474   0.0008539   0.0043619  -0.0012782  -0.0020439  -0.0046234
    2   0.0058040  -0.0003471   0.0014499   0.0002065  -0.0017694   0.0015948
    3  -0.0038554  -0.0028452  -0.0073929   0.0004346   0.0011341   0.0011750
    4  -0.0125071   0.0072292  -0.0034850  -0.0015195   0.0044219  -0.0033795
    5  -0.0279980   0.0087833   0.0003101   0.0011232  -0.0060580  -0.0032459
    6   0.0055154  -0.0028019  -0.0022570   0.0004833  -0.0030439  -0.0020101
    7  -0.1162384  -0.1227931   0.0580527   0.0007096   0.0229936   0.0151329
    8  -0.1142090  -0.2411311   0.0773644   0.0006150   0.0003055   0.0005195
    9   0.0381565   0.0556617  -0.0323307  -0.0019240  -0.0007785  -0.0055310
   10   0.0084406  -0.0103459  -0.0054502  -0.2889397   0.0224808   0.1012568
   11   0.0086384  -0.0089278  -0.0079266   0.0254153  -0.0484042  -0.0022673
   12  -0.0050273   0.0069927  -0.0047371   0.0984084  -0.0042634  -0.0897935
   13  -0.0002300  -0.0020806  -0.0038707  -0.0067737  -0.0244563   0.0113655
   14   0.0018363  -0.0016357   0.0020735   0.0015787   0.0077967  -0.0067045
   15   0.0014052  -0.0030366  -0.0015628   0.0008690   0.0053418  -0.0022246
   16   0.0014411   0.0031025   0.0016434  -0.0003532  -0.0024147   0.0023442
   17  -0.0002222  -0.0011760  -0.0016886  -0.0003170  -0.0033010   0.0042097
   18   0.0001990   0.0025277   0.0037679   0.0016476   0.0030462   0.0001205
   19  -0.0006680   0.0001824   0.0004829   0.0000046  -0.0000515  -0.0001545
   20  -0.0019912   0.0002785  -0.0002973   0.0000992   0.0000752   0.0000335
   21   0.0001806   0.0005200   0.0000293   0.0001677   0.0000060   0.0006613
   22   0.0007175  -0.0006377   0.0000755  -0.0002936   0.0018206   0.0000879
   23   0.0005500   0.0000266  -0.0004002  -0.0003951   0.0003472   0.0004184
   24   0.0002268  -0.0006816   0.0004587   0.0003450  -0.0003443   0.0007291
   25   0.1264987   0.1299865  -0.0394198   0.0002148  -0.0006806  -0.0007808
   26   0.1299865   0.2494586  -0.0561593   0.0002947   0.0007000   0.0001847
   27  -0.0394198  -0.0561593   0.0400919  -0.0002894   0.0008702   0.0007213
   28   0.0002148   0.0002947  -0.0002894   0.3055085  -0.0273808  -0.1090856
   29  -0.0006806   0.0007000   0.0008702  -0.0273808   0.0543640   0.0055830
   30  -0.0007808   0.0001847   0.0007213  -0.1090856   0.0055830   0.0842999
   31   0.0001285  -0.0003467  -0.0000938   0.0001450   0.0008425  -0.0004876
   32   0.0003158  -0.0006286   0.0003226  -0.0006208  -0.0000575  -0.0003110
   33  -0.0000383   0.0001974   0.0005421  -0.0000401  -0.0005239  -0.0003388
   34  -0.0036055  -0.0049060  -0.0119205  -0.0080075   0.0050288  -0.0124047
   35  -0.0015962  -0.0054264  -0.0169695  -0.0006493  -0.0038771   0.0009224
   36   0.0036415  -0.0003580   0.0023619   0.0090929  -0.0070940   0.0119291
   37   0.0002553  -0.0005391  -0.0000868   0.0005828  -0.0005603   0.0007287
   38  -0.0004339   0.0000257   0.0010508   0.0000304  -0.0001213  -0.0009374
   39  -0.0002035  -0.0002017   0.0003073  -0.0001093   0.0000666   0.0002618
           31          32          33          34          35          36
    1  -0.0046262   0.0002844   0.0030325   0.0221557   0.0435723  -0.0016692
    2   0.0006826   0.0073057   0.0063282   0.0307641   0.0218736   0.0129144
    3  -0.0005865   0.0011674   0.0056020  -0.1021525  -0.0886497  -0.0285663
    4  -0.0004763  -0.0016795  -0.0031322  -0.0315125   0.0708605   0.0934976
    5   0.0000788   0.0010439   0.0014188   0.1069708  -0.0258164  -0.0601712
    6  -0.0000799   0.0002994   0.0013200   0.0649005  -0.0101995  -0.1777634
    7   0.0004989   0.0001986  -0.0002912   0.0151931  -0.0086379  -0.0234651
    8   0.0001535  -0.0008386  -0.0004730  -0.0217871  -0.0021038  -0.0183365
    9   0.0012498  -0.0008721  -0.0061810   0.0814184   0.0682395  -0.0350264
   10   0.0096581   0.0128867  -0.0059671  -0.0912873   0.0486591  -0.0314472
   11  -0.0087531  -0.0076195   0.0025651   0.0772597  -0.0535434   0.0653497
   12   0.0062694   0.0094324   0.0046455  -0.0288679   0.0312886  -0.0918218
   13  -0.1300161   0.1080029  -0.0628005  -0.0409193  -0.0137795  -0.0069307
   14   0.1047207  -0.2040328   0.1048662   0.0191080  -0.0153239   0.0165798
   15  -0.0611383   0.1026838  -0.0888606  -0.0094703   0.0271371  -0.0160970
   16  -0.0211698   0.0047950   0.0027786   0.0550181   0.0372146  -0.0024626
   17   0.0248483   0.0009485  -0.0087606  -0.0402425  -0.0339405   0.0098677
   18  -0.0133638  -0.0035975  -0.0013887   0.0434686   0.0371473  -0.0060574
   19  -0.0004021  -0.0000060   0.0000656   0.0004486   0.0004428  -0.0037418
   20   0.0012527  -0.0002432  -0.0003439   0.0019528  -0.0005299  -0.0036203
   21  -0.0003836  -0.0000437   0.0007546   0.0053124   0.0010256   0.0087129
   22   0.0002406   0.0003443   0.0002966  -0.0055272   0.0033767  -0.0074347
   23   0.0001745   0.0004016   0.0007032   0.0004584  -0.0033335   0.0004175
   24  -0.0000757   0.0000352   0.0002595   0.0182229  -0.0182400   0.0104530
   25   0.0001285   0.0003158  -0.0000383  -0.0036055  -0.0015962   0.0036415
   26  -0.0003467  -0.0006286   0.0001974  -0.0049060  -0.0054264  -0.0003580
   27  -0.0000938   0.0003226   0.0005421  -0.0119205  -0.0169695   0.0023619
   28   0.0001450  -0.0006208  -0.0000401  -0.0080075  -0.0006493   0.0090929
   29   0.0008425  -0.0000575  -0.0005239   0.0050288  -0.0038771  -0.0070940
   30  -0.0004876  -0.0003110  -0.0003388  -0.0124047   0.0009224   0.0119291
   31   0.1475071  -0.1205518   0.0679633  -0.0019904  -0.0026573   0.0006178
   32  -0.1205518   0.2052298  -0.1095560  -0.0046122  -0.0012094   0.0001717
   33   0.0679633  -0.1095560   0.0835678  -0.0021779   0.0022818  -0.0005323
   34  -0.0019904  -0.0046122  -0.0021779   0.1507735  -0.1536566  -0.0714990
   35  -0.0026573  -0.0012094   0.0022818  -0.1536566   0.2203667  -0.1451534
   36   0.0006178   0.0001717  -0.0005323  -0.0714990  -0.1451534   0.6007695
   37   0.0005025   0.0006423   0.0003108  -0.0607393  -0.0231491   0.0418004
   38  -0.0004447  -0.0002997   0.0012967  -0.0163382  -0.0971360   0.1294323
   39   0.0001089   0.0002678   0.0006098   0.0251698   0.1111696  -0.2783618
           37          38          39
    1   0.0088415   0.0072784   0.0028014
    2   0.0140950   0.0064723   0.0012360
    3  -0.0113345  -0.0104699  -0.0048444
    4  -0.0018173   0.0001866   0.0041108
    5  -0.0073397   0.0077618   0.0072069
    6   0.0121938  -0.0181015  -0.0137005
    7   0.0068459   0.0097667   0.0044423
    8   0.0079891   0.0058908   0.0016744
    9   0.0123189   0.0082775   0.0067630
   10   0.0055496  -0.0092586   0.0011882
   11   0.0115679  -0.0006315   0.0055745
   12  -0.0194453   0.0027113  -0.0053384
   13  -0.0093283  -0.0050123  -0.0051552
   14  -0.0029001  -0.0031193  -0.0024128
   15  -0.0017518   0.0025483   0.0002012
   16   0.0102070   0.0089604   0.0051411
   17  -0.0048463  -0.0051181  -0.0019836
   18   0.0050748   0.0060862   0.0036385
   19   0.0003768   0.0002514   0.0006022
   20  -0.0002782   0.0000099   0.0000536
   21  -0.0006746  -0.0007314  -0.0002848
   22   0.0004552  -0.0004030  -0.0003004
   23  -0.0000982   0.0009618  -0.0000175
   24  -0.0013381   0.0014707   0.0021274
   25   0.0002553  -0.0004339  -0.0002035
   26  -0.0005391   0.0000257  -0.0002017
   27  -0.0000868   0.0010508   0.0003073
   28   0.0005828   0.0000304  -0.0001093
   29  -0.0005603  -0.0001213   0.0000666
   30   0.0007287  -0.0009374   0.0002618
   31   0.0005025  -0.0004447   0.0001089
   32   0.0006423  -0.0002997   0.0002678
   33   0.0003108   0.0012967   0.0006098
   34  -0.0607393  -0.0163382   0.0251698
   35  -0.0231491  -0.0971360   0.1111696
   36   0.0418004   0.1294323  -0.2783618
   37   0.0382681   0.0054168  -0.0377963
   38   0.0054168   0.0853037  -0.1226338
   39  -0.0377963  -0.1226338   0.2886208
 Gradient time:  CPU 563.21 s  wall 590.18 s
 **********************************************************************
 **                                                                  **
 **                       VIBRATIONAL ANALYSIS                       **
 **                       --------------------                       **
 **                                                                  **
 **        VIBRATIONAL FREQUENCIES (CM**-1) AND NORMAL MODES         **
 **     FORCE CONSTANTS (mDYN/ANGSTROM) AND REDUCED MASSES (AMU)     **
 **                  INFRARED INTENSITIES (KM/MOL)                   **
 **                                                                  **
 **********************************************************************
 

 Mode:                 1                      2                      3
 Frequency:      -918.25                 174.04                 440.54
 Force Cnst:      2.6545                 0.0943                 0.3124
 Red. Mass:       5.3434                 5.2847                 2.7317
 IR Active:          YES                    YES                    YES
 IR Intens:      221.753                 29.037                  1.192
 Raman Active:       YES                    YES                    YES
               X      Y      Z        X      Y      Z        X      Y      Z
 C         -0.156 -0.079  0.295   -0.151 -0.026  0.151   -0.022 -0.081 -0.149
 C         -0.090 -0.105 -0.032    0.076 -0.087 -0.253    0.010 -0.111  0.123
 C         -0.069 -0.008 -0.287   -0.028 -0.141  0.361    0.085 -0.085 -0.019
 C          0.013 -0.069  0.029   -0.028  0.065 -0.159   -0.020 -0.031 -0.159
 C          0.033 -0.015  0.009    0.002  0.066 -0.059   -0.022  0.153  0.148
 N         -0.067  0.007 -0.053    0.046  0.071  0.111   -0.031  0.013  0.013
 H         -0.098 -0.065  0.125   -0.197 -0.128  0.283    0.018 -0.048 -0.248
 H         -0.024 -0.061 -0.102    0.062 -0.078 -0.118    0.028 -0.090  0.289
 H         -0.022  0.072  0.119    0.015 -0.108  0.552   -0.031 -0.021 -0.059
 H          0.023 -0.026  0.038   -0.000  0.002 -0.087   -0.058 -0.130 -0.220
 H          0.011 -0.037 -0.029    0.062  0.216  0.129    0.040  0.449  0.577
 C          0.309  0.240  0.023    0.071  0.047 -0.215    0.006  0.105  0.006
 H          0.557  0.446  0.168    0.110  0.020 -0.228   -0.005  0.265  0.079
 TransDip   0.144  0.444  0.095   -0.021 -0.169  0.029   -0.016 -0.024  0.020

 Mode:                 4                      5                      6
 Frequency:       465.43                 646.74                 666.76
 Force Cnst:      0.7306                 1.4561                 0.7600
 Red. Mass:       5.7241                 5.9085                 2.9015
 IR Active:          YES                    YES                    YES
 IR Intens:        6.297                 14.083                 39.502
 Raman Active:       YES                    YES                    YES
               X      Y      Z        X      Y      Z        X      Y      Z
 C          0.118  0.033 -0.197    0.149 -0.144 -0.059   -0.054  0.008  0.017
 C         -0.166  0.073  0.014    0.082 -0.002 -0.068   -0.032 -0.040  0.036
 C         -0.202 -0.181 -0.037    0.115  0.247  0.059   -0.010  0.182  0.118
 C          0.002 -0.145 -0.072   -0.155  0.078  0.001    0.026 -0.084 -0.156
 C          0.063 -0.134 -0.127   -0.155 -0.128 -0.081   -0.016 -0.030 -0.116
 N          0.091  0.221  0.311   -0.117 -0.230  0.268   -0.017  0.055 -0.007
 H          0.203 -0.183 -0.404    0.232 -0.091 -0.263   -0.014 -0.009 -0.093
 H         -0.062  0.134 -0.020   -0.180 -0.157  0.185   -0.060 -0.091 -0.437
 H         -0.060 -0.176  0.309    0.065  0.159 -0.416   -0.308  0.241 -0.384
 H          0.021  0.083 -0.070   -0.144 -0.104  0.069   -0.040 -0.100 -0.310
 H          0.031 -0.223 -0.239    0.042 -0.081 -0.237   -0.040  0.167  0.248
 C          0.054  0.110  0.080    0.087  0.230 -0.096    0.154 -0.092  0.187
 H          0.166  0.203  0.142    0.127  0.128 -0.146   -0.109 -0.320  0.057
 TransDip   0.013  0.053 -0.059   -0.007 -0.105 -0.057   -0.104 -0.068 -0.159

 Mode:                 7                      8                      9
 Frequency:       691.15                 760.66                 790.84
 Force Cnst:      0.8320                 0.5096                 0.5644
 Red. Mass:       2.9563                 1.4949                 1.5315
 IR Active:          YES                    YES                    YES
 IR Intens:        5.730                 22.531                 43.982
 Raman Active:       YES                    YES                    YES
               X      Y      Z        X      Y      Z        X      Y      Z
 C          0.104  0.025  0.078    0.091  0.026 -0.027    0.076  0.037  0.012
 C         -0.022  0.197 -0.081    0.031  0.018  0.035    0.021 -0.053  0.065
 C         -0.049  0.002  0.016   -0.098  0.040  0.040   -0.078  0.021 -0.063
 C         -0.160 -0.105 -0.088   -0.062 -0.071 -0.029    0.048  0.021  0.005
 C          0.064 -0.076  0.118    0.020 -0.024  0.018   -0.034 -0.057 -0.076
 N          0.045 -0.111 -0.102    0.010 -0.000 -0.023   -0.047  0.009  0.016
 H          0.193 -0.036 -0.140   -0.148  0.215  0.579    0.015  0.198  0.155
 H         -0.076  0.154 -0.198   -0.073 -0.056  0.010   -0.049 -0.087  0.303
 H          0.280 -0.103  0.389   -0.137 -0.017 -0.271   -0.075  0.145  0.411
 H         -0.200 -0.039 -0.199   -0.016  0.006  0.072    0.134  0.106  0.192
 H          0.137  0.176  0.460    0.034  0.071  0.159   -0.037  0.254  0.462
 C         -0.008  0.100  0.062   -0.001 -0.045 -0.074    0.046 -0.004 -0.068
 H         -0.107 -0.298 -0.134    0.416  0.445  0.207   -0.276 -0.320 -0.261
 TransDip   0.055  0.053  0.009   -0.032  0.063  0.134    0.010  0.162  0.137

 Mode:                10                     11                     12
 Frequency:       819.78                 854.17                 875.78
 Force Cnst:      0.6480                 0.6333                 0.9155
 Red. Mass:       1.6365                 1.4732                 2.0259
 IR Active:          YES                    YES                    YES
 IR Intens:        4.524                  4.748                 58.100
 Raman Active:       YES                    YES                    YES
               X      Y      Z        X      Y      Z        X      Y      Z
 C         -0.065 -0.026  0.006   -0.047 -0.063 -0.132    0.028 -0.018  0.010
 C         -0.017  0.053 -0.043   -0.025  0.011 -0.017    0.033  0.057  0.033
 C          0.060 -0.061 -0.007    0.068  0.022 -0.031   -0.025 -0.021 -0.055
 C          0.015  0.048  0.089    0.019  0.014  0.020    0.008  0.053 -0.030
 C          0.010 -0.088 -0.125   -0.001 -0.029  0.014   -0.039  0.133 -0.108
 N          0.024  0.006  0.012    0.013 -0.007  0.028   -0.068 -0.116  0.069
 H         -0.059 -0.104 -0.009   -0.390  0.084  0.724    0.071  0.087 -0.105
 H          0.044  0.092 -0.089   -0.013  0.004 -0.270    0.116  0.078 -0.453
 H          0.128 -0.221 -0.441    0.179  0.042  0.316    0.219 -0.025  0.509
 H          0.061  0.171  0.168   -0.056 -0.057 -0.150    0.016  0.021  0.008
 H          0.036  0.376  0.643   -0.016 -0.063 -0.020    0.174  0.335 -0.048
 C         -0.053  0.030  0.035    0.009  0.063  0.066    0.002 -0.131  0.054
 H          0.048  0.143  0.099   -0.134 -0.122 -0.033    0.264  0.254  0.275
 TransDip  -0.035 -0.033  0.048    0.039  0.052  0.025    0.137  0.201  0.018

 Mode:                13                     14                     15
 Frequency:       915.89                 942.08                 986.13
 Force Cnst:      0.7955                 0.8779                 1.3119
 Red. Mass:       1.6095                 1.6790                 2.2898
 IR Active:          YES                    YES                    YES
 IR Intens:        2.595                 14.318                  2.299
 Raman Active:       YES                    YES                    YES
               X      Y      Z        X      Y      Z        X      Y      Z
 C          0.007  0.007  0.029   -0.086 -0.039 -0.023   -0.112 -0.011 -0.024
 C          0.024 -0.031 -0.023    0.030  0.007  0.035   -0.008  0.162 -0.026
 C          0.016  0.070  0.007    0.044  0.097 -0.023   -0.061  0.023  0.013
 C          0.121 -0.015 -0.029   -0.077  0.039  0.040    0.194 -0.045 -0.080
 C         -0.003 -0.115  0.057    0.031 -0.092 -0.019    0.008 -0.015  0.036
 N         -0.025  0.016 -0.003    0.041  0.073 -0.008   -0.031 -0.133  0.044
 H          0.095 -0.020 -0.192   -0.016 -0.128 -0.205   -0.147 -0.092  0.054
 H         -0.021 -0.088 -0.397    0.000  0.012  0.366    0.365  0.461  0.529
 H         -0.057  0.196  0.289    0.120  0.168  0.403   -0.312  0.169 -0.058
 H          0.102 -0.021 -0.088   -0.258 -0.040 -0.384    0.207  0.006 -0.085
 H         -0.187 -0.173  0.209   -0.041 -0.040  0.166   -0.034 -0.056  0.038
 C         -0.106  0.024 -0.039   -0.020 -0.093 -0.035   -0.008  0.005 -0.008
 H         -0.291  0.597  0.200    0.539 -0.023  0.071    0.199 -0.056 -0.019
 TransDip  -0.017  0.009  0.048   -0.001 -0.035  0.116    0.033  0.015  0.032

 Mode:                16                     17                     18
 Frequency:      1020.10                1053.01                1070.25
 Force Cnst:      1.1649                 1.2155                 1.0293
 Red. Mass:       1.9000                 1.8605                 1.5251
 IR Active:          YES                    YES                    YES
 IR Intens:        1.817                  5.226                  3.342
 Raman Active:       YES                    YES                    YES
               X      Y      Z        X      Y      Z        X      Y      Z
 C         -0.099 -0.062 -0.020   -0.078  0.017 -0.044   -0.034 -0.031  0.004
 C          0.030  0.041  0.068    0.115 -0.028  0.088   -0.063  0.063  0.080
 C          0.007  0.112  0.010   -0.051 -0.027 -0.030    0.036  0.020  0.017
 C         -0.052 -0.169  0.012   -0.127  0.087 -0.033    0.031  0.035 -0.119
 C          0.027  0.049 -0.051    0.044 -0.087  0.062   -0.004 -0.032  0.055
 N          0.063  0.033 -0.005    0.019 -0.016  0.017   -0.031  0.008  0.001
 H         -0.071 -0.205 -0.094   -0.059  0.028 -0.096   -0.029 -0.054 -0.017
 H          0.086  0.077 -0.022    0.596  0.261 -0.372   -0.371 -0.143 -0.034
 H          0.216  0.025  0.152   -0.243  0.076 -0.070    0.463 -0.260 -0.045
 H          0.211 -0.357  0.706   -0.023  0.443  0.147    0.231  0.556  0.234
 H          0.144  0.118 -0.090    0.101 -0.107 -0.035   -0.173 -0.201 -0.011
 C         -0.016  0.011 -0.063    0.059 -0.001 -0.023    0.049 -0.051 -0.046
 H         -0.236  0.089 -0.059   -0.184 -0.007 -0.056    0.114 -0.056 -0.045
 TransDip   0.001 -0.005  0.043    0.014  0.028 -0.066    0.013 -0.052  0.023

 Mode:                19                     20                     21
 Frequency:      1155.78                1173.61                1196.23
 Force Cnst:      1.8889                 1.1071                 1.3695
 Red. Mass:       2.4000                 1.3643                 1.6244
 IR Active:          YES                    YES                    YES
 IR Intens:       10.164                  7.241                 12.115
 Raman Active:       YES                    YES                    YES
               X      Y      Z        X      Y      Z        X      Y      Z
 C         -0.003 -0.061 -0.011    0.052 -0.040  0.021   -0.104  0.122 -0.036
 C          0.150 -0.077 -0.185    0.017 -0.002 -0.003   -0.020 -0.037 -0.019
 C         -0.067  0.066 -0.028    0.073 -0.035 -0.014    0.060 -0.005  0.005
 C         -0.037 -0.049 -0.051   -0.017 -0.015 -0.047    0.005 -0.049  0.004
 C         -0.000  0.026 -0.001   -0.036  0.015 -0.008    0.100 -0.043  0.018
 N         -0.009  0.039 -0.005    0.004  0.030 -0.016   -0.014 -0.059  0.039
 H         -0.014  0.242 -0.003    0.043 -0.175  0.062   -0.060  0.614 -0.209
 H          0.099 -0.085  0.528   -0.010 -0.036 -0.216   -0.324 -0.241 -0.036
 H          0.249 -0.104  0.077   -0.421  0.319  0.128   -0.121  0.125  0.050
 H          0.119  0.527  0.205    0.170  0.144  0.371    0.069  0.097  0.115
 H         -0.072 -0.049 -0.052   -0.184 -0.065  0.038    0.466  0.147 -0.109
 C         -0.053 -0.004  0.197   -0.103  0.051  0.041   -0.043  0.027  0.002
 H         -0.131  0.108  0.260    0.515 -0.309 -0.043    0.193 -0.089 -0.021
 TransDip   0.038  0.038  0.087   -0.010 -0.063  0.058    0.032  0.101 -0.033

 Mode:                22                     23                     24
 Frequency:      1230.14                1318.18                1336.72
 Force Cnst:      1.6657                 1.4276                 2.0949
 Red. Mass:       1.8683                 1.3945                 1.9899
 IR Active:          YES                    YES                    YES
 IR Intens:        7.735                  8.005                 12.791
 Raman Active:       YES                    YES                    YES
               X      Y      Z        X      Y      Z        X      Y      Z
 C          0.022  0.073 -0.007    0.020 -0.023 -0.000    0.081  0.054  0.012
 C         -0.096  0.036 -0.074    0.050  0.023  0.015   -0.183 -0.155 -0.022
 C          0.128 -0.041 -0.017    0.008  0.006  0.014    0.051  0.084  0.042
 C         -0.082  0.055 -0.049    0.035 -0.098  0.065    0.012 -0.008 -0.033
 C         -0.031 -0.050  0.025   -0.006 -0.000  0.006    0.019 -0.034  0.015
 N          0.006 -0.005 -0.011   -0.096  0.047 -0.020   -0.057  0.018 -0.014
 H         -0.028 -0.341  0.148   -0.006 -0.475  0.095    0.065 -0.006  0.077
 H         -0.134  0.046  0.339   -0.071 -0.062 -0.042    0.652  0.409  0.019
 H         -0.312  0.296  0.168   -0.072  0.056  0.006    0.383 -0.114  0.022
 H          0.052 -0.011  0.307   -0.050  0.500 -0.297    0.077  0.042  0.093
 H          0.225  0.091 -0.056    0.502  0.269 -0.199    0.248  0.098 -0.044
 C          0.096 -0.103  0.041   -0.016  0.013 -0.034   -0.051  0.007 -0.010
 H         -0.313  0.361  0.216   -0.070 -0.018 -0.063    0.231 -0.076 -0.009
 TransDip  -0.024 -0.005  0.086    0.037  0.075 -0.035    0.097  0.046  0.039

 Mode:                25                     26                     27
 Frequency:      1364.59                1397.29                1536.90
 Force Cnst:      2.1985                 2.6572                 6.2048
 Red. Mass:       2.0039                 2.3100                 4.4585
 IR Active:          YES                    YES                    YES
 IR Intens:       10.805                  3.888                 67.454
 Raman Active:       YES                    YES                    YES
               X      Y      Z        X      Y      Z        X      Y      Z
 C         -0.005  0.066 -0.007   -0.052  0.254 -0.045    0.020  0.028 -0.033
 C         -0.079 -0.028 -0.008    0.075 -0.102  0.007    0.041  0.004 -0.016
 C          0.085  0.016  0.013   -0.069  0.034 -0.037    0.011 -0.016  0.019
 C         -0.056 -0.150  0.086    0.019  0.009 -0.021   -0.067  0.040 -0.002
 C          0.019  0.122 -0.067   -0.049 -0.001  0.007    0.423  0.060 -0.069
 N          0.063 -0.083  0.034    0.071 -0.100  0.023   -0.310 -0.003  0.030
 H         -0.002  0.074 -0.020   -0.080 -0.800  0.105   -0.044 -0.439  0.107
 H          0.096  0.100  0.004   -0.107 -0.250 -0.028   -0.063 -0.067  0.060
 H         -0.096  0.161  0.093    0.238 -0.163  0.002   -0.024 -0.006 -0.021
 H         -0.112  0.609 -0.209    0.032 -0.080  0.029   -0.046 -0.311  0.151
 H         -0.569 -0.158  0.177   -0.090 -0.010  0.068   -0.385 -0.385  0.235
 C          0.032 -0.005 -0.058   -0.024  0.040  0.044   -0.011 -0.008  0.021
 H         -0.138  0.128 -0.022    0.201 -0.079  0.028   -0.094 -0.044  0.004
 TransDip  -0.036  0.094 -0.031    0.010 -0.038 -0.050    0.097  0.242 -0.033

 Mode:                28                     29                     30
 Frequency:      3137.59                3156.08                3165.99
 Force Cnst:      6.3092                 6.3954                 6.4482
 Red. Mass:       1.0878                 1.0897                 1.0919
 IR Active:          YES                    YES                    YES
 IR Intens:       14.083                  7.261                 17.045
 Raman Active:       YES                    YES                    YES
               X      Y      Z        X      Y      Z        X      Y      Z
 C          0.000  0.001  0.000    0.002 -0.000  0.000   -0.002  0.001 -0.001
 C         -0.002  0.007  0.000    0.005 -0.005  0.002   -0.003  0.005 -0.001
 C         -0.044 -0.069  0.017   -0.007 -0.011  0.003   -0.005 -0.008  0.001
 C          0.014  0.000 -0.005   -0.043  0.004  0.019   -0.064  0.007  0.025
 C         -0.000  0.000  0.000    0.003 -0.004  0.003    0.009 -0.010  0.006
 N          0.000 -0.000  0.000    0.001 -0.000  0.001    0.000 -0.000  0.000
 H         -0.010 -0.001 -0.002   -0.019 -0.000 -0.009    0.021 -0.000  0.009
 H          0.051 -0.081  0.002   -0.052  0.076 -0.006    0.047 -0.072  0.005
 H          0.508  0.803 -0.219    0.073  0.117 -0.035    0.056  0.091 -0.023
 H         -0.163  0.013  0.063    0.510 -0.050 -0.211    0.727 -0.074 -0.296
 H         -0.000 -0.001 -0.000   -0.044  0.056 -0.032   -0.100  0.129 -0.075
 C         -0.001 -0.001  0.004    0.007  0.028 -0.064   -0.004 -0.021  0.046
 H          0.003  0.014 -0.040   -0.098 -0.340  0.725    0.065  0.240 -0.507
 TransDip  -0.069 -0.098  0.013   -0.055  0.030 -0.059   -0.094 -0.012  0.092

 Mode:                31                     32                     33
 Frequency:      3193.69                3196.91                3205.54
 Force Cnst:      6.5388                 6.5815                 6.6273
 Red. Mass:       1.0881                 1.0930                 1.0947
 IR Active:          YES                    YES                    YES
 IR Intens:        9.422                 11.874                  7.148
 Raman Active:       YES                    YES                    YES
               X      Y      Z        X      Y      Z        X      Y      Z
 C         -0.059 -0.002 -0.023   -0.023  0.002 -0.010    0.050  0.002  0.018
 C          0.022 -0.031  0.002    0.023 -0.032  0.002    0.038 -0.055  0.003
 C         -0.004 -0.004 -0.000   -0.002 -0.001  0.000   -0.005 -0.005  0.000
 C         -0.007 -0.001  0.004    0.013  0.001 -0.006   -0.005  0.001  0.001
 C         -0.021  0.031 -0.018    0.040 -0.053  0.030   -0.011  0.013 -0.007
 N         -0.000  0.000 -0.000   -0.001 -0.001  0.001    0.001  0.001 -0.000
 H          0.688  0.018  0.270    0.264  0.005  0.103   -0.563 -0.018 -0.220
 H         -0.250  0.366 -0.024   -0.255  0.376 -0.025   -0.417  0.623 -0.043
 H          0.033  0.052 -0.013    0.012  0.013 -0.005    0.038  0.055 -0.016
 H          0.080 -0.006 -0.033   -0.147  0.009  0.063    0.040 -0.004 -0.017
 H          0.263 -0.353  0.205   -0.447  0.598 -0.348    0.109 -0.145  0.085
 C          0.000 -0.002  0.006   -0.002 -0.000  0.002   -0.002 -0.004  0.012
 H          0.006  0.023 -0.048    0.002  0.005 -0.015    0.016  0.052 -0.110
 TransDip  -0.092 -0.017 -0.031    0.080 -0.075  0.013    0.070 -0.049  0.011

 STANDARD THERMODYNAMIC QUANTITIES AT   298.15 K  AND     1.00 ATM

   This Molecule has  1 Imaginary Frequencies
   Zero point vibrational energy:       62.813 kcal/mol

   Atom    1 Element C  Has Mass   12.00000
   Atom    2 Element C  Has Mass   12.00000
   Atom    3 Element C  Has Mass   12.00000
   Atom    4 Element C  Has Mass   12.00000
   Atom    5 Element C  Has Mass   12.00000
   Atom    6 Element N  Has Mass   14.00307
   Atom    7 Element H  Has Mass    1.00783
   Atom    8 Element H  Has Mass    1.00783
   Atom    9 Element H  Has Mass    1.00783
   Atom   10 Element H  Has Mass    1.00783
   Atom   11 Element H  Has Mass    1.00783
   Atom   12 Element C  Has Mass   12.00000
   Atom   13 Element H  Has Mass    1.00783
   Molecular Mass:    92.050050 amu
   Principal axes and moments of inertia in amu*Bohr^2:
                             1           2           3
    Eigenvalues --      348.55897   458.41556   632.43274
          X               0.22991     0.97270     0.03166
          Y               0.94152    -0.23054     0.24573
          Z              -0.24632     0.02668     0.96882
   Rotational Symmetry Number is   1
   The Molecule is an Asymmetric Top
   Translational Enthalpy:        0.889 kcal/mol
   Rotational Enthalpy:           0.889 kcal/mol
   Vibrational Enthalpy:         64.201 kcal/mol
   gas constant (RT):             0.592 kcal/mol
   Translational Entropy:        39.471  cal/mol.K
   Rotational Entropy:           26.116  cal/mol.K
   Vibrational Entropy:           6.829  cal/mol.K

   Total Enthalpy:               66.571 kcal/mol
   Total Entropy:                72.416  cal/mol.K
Archival summary:
1\1\c8-90\FREQ\ProcedureUnspecified\6-31+G**\166(2)\hpark21\WedMar217:12:062022WedMar217:12:062022\0\\#,FREQ,ProcedureUnspecified,6-31+G**,\\0,2\N\C,1,1.30584\H,2,1.08647,1,121.137\C,1,1.36533,2,111.805,3,-173.524,0\H,4,1.08608,1,119.075,2,-153.245,0\C,2,1.47854,1,115.357,3,177.343,0\H,6,1.08848,2,118.413,1,158.892,0\C,4,1.5024,1,123.99,2,34.9104,0\H,8,1.08514,4,120.283,1,155.929,0\C,8,1.49409,4,115.825,1,-15.8165,0\H,10,1.09024,8,115.884,4,-159.059,0\C,8,1.49955,4,77.9087,1,-82.0151,0\H,12,1.08862,8,126.301,4,-129.92,0\\\@

 Total job time:  605.14s(wall), 570.43s(cpu) 
 Wed Mar  2 17:12:07 2022

        *************************************************************
        *                                                           *
        *  Thank you very much for using Q-Chem.  Have a nice day.  *
        *                                                           *
        *************************************************************


