
Running Job 1 of 1 qcts1.in
qchem qcts1.in_106986.0 ./qcts1.d/ 1
/home/leeping/opt/qchem/5.0.2-openmp/exe/qcprog.exe_s qcts1.in_106986.0 ./qcts1.d/
Check license passed

                  Welcome to Q-Chem
     A Quantum Leap Into The Future Of Chemistry


 Q-Chem 5.0, Q-Chem, Inc., Pleasanton, CA (2017)

 Yihan Shao,  Zhengting Gan,  E. Epifanovsky,  A. T. B. Gilbert,  M. Wormit,  
 J. Kussmann,  A. W. Lange,  A. Behn,  Jia Deng,  Xintian Feng,  D. Ghosh,  
 M. Goldey,  P. R. Horn,  L. D. Jacobson,  I. Kaliman,  T. Kus,  A. Landau,  
 Jie Liu,  E. I. Proynov,  R. M. Richard,  R. P. Steele,  E. J. Sundstrom,  
 H. L. Woodcock III,  P. M. Zimmerman,  D. Zuev,  B. Albrecht,  E. Alguire,  
 S. A. Baeppler,  D. Barton,  Z. Benda,  Y. A. Bernard,  E. J. Berquist,  
 K. B. Bravaya,  H. Burton,  D. Casanova,  Chun-Min Chang,  Yunqing Chen,  
 A. Chien,  K. D. Closser,  M. P. Coons,  S. Dasgupta,  A. L. Dempwolff,  
 M. Diedenhofen,  Hainam Do,  R. G. Edgar,  Po-Tung Fang,  S. Fatehi,  
 Qingguo Feng,  J. Fosso-Tande,  Qinghui Ge,  A. Ghysels,  G. Gidofalvi,  
 J. Gomes,  J. Gonthier,  A. Gunina,  M. W. D. Hanson-Heine,  
 P. H. P. Harbach,  A. W. Hauser,  J. E. Herr,  E. G. Hohenstein,  
 Z. C. Holden,  Kerwin Hui,  T.-C. Jagau,  Hyunjun Ji,  B. Kaduk,  
 K. Khistyaev,  Jaehoon Kim,  P. Klunzinger,  K. Koh,  D. Kosenkov,  
 L. Koulias,  T. Kowalczyk,  C. M. Krauter,  A. Kunitsa,  Ka Un Lao,  
 A. Laurent,  K. V. Lawler,  Joonho Lee,  D. Lefrancois,  S. Lehtola,  
 D. S. Levine,  Yi-Pei Li,  You-Sheng Lin,  Fenglai Liu,  E. Livshits,  
 A. Luenser,  P. Manohar,  E. Mansoor,  S. F. Manzer,  Shan-Ping Mao,  
 Yuezhi Mao,  N. Mardirossian,  A. V. Marenich,  T. Markovich,  
 L. A. Martinez-Martinez,  S. A. Maurer,  N. J. Mayhall,  S. C. McKenzie,  
 J.-M. Mewes,  A. F. Morrison,  J. W. Mullinax,  K. Nanda,  
 T. S. Nguyen-Beck,  R. Olivares-Amaya,  J. A. Parkhill,  T. M. Perrine,  
 F. Plasser,  S. Prager,  A. Prociuk,  E. Ramos,  D. R. Rehn,  F. Rob,  
 M. Schneider,  N. Sergueev,  S. M. Sharada,  S. Sharma,  D. W. Small,  
 T. Stauch,  T. Stein,  Yu-Chuan Su,  A. J. W. Thom,  A. Tkatchenko,  
 T. Tsuchimochi,  L. Vogt,  O. Vydrov,  M. A. Watson,  J. Wenzel,  
 M. de Wergifosse,  T. A. Wesolowski,  A. White,  J. Witte,  A. Yamada,  
 Jun Yang,  K. Yao,  S. Yeganeh,  S. R. Yost,  Zhi-Qiang You,  A. Zech,  
 Igor Ying Zhang,  Xing Zhang,  Yan Zhao,  Ying Zhu,  B. R. Brooks,  
 G. K. L. Chan,  C. J. Cramer,  M. S. Gordon,  W. J. Hehre,  A. Klamt,  
 M. W. Schmidt,  C. D. Sherrill,  D. G. Truhlar,  A. Aspuru-Guzik,  R. Baer,  
 A. T. Bell,  N. A. Besley,  Jeng-Da Chai,  R. A. DiStasio Jr.,  A. Dreuw,  
 B. D. Dunietz,  T. R. Furlani,  Chao-Ping Hsu,  Yousung Jung,  Jing Kong,  
 D. S. Lambrecht,  WanZhen Liang,  C. Ochsenfeld,  V. A. Rassolov,  
 L. V. Slipchenko,  J. E. Subotnik,  T. Van Voorhis,  J. M. Herbert,  
 A. I. Krylov,  P. M. W. Gill,  M. Head-Gordon

 Contributors to earlier versions of Q-Chem not listed above: 
 R. D. Adamson,  B. Austin,  J. Baker,  G. J. O. Beran,  K. Brandhorst,  
 S. T. Brown,  E. F. C. Byrd,  A. K. Chakraborty,  C.-L. Cheng,  
 Siu Hung Chien,  D. M. Chipman,  D. L. Crittenden,  H. Dachsel,  
 R. J. Doerksen,  A. D. Dutoi,  L. Fusti-Molnar,  W. A. Goddard III,  
 A. Golubeva-Zadorozhnaya,  S. R. Gwaltney,  G. Hawkins,  A. Heyden,  
 S. Hirata,  G. Kedziora,  F. J. Keil,  C. Kelley,  Jihan Kim,  R. A. King,  
 R. Z. Khaliullin,  P. P. Korambath,  W. Kurlancheek,  A. M. Lee,  M. S. Lee,  
 S. V. Levchenko,  Ching Yeh Lin,  D. Liotard,  R. C. Lochan,  I. Lotan,  
 P. E. Maslen,  N. Nair,  D. P. O'Neill,  D. Neuhauser,  E. Neuscamman,  
 C. M. Oana,  R. Olson,  B. Peters,  R. Peverati,  P. A. Pieniazek,  
 Y. M. Rhee,  J. Ritchie,  M. A. Rohrdanz,  E. Rosta,  N. J. Russ,  
 H. F. Schaefer III,  N. E. Schultz,  N. Shenvi,  A. C. Simmonett,  A. Sodt,  
 D. Stuck,  K. S. Thanthiriwatte,  V. Vanovschi,  Tao Wang,  A. Warshel,  
 C. F. Williams,  Q. Wu,  X. Xu,  W. Zhang

 Please cite Q-Chem as follows:
 Y. Shao et al., Mol. Phys. 113, 184-215 (2015)
 DOI: 10.1080/00268976.2014.952696

 Q-Chem 5.0.2 for Intel X86 EM64T Linux

 Parts of Q-Chem use Armadillo 5.200.1 (Boston Tea Smuggler).
 http://arma.sourceforge.net/

 Q-Chem begins on Wed Mar  2 16:54:51 2022  

Host: 
0

     Scratch files written to ./qcts1.d//
 Dec517 15110_ 26548  26544 5633   
Processing $rem in /home/leeping/opt/qchem/5.0.2-openmp/config/preferences.
 MEM_STATIC 2000
 MEM_TOTAL  8000
 SYMMETRY   OFF
 SYM_IGNORE TRUE 

Checking the input file for inconsistencies... 	...done.

--------------------------------------------------------------
User input:
--------------------------------------------------------------
$molecule
0 2
C        1.3800397214    0.3727486308   -0.1465679716
C        0.7318083402   -0.9795902813   -0.2369655050
C       -0.7164156319   -0.9839370970   -0.6042998501
C       -1.0530894865    0.3601685638    0.1287169469
C       -0.4630765339    1.5183429408   -0.5759832129
N        0.8397152218    1.5143907297   -0.6650662999
H        2.3922666876    0.3990073250    0.2462070279
H        1.3337378961   -1.8802747579   -0.1738155364
H       -1.2732449321   -1.8815051222   -0.3342375579
H       -2.0559600881    0.4600457314    0.5398825123
H       -1.0551812423    2.3052324041   -1.0349266661
C        0.0241050553   -0.3698057442    0.9360522726
H       -0.1177192501   -0.8287515653    1.9129614748
$end

$rem
method                b3lyp
basis                 6-31g(d)
unrestricted          true
symmetry              off
sym_ignore            true
incdft                false
incfock               0
scf_convergence       8
thresh                14
jobtype               sp
scf_guess             read
scf_algorithm         diis
max_scf_cycles        100
$end

--------------------------------------------------------------
 ----------------------------------------------------------------
             Standard Nuclear Orientation (Angstroms)
    I     Atom           X                Y                Z
 ----------------------------------------------------------------
    1      C       1.3800397214     0.3727486308    -0.1465679716
    2      C       0.7318083402    -0.9795902813    -0.2369655050
    3      C      -0.7164156319    -0.9839370970    -0.6042998501
    4      C      -1.0530894865     0.3601685638     0.1287169469
    5      C      -0.4630765339     1.5183429408    -0.5759832129
    6      N       0.8397152218     1.5143907297    -0.6650662999
    7      H       2.3922666876     0.3990073250     0.2462070279
    8      H       1.3337378961    -1.8802747579    -0.1738155364
    9      H      -1.2732449321    -1.8815051222    -0.3342375579
   10      H      -2.0559600881     0.4600457314     0.5398825123
   11      H      -1.0551812423     2.3052324041    -1.0349266661
   12      C       0.0241050553    -0.3698057442     0.9360522726
   13      H      -0.1177192501    -0.8287515653     1.9129614748
 ----------------------------------------------------------------
 Nuclear Repulsion Energy =   280.4631828445 hartrees
 There are       25 alpha and       24 beta electrons
 Requested basis set is 6-31G(d)
 There are 40 shells and 117 basis functions

 Total QAlloc Memory Limit   8000 MB
 Mega-Array Size      1956 MB
 MEM_STATIC part      2000 MB

                       Distance Matrix (Angstroms)
             C (  1)   C (  2)   C (  3)   C (  4)   C (  5)   N (  6)
   C (  2)  1.502397
   C (  3)  2.538748  1.494090
   C (  4)  2.448685  2.261534  1.567572
   C (  5)  2.212207  2.789687  2.515231  1.478542
   N (  6)  1.365334  2.532756  2.943956  2.354789  1.305840
   H (  7)  1.086078  2.211585  3.507107  3.447578  3.175200  2.117762
   H (  8)  2.253664  1.085145  2.278567  3.287561  3.865344  3.465421
   H (  9)  3.486660  2.200716  1.090239  2.299543  3.503396  4.013248
   H ( 10)  3.504986  3.232290  2.277854  1.088477  2.214143  3.308849
   H ( 11)  3.233261  3.823628  3.334492  2.266571  1.086468  2.086351
   C ( 12)  1.887329  1.499551  1.816098  1.531340  2.467530  2.603651
   H ( 13)  2.815767  2.316600  2.592127  2.339226  3.438455  3.612925
             H (  7)   H (  8)   H (  9)   H ( 10)   H ( 11)   C ( 12)
   H (  8)  2.547946
   H (  9)  4.355873  2.611914
   H ( 10)  4.458328  4.180492  2.619082
   H ( 11)  4.142450  4.895602  4.250563  2.624175
   C ( 12)  2.583631  2.286583  2.362623  2.274264  3.493629
   H ( 13)  3.253535  2.750830  2.737414  2.702429  4.403491  1.088622

 
 A cutoff of  1.0D-14 yielded    810 shell pairs
 There are      7082 function pairs
 
 -------------------------------------------------------
 OpenMP Integral Computing Module                       
 Release: version 1.0, May 2013, Q-Chem Inc. Pittsburgh 
 -------------------------------------------------------
 Integral Job Info:
 Integral job number is                      11
 Integral operator is                         1
 short-range coefficients                     0
 long-range coefficients              100000000
 Omega coefficients                           0
 if combine SR and LR in K                    0
 Integral screening is                        0
 Integral computing path is                   2
 max size of driver memory is            800000
 size of driver memory is                593474
 size of scratch memory is              2361544
 max col of scratch BK array               1296
 max len of scratch array in speh3          155
 max len of scratch index in speh4           18
 max int batch size is                      520
 min int batch size is                       52
 fixed nKL is                                52
 max L of basis functions is                  2
 order of int derivative is                   0
 number of shells is                         40
 number of basis is                         117
 number of cartesian basis is               117
 number of contracted shell pairs           810
 number of primitive shell pairs           3581
 maxK2 (contraction) of shell pair           36
 max number of K2 of shell pair               1
 max number of CS2 of shell pair             84
 max number of PS2 of shell pair            414
 mem total for path MDJ                  535308
 -------------------------------------------------------
 Smallest overlap matrix eigenvalue = 2.06E-03

 Scale SEOQF with 1.000000e-01/1.000000e-01/1.000000e-01

 Standard Electronic Orientation quadrupole field applied
 Nucleus-field energy     =     0.0000000037 hartrees
 Guess MOs from SCF MO coefficient file
 Reading MOs from coefficient file
 Reading MOs from coefficient file
 An unrestricted hybrid HF-DFT SCF calculation will be
 performed using Pulay DIIS extrapolation
 Exchange:     0.2000 Hartree-Fock + 0.0800 Slater + 0.7200 B88
 Correlation:  0.1900 VWN1RPA + 0.8100 LYP
 Using SG-1 standard quadrature grid
 SCF converges when DIIS error is below 1.0E-08
Using Q-Chem read-in guess as SCF_GUESS READ specified.

 using 4 threads for integral computing
 -------------------------------------------------------
 OpenMP Integral computing Module                
 Release: version 1.0, May 2013, Q-Chem Inc. Pittsburgh 
 -------------------------------------------------------
 -------------------------------------------------------
 OpenMP BLAS3 based DFT computing Module                
 Release: version 1.0, May 2013, Q-Chem Inc. Pittsburgh 
 -------------------------------------------------------
 ---------------------------------------
  Cycle       Energy         DIIS Error
 ---------------------------------------
    1    -286.7917502346      1.56E-09
    2    -286.7917502346      2.70E-09 Convergence criterion met
 ---------------------------------------
 <S^2> = 0.7797
 SCF time:  CPU 5.51 s  wall 3.63 s
 SCF   energy in the final basis set = -286.79175023
 Total energy in the final basis set = -286.79175023
 
 --------------------------------------------------------------
 
                    Orbital Energies (a.u.)
 --------------------------------------------------------------
 
 Alpha MOs
 -- Occupied --
-14.316 -10.239 -10.234 -10.218 -10.218 -10.216 -10.208  -0.966
 -0.875  -0.755  -0.644  -0.625  -0.603  -0.547  -0.497  -0.450
 -0.439  -0.423  -0.412  -0.369  -0.363  -0.310  -0.267  -0.244
 -0.126
 -- Virtual --
 -0.014   0.053   0.080   0.127   0.144   0.147   0.158   0.159
  0.180   0.186   0.207   0.248   0.287   0.307   0.334   0.407
  0.483   0.510   0.516   0.527   0.554   0.556   0.582   0.595
  0.605   0.645   0.655   0.667   0.700   0.737   0.764   0.803
  0.822   0.831   0.845   0.851   0.867   0.878   0.934   0.940
  0.954   1.042   1.091   1.108   1.137   1.216   1.311   1.345
  1.379   1.404   1.474   1.499   1.556   1.627   1.650   1.716
  1.745   1.787   1.838   1.881   1.893   1.965   1.993   2.025
  2.103   2.148   2.175   2.238   2.280   2.334   2.359   2.372
  2.409   2.455   2.475   2.505   2.561   2.577   2.629   2.651
  2.690   2.735   2.799   2.964   3.064   4.005   4.184   4.217
  4.356   4.405   4.502   4.517
 
 Beta MOs
 -- Occupied --
-14.316 -10.240 -10.231 -10.216 -10.216 -10.210 -10.204  -0.961
 -0.871  -0.748  -0.636  -0.616  -0.600  -0.543  -0.492  -0.446
 -0.432  -0.419  -0.401  -0.363  -0.355  -0.291  -0.261  -0.234
 -- Virtual --
 -0.033   0.007   0.066   0.083   0.131   0.148   0.152   0.161
  0.164   0.185   0.190   0.213   0.251   0.291   0.314   0.342
  0.411   0.493   0.513   0.523   0.531   0.559   0.571   0.593
  0.598   0.614   0.657   0.664   0.675   0.705   0.743   0.766
  0.805   0.825   0.834   0.847   0.853   0.871   0.884   0.936
  0.947   0.961   1.046   1.095   1.115   1.143   1.220   1.317
  1.351   1.384   1.409   1.481   1.506   1.563   1.630   1.659
  1.719   1.755   1.803   1.850   1.886   1.899   1.971   1.998
  2.031   2.112   2.159   2.188   2.252   2.289   2.342   2.365
  2.380   2.418   2.460   2.491   2.514   2.568   2.582   2.634
  2.656   2.696   2.741   2.807   2.967   3.068   4.007   4.193
  4.227   4.366   4.409   4.508   4.519
 --------------------------------------------------------------
 
          Ground-State Mulliken Net Atomic Charges

     Atom                 Charge (a.u.)    Spin (a.u.)
  --------------------------------------------------------
      1 C                     0.026184       0.247197
      2 C                    -0.172340       0.065552
      3 C                    -0.105522       0.576959
      4 C                    -0.250277       0.015891
      5 C                     0.096337       0.255499
      6 N                    -0.373977      -0.012222
      7 H                     0.152397      -0.010329
      8 H                     0.158675      -0.007375
      9 H                     0.146169      -0.004935
     10 H                     0.148709      -0.003160
     11 H                     0.138848      -0.013934
     12 C                    -0.124916      -0.127286
     13 H                     0.159714       0.018142
  --------------------------------------------------------
  Sum of atomic charges =     0.000000
  Sum of spin   charges =     1.000000

 -----------------------------------------------------------------
                    Cartesian Multipole Moments
 -----------------------------------------------------------------
    Charge (ESU x 10^10)
                 0.0000
    Dipole Moment (Debye)
         X      -0.9525      Y      -2.3207      Z       1.9739
       Tot       3.1920
    Quadrupole Moments (Debye-Ang)
        XX     -38.0764     XY      -4.1516     YY     -41.9108
        XZ       0.7191     YZ      -0.5301     ZZ     -42.5744
    Octopole Moments (Debye-Ang^2)
       XXX      -8.3936    XXY      -9.0112    XYY     -10.6690
       YYY     -29.9006    XXZ       8.8188    XYZ       4.0412
       YYZ       6.9700    XZZ      -4.9593    YZZ      -8.2049
       ZZZ      22.3778
    Hexadecapole Moments (Debye-Ang^3)
      XXXX    -237.2847   XXXY     -12.1281   XXYY     -95.1893
      XYYY     -25.9890   YYYY    -318.4145   XXXZ       5.8486
      XXYZ      11.5059   XYYZ       8.9364   YYYZ      28.9772
      XXZZ     -68.3414   XYZZ      -7.2460   YYZZ     -77.1299
      XZZZ       3.5277   YZZZ      23.9116   ZZZZ    -130.3853
 -----------------------------------------------------------------
Archival summary:
1\1\c8-90\SP\ProcedureUnspecified\6-31G*\166(2)\hpark21\WedMar216:55:042022WedMar216:55:042022\0\\#,ProcedureUnspecified,6-31G*,\\0,2\N\C,1,1.30584\H,2,1.08647,1,121.137\C,1,1.36533,2,111.805,3,-173.524,0\H,4,1.08608,1,119.075,2,-153.245,0\C,2,1.47854,1,115.357,3,177.343,0\H,6,1.08848,2,118.413,1,158.892,0\C,4,1.5024,1,123.99,2,34.9104,0\H,8,1.08514,4,120.283,1,155.929,0\C,8,1.49409,4,115.825,1,-15.8165,0\H,10,1.09024,8,115.884,4,-159.059,0\C,8,1.49955,4,77.9087,1,-82.0151,0\H,12,1.08862,8,126.301,4,-129.92,0\\\@

 Total job time:  13.44s(wall), 7.35s(cpu) 
 Wed Mar  2 16:55:05 2022

        *************************************************************
        *                                                           *
        *  Thank you very much for using Q-Chem.  Have a nice day.  *
        *                                                           *
        *************************************************************


