13
image # 1 Energy = -286.85495
C 1.46829   0.44308   -0.35339  
C 0.88440   -0.78568  0.21519   
C -0.74495  -0.80692  0.17339   
C -1.31234  0.45433   -0.33130  
C -0.54855  1.54224   -0.57507  
N 0.84583   1.53553   -0.63423  
H 2.52979   0.39802   -0.60898  
H 1.44228   -1.69950  0.00143   
H -1.25800  -1.72814  -0.10870  
H -2.38311  0.48734   -0.51715  
H -1.00368  2.48094   -0.88026  
C 0.03540   -0.79604  1.40881   
H 0.04465   -1.52522  2.21027   
13
image # 2 Energy = -286.85177
C 1.47447   0.42217   -0.33763  
C 0.88673   -0.80376  0.17840   
C -0.75452  -0.82389  0.12779   
C -1.32848  0.43594   -0.30553  
C -0.53251  1.54158   -0.58765  
N 0.83372   1.54510   -0.63935  
H 2.54708   0.40537   -0.54788  
H 1.42713   -1.70857  -0.01236  
H -1.24860  -1.72263  -0.17000  
H -2.39467  0.50250   -0.43193  
H -1.00524  2.46111   -0.91131  
C 0.03427   -0.79474  1.41405   
H 0.06098   -1.45955  2.22225   
13
image # 3 Energy = -286.85077
C 1.47388   0.43940   -0.32680  
C 0.86038   -0.81108  0.16960   
C -0.73397  -0.83183  0.10385   
C -1.32402  0.45947   -0.27731  
C -0.55029  1.51362   -0.59898  
N 0.85407   1.52280   -0.63584  
H 2.55170   0.41066   -0.49380  
H 1.42370   -1.73235  -0.02940  
H -1.25490  -1.73405  -0.23636  
H -2.40804  0.51496   -0.35557  
H -1.00683  2.43816   -0.93816  
C 0.03855   -0.76718  1.37152   
H 0.07614   -1.41757  2.24486   
13
image # 4 Energy = -286.84610
C 1.46867   0.43749   -0.31446  
C 0.85634   -0.82495  0.13481   
C -0.72502  -0.84780  0.07987   
C -1.32100  0.46147   -0.24746  
C -0.55125  1.49304   -0.61100  
N 0.85575   1.50929   -0.63772  
H 2.56668   0.41839   -0.42634  
H 1.40824   -1.74155  -0.04349  
H -1.24922  -1.72435  -0.30941  
H -2.41754  0.53075   -0.25676  
H -1.01056  2.41362   -0.97346  
C 0.02687   -0.77073  1.35167   
H 0.09277   -1.34799  2.25010   
13
image # 5 Energy = -286.84059
C 1.47973   0.42661   -0.30379  
C 0.83971   -0.83111  0.11484   
C -0.72171  -0.85768  0.05555   
C -1.32631  0.45510   -0.21647  
C -0.54992  1.48175   -0.62801  
N 0.85187   1.50702   -0.64413  
H 2.57206   0.42698   -0.36277  
H 1.39768   -1.75460  -0.05946  
H -1.24408  -1.71317  -0.37614  
H -2.41448  0.54419   -0.16468  
H -1.01432  2.38873   -1.00378  
C 0.02264   -0.76803  1.31638   
H 0.10736   -1.29628  2.26707   
13
image # 6 Energy = -286.83304
C 1.48331   0.43023   -0.29495  
C 0.82963   -0.83754  0.09295   
C -0.72599  -0.86520  0.01655   
C -1.32764  0.46096   -0.18108  
C -0.55594  1.46225   -0.64602  
N 0.85911   1.49357   -0.64864  
H 2.57295   0.43558   -0.29812  
H 1.38710   -1.76886  -0.07727  
H -1.24292  -1.70428  -0.44582  
H -2.40460  0.55575   -0.07101  
H -1.01894  2.35987   -1.03284  
C 0.02367   -0.76895  1.30628   
H 0.11948   -1.24061  2.27274   
13
image # 7 Energy = -286.82461
C 1.47859   0.42115   -0.28541  
C 0.82199   -0.84723  0.06770   
C -0.71506  -0.86825  -0.01041  
C -1.31563  0.46773   -0.15056  
C -0.55227  1.43830   -0.66346  
N 0.85310   1.49050   -0.66523  
H 2.58001   0.44884   -0.22460  
H 1.36901   -1.77525  -0.09897  
H -1.24590  -1.70100  -0.51956  
H -2.39470  0.56952   0.03302   
H -1.02620  2.33418   -1.06234  
C 0.01731   -0.77956  1.28749   
H 0.12726   -1.18378  2.28270   
13
image # 8 Energy = -286.81370
C 1.47523   0.42854   -0.27727  
C 0.81440   -0.85506  0.04327   
C -0.71300  -0.88757  -0.04824  
C -1.30806  0.45931   -0.10002  
C -0.54698  1.43527   -0.68920  
N 0.85747   1.46945   -0.67858  
H 2.57466   0.46109   -0.14958  
H 1.35169   -1.78343  -0.12261  
H -1.24603  -1.68418  -0.58807  
H -2.37142  0.58094   0.13639   
H -1.03381  2.30102   -1.09043  
C 0.00818   -0.78159  1.26257   
H 0.13172   -1.12744  2.28933   
13
image # 9 Energy = -286.80329
C 1.48807   0.41896   -0.26947  
C 0.80523   -0.85094  0.02174   
C -0.71809  -0.91037  -0.09327  
C -1.27682  0.45883   -0.05327  
C -0.54776  1.41321   -0.68847  
N 0.85534   1.46593   -0.69788  
H 2.55594   0.47232   -0.07957  
H 1.33862   -1.79593  -0.14571  
H -1.24943  -1.67076  -0.64758  
H -2.33421  0.58580   0.23383   
H -1.04689  2.27705   -1.12044  
C -0.00737  -0.77530  1.24348   
H 0.12598   -1.07186  2.28156   
13
image # 10 Energy = -286.79857
C 1.47917   0.41558   -0.28281  
C 0.79784   -0.85877  0.00028   
C -0.70807  -0.91327  -0.12630  
C -1.24077  0.43329   0.00319   
C -0.52657  1.41918   -0.67360  
N 0.85200   1.46524   -0.71695  
H 2.54506   0.48455   -0.01269  
H 1.32595   -1.80300  -0.16395  
H -1.26706  -1.69052  -0.69895  
H -2.27013  0.58204   0.32574   
H -1.06139  2.25566   -1.14356  
C -0.04240  -0.75641  1.21384   
H 0.09753   -1.01710  2.25776   
13
image # 11 Energy = -286.81450
C 1.48004   0.41190   -0.30114  
C 0.80213   -0.86511  -0.02254  
C -0.71014  -0.97240  -0.15883  
C -1.16171  0.41232   0.09647   
C -0.49265  1.45310   -0.65475  
N 0.84053   1.48053   -0.72825  
H 2.52417   0.49708   0.01513   
H 1.32425   -1.80664  -0.16645  
H -1.27140  -1.72361  -0.70443  
H -2.20267  0.56451   0.40043   
H -1.06493  2.23253   -1.14403  
C -0.12293  -0.70379  1.14939   
H 0.02867   -0.96773  2.19909   
13
image # 12 Energy = -286.83500
C 1.48548   0.40450   -0.32090  
C 0.78896   -0.86425  -0.04437  
C -0.70555  -1.00505  -0.23523  
C -1.09235  0.37296   0.19915   
C -0.46719  1.47379   -0.60676  
N 0.84786   1.50229   -0.72579  
H 2.51980   0.49575   0.00114   
H 1.33218   -1.80395  -0.13707  
H -1.29016  -1.77723  -0.68946  
H -2.14867  0.53648   0.43162   
H -1.06489  2.21687   -1.13016  
C -0.18932  -0.59837  1.10591   
H -0.04929  -0.94585  2.13218   
13
image # 13 Energy = -286.83470
C 1.48169   0.39705   -0.32023  
C 0.76639   -0.87758  -0.07628  
C -0.69606  -0.99024  -0.34418  
C -1.06142  0.35946   0.21544   
C -0.45530  1.50118   -0.55008  
N 0.85335   1.50370   -0.72244  
H 2.51090   0.48244   0.03986   
H 1.32633   -1.80833  -0.11710  
H -1.31504  -1.82293  -0.66330  
H -2.09321  0.51059   0.49127   
H -1.07578  2.19306   -1.12290  
C -0.17340  -0.53813  1.06479   
H -0.10687  -0.90806  2.08778   
13
image # 14 Energy = -286.80357
C 1.45838   0.39114   -0.24321  
C 0.73525   -0.91176  -0.09183  
C -0.69589  -0.94243  -0.48377  
C -1.05118  0.34842   0.21682   
C -0.45712  1.51427   -0.51376  
N 0.83957   1.48430   -0.70386  
H 2.49237   0.44528   0.07782   
H 1.31109   -1.81924  -0.11686  
H -1.35338  -1.81829  -0.67037  
H -2.08784  0.49897   0.48631   
H -1.08816  2.15657   -1.13542  
C -0.07662  -0.44356  1.08142   
H -0.06504  -0.90137  2.08369   
13
image # 15 Energy = -286.77541
C 1.44161   0.38515   -0.16935  
C 0.70459   -0.91520  -0.07188  
C -0.70383  -0.90628  -0.53787  
C -1.08726  0.35071   0.22468   
C -0.47516  1.46766   -0.54797  
N 0.82780   1.46021   -0.70509  
H 2.50062   0.43399   0.07425   
H 1.29895   -1.82047  -0.13710  
H -1.36300  -1.73786  -0.74933  
H -2.14308  0.51848   0.45916   
H -1.09189  2.11708   -1.15877  
C 0.01733   -0.42469  1.16309   
H 0.03665   -0.92466  2.14614   
13
image # 16 Energy = -286.77161
C 1.43325   0.37957   -0.13054  
C 0.68077   -0.92276  -0.07326  
C -0.70140  -0.85586  -0.59444  
C -1.08807  0.33180   0.26947   
C -0.47334  1.41613   -0.57025  
N 0.81599   1.45123   -0.69088  
H 2.49865   0.42082   0.08223   
H 1.28509   -1.81714  -0.14155  
H -1.36849  -1.68042  -0.80407  
H -2.15383  0.51709   0.46978   
H -1.09834  2.06598   -1.17198  
C 0.05437   -0.38337  1.19048   
H 0.08234   -0.91700  2.15697   
13
image # 17 Energy = -286.77865
C 1.42360   0.37335   -0.10523  
C 0.66541   -0.91687  -0.08401  
C -0.69963  -0.80989  -0.64187  
C -1.07303  0.30555   0.31715   
C -0.47398  1.36538   -0.58336  
N 0.81477   1.43971   -0.67400  
H 2.48821   0.40708   0.10453   
H 1.26693   -1.81785  -0.14590  
H -1.37383  -1.62590  -0.86280  
H -2.13633  0.50630   0.50284   
H -1.10872  2.00858   -1.18373  
C 0.06460   -0.33743  1.19880   
H 0.11277   -0.89064  2.15110   
13
image # 18 Energy = -286.77435
C 1.39881   0.37470   -0.03878  
C 0.66492   -0.91586  -0.07830  
C -0.70579  -0.72011  -0.65710  
C -1.09680  0.30487   0.36569   
C -0.49642  1.24210   -0.66214  
N 0.81318   1.41897   -0.64235  
H 2.47413   0.39508   0.11263   
H 1.25710   -1.83373  -0.15820  
H -1.36525  -1.52550  -0.94830  
H -2.16196  0.51041   0.52706   
H -1.11358  1.95634   -1.19999  
C 0.11084   -0.33148  1.20771   
H 0.19406   -0.86838  2.16656   
13
image # 19 Energy = -286.77592
C 1.38090   0.36487   0.02582   
C 0.64360   -0.92791  -0.08588  
C -0.70030  -0.66479  -0.68000  
C -1.10342  0.30308   0.40057   
C -0.51077  1.16540   -0.70772  
N 0.80111   1.41061   -0.62929  
H 2.46290   0.38770   0.13651   
H 1.24675   -1.85011  -0.16809  
H -1.36053  -1.45209  -1.02296  
H -2.16773  0.50741   0.56992   
H -1.12079  1.91187   -1.21696  
C 0.15650   -0.31760  1.20101   
H 0.24686   -0.83162  2.17210   
13
image # 20 Energy = -286.78512
C 1.35895   0.36334   0.07229   
C 0.63803   -0.95815  -0.09177  
C -0.70820  -0.61364  -0.70121  
C -1.08203  0.28718   0.41603   
C -0.53287  1.11260   -0.72914  
N 0.80217   1.39675   -0.61869  
H 2.45186   0.38098   0.17364   
H 1.22629   -1.85782  -0.17903  
H -1.35796  -1.38992  -1.09945  
H -2.16512  0.50010   0.62449   
H -1.13092  1.86467   -1.23719  
C 0.19001   -0.29501  1.19038   
H 0.28783   -0.78625  2.17365   
13
image # 21 Energy = -286.79763
C 1.35345   0.34806   0.10631   
C 0.63429   -0.96739  -0.08391  
C -0.71750  -0.58164  -0.71132  
C -1.09848  0.28260   0.43431   
C -0.54366  1.07477   -0.74560  
N 0.80315   1.39462   -0.61805  
H 2.43454   0.37564   0.22410   
H 1.21388   -1.89201  -0.19571  
H -1.35564  -1.31849  -1.19364  
H -2.14420  0.48329   0.68997   
H -1.15412  1.82122   -1.26955  
C 0.22117   -0.29167  1.17677   
H 0.33360   -0.72525  2.18053   
13
image # 22 Energy = -286.80878
C 1.33697   0.33906   0.12679   
C 0.62157   -0.98143  -0.09708  
C -0.70836  -0.56089  -0.72586  
C -1.08682  0.26680   0.45280   
C -0.54903  1.05263   -0.75713  
N 0.80445   1.39292   -0.61921  
H 2.42465   0.36922   0.27845   
H 1.19404   -1.91228  -0.20812  
H -1.35927  -1.26159  -1.27267  
H -2.12148  0.46725   0.75616   
H -1.17134  1.77257   -1.29090  
C 0.23340   -0.27579  1.17050   
H 0.36476   -0.66535  2.18112   
13
image # 23 Energy = -286.81720
C 1.33663   0.33508   0.14519   
C 0.62005   -0.99837  -0.10645  
C -0.71710  -0.55986  -0.75086  
C -1.07707  0.25786   0.46098   
C -0.54561  1.03099   -0.76142  
N 0.80097   1.39085   -0.62171  
H 2.40405   0.36086   0.33286   
H 1.16839   -1.92466  -0.21990  
H -1.35214  -1.19668  -1.33777  
H -2.09619  0.44937   0.82117   
H -1.18894  1.72571   -1.30938  
C 0.24226   -0.26358  1.15472   
H 0.39297   -0.60632  2.18683   
13
image # 24 Energy = -286.82226
C 1.32861   0.33379   0.15640   
C 0.61778   -1.01816  -0.11811  
C -0.71538  -0.54369  -0.76836  
C -1.09357  0.24641   0.47161   
C -0.55748  1.01669   -0.77062  
N 0.80663   1.38152   -0.62100  
H 2.38179   0.35142   0.39320   
H 1.13933   -1.93658  -0.23082  
H -1.35065  -1.13393  -1.41026  
H -2.04328  0.42575   0.88123   
H -1.19947  1.66650   -1.32056  
C 0.26321   -0.25845  1.17256   
H 0.41583   -0.53039  2.16218   
13
image # 25 Energy = -286.82498
C 1.31791   0.32541   0.16785   
C 0.60492   -1.01154  -0.11596  
C -0.71492  -0.53894  -0.77512  
C -1.06252  0.22775   0.47065   
C -0.54900  0.99318   -0.76397  
N 0.80415   1.37834   -0.62357  
H 2.36517   0.34302   0.44891   
H 1.11877   -1.95765  -0.24392  
H -1.34636  -1.07671  -1.47345  
H -2.02104  0.40874   0.94399   
H -1.21762  1.62423   -1.33915  
C 0.25812   -0.24457  1.12979   
H 0.44241   -0.47126  2.17397   
