13   
From optimize.out: Frame 2 / 3, Energy=    -286.8249829252
C        1.3177762897    0.3255932594    0.1681873515
C        0.6048898863   -1.0117254988   -0.1161461509
C       -0.7150233397   -0.5389908367   -0.7751441635
C       -1.0622982375    0.2279471336    0.4705753121
C       -0.5490500607    0.9932927433   -0.7638551816
N        0.8041628415    1.3783267221   -0.6236494114
H        2.3651165381    0.3429290828    0.4489662625
H        1.1192950764   -1.9574672544   -0.2444568955
H       -1.3471117254   -1.0766721015   -1.4729416271
H       -2.0207116347    0.4087472650    0.9442219879
H       -1.2176591413    1.6241911993   -1.3392424657
C        0.2583415736   -0.2447332343    1.1296078552
H        0.4422719338   -0.4714384799    2.1738771267
