13   
From qcfsm.out: Frame 68 / 68, Energy=       0.0000000000
C        1.4106984777    0.3650675165   -0.1187638633
C        0.6721363227   -0.9442023830   -0.1020296904
C       -0.7078941718   -0.8808218972   -0.6316484600
C       -1.0723250897    0.3193317990    0.2499440486
C       -0.4741918042    1.4282876815   -0.5649707941
N        0.8129544724    1.4524521530   -0.6769124173
H        2.4609089161    0.4093201713    0.1537268742
H        1.2723779471   -1.8485148633   -0.1356477593
H       -1.3703683551   -1.7180001162   -0.8054319121
H       -2.1202429785    0.4943299147    0.5141571743
H       -1.1009246690    2.0985815754   -1.1468328510
C        0.0777664072   -0.3437308751    1.1368957444
H        0.1060902825   -0.8260289187    2.1194715406
