13   
From optimize.out: Frame 2 / 3, Energy=    -286.8584653799
C        1.5751877236    0.4456964295   -0.0859246270
C        0.8224775221   -0.8153030354    0.1174561384
C       -0.5187162062   -0.9686041869   -0.5830774992
C       -1.1193980815    0.3160409781   -0.0361673903
C       -0.3701428071    1.5789271588   -0.2388473708
N        0.9609130039    1.6141495743   -0.2598457188
H        2.6634259738    0.4386562133   -0.0979529891
H        1.4063163589   -1.7246875642    0.2497027670
H       -0.9207244973   -1.7424615602   -1.2221101752
H       -2.2063341362    0.3789713473   -0.0331540677
H       -0.9040697882    2.5169144806   -0.3782928638
C       -0.5024268939   -0.7468623541    0.8584352223
H       -0.8865081718   -1.2914374808    1.7097785743
13   
From optimize.out: Frame 1 / 3, Energy=    -286.8584556587
C        1.5748599054    0.4457949740   -0.0860317596
C        0.8229557592   -0.8160969870    0.1166120045
C       -0.5200598412   -0.9688885879   -0.5830004193
C       -1.1192044585    0.3159568790   -0.0355108537
C       -0.3703706085    1.5798969104   -0.2390095738
N        0.9608892208    1.6152682481   -0.2557641062
H        2.6628065438    0.4376265635   -0.0979064337
H        1.4076710844   -1.7255910363    0.2501101096
H       -0.9239840193   -1.7415043390   -1.2229397548
H       -2.2059505343    0.3777711621   -0.0368484009
H       -0.9048727445    2.5181695496   -0.3803360802
C       -0.5012349430   -0.7476811521    0.8586617737
H       -0.8835053643   -1.2907221844    1.7119634944
13   
From optimize.out: Frame 33 / 34, Energy=    -286.8584556587
C        1.5748599054    0.4457949740   -0.0860317596
C        0.8229557592   -0.8160969870    0.1166120045
C       -0.5200598412   -0.9688885879   -0.5830004193
C       -1.1192044585    0.3159568790   -0.0355108537
C       -0.3703706085    1.5798969104   -0.2390095738
N        0.9608892208    1.6152682481   -0.2557641062
H        2.6628065438    0.4376265635   -0.0979064337
H        1.4076710844   -1.7255910363    0.2501101096
H       -0.9239840193   -1.7415043390   -1.2229397548
H       -2.2059505343    0.3777711621   -0.0368484009
H       -0.9048727445    2.5181695496   -0.3803360802
C       -0.5012349430   -0.7476811521    0.8586617737
H       -0.8835053643   -1.2907221844    1.7119634944
13   
From optimize.out: Frame 32 / 34, Energy=    -286.8584483777
C        1.5753096662    0.4479576593   -0.0859229078
C        0.8170163483   -0.8065757942    0.1354735565
C       -0.5150995340   -0.9793684589   -0.5749044572
C       -1.1234504788    0.3149356571   -0.0091224051
C       -0.3668440507    1.5705672366   -0.2551312773
N        0.9646937756    1.6090932513   -0.2888962226
H        2.6625467172    0.4333165492   -0.1063337544
H        1.3991241874   -1.7118872733    0.2910868823
H       -0.9160993417   -1.6817572131   -1.2976008071
H       -2.2118795695    0.3654389993   -0.0071978021
H       -0.8966889554    2.5088461294   -0.3954553833
C       -0.5192496309   -0.7664618325    0.8618261613
H       -0.8693791337   -1.3041049101    1.7321784168
13   
From optimize.out: Frame 31 / 34, Energy=    -286.8584370224
C        1.5748614503    0.4458154557   -0.1027107519
C        0.8235713437   -0.8087420771    0.1531528699
C       -0.4993958464   -1.0058151407   -0.5421016048
C       -1.1095458712    0.3086039372    0.0147642421
C       -0.3723523212    1.5576546860   -0.2897445845
N        0.9590736262    1.5939274816   -0.3557297524
H        2.6628487516    0.4432952036   -0.0814615218
H        1.4151278003   -1.7071320452    0.3289301927
H       -0.9474084722   -1.5639344218   -1.3501174891
H       -2.1979627697    0.3600179650    0.0130965776
H       -0.9053420923    2.4989906829   -0.4043489122
C       -0.5198247769   -0.7727039149    0.8873280497
H       -0.8836508221   -1.3499778124    1.7289426847
13   
From optimize.out: Frame 29 / 34, Energy=    -286.8583943354
C        1.5743361783    0.4455788335   -0.1164084401
C        0.8334083354   -0.8124493024    0.1363035313
C       -0.4971891859   -1.0304926981   -0.5133191588
C       -1.0993099541    0.3027773132    0.0264789561
C       -0.3744238592    1.5480875719   -0.3095529933
N        0.9569107298    1.5876167441   -0.3904836666
H        2.6604549275    0.4563739993   -0.0535968713
H        1.4303008225   -1.7027158365    0.3316902313
H       -0.9667445230   -1.4997744905   -1.3632878849
H       -2.1881600592    0.3546256589    0.0127149041
H       -0.9023855308    2.4940096898   -0.4061490307
C       -0.5227190025   -0.7663421114    0.9174618532
H       -0.9044788788   -1.3772953717    1.7281485697
13   
From optimize.out: Frame 28 / 34, Energy=    -286.8583509999
C        1.5628800878    0.4375256436   -0.1265797026
C        0.8362142171   -0.8257129994    0.1133017005
C       -0.5094940590   -1.0619933081   -0.4604548682
C       -1.0905602795    0.2970598542    0.0336521093
C       -0.3798645451    1.5379249696   -0.3328980834
N        0.9504628842    1.5808362147   -0.4234005153
H        2.6444415327    0.4619042460   -0.0168844056
H        1.4387187868   -1.7094188285    0.3150181482
H       -0.9551199438   -1.4177723490   -1.3733625275
H       -2.1789136938    0.3473352125   -0.0034382285
H       -0.9000190048    2.4904300740   -0.4042235635
C       -0.5146955522   -0.7434656677    0.9506327957
H       -0.9040504302   -1.3946530620    1.7286371411
13   
From optimize.out: Frame 27 / 34, Energy=    -286.8582735639
C        1.5527001725    0.4181392360   -0.1368222663
C        0.8448450862   -0.8453882078    0.0536168876
C       -0.5311094157   -1.0908328342   -0.3906221152
C       -1.1013558345    0.2953856975    0.0350139709
C       -0.3885941136    1.5252307092   -0.3356699547
N        0.9370457874    1.5722545526   -0.4230301530
H        2.6281767656    0.4562396306    0.0116926824
H        1.4468119384   -1.7287488814    0.2558410107
H       -0.8920750921   -1.3734990483   -1.3662466375
H       -2.1858802568    0.3434935696   -0.0552161904
H       -0.8950783100    2.4875973439   -0.3862391275
C       -0.5113451636   -0.6867766604    0.9952967323
H       -0.9041415637   -1.3730951074    1.7423851608
13   
From optimize.out: Frame 26 / 34, Energy=    -286.8581878949
C        1.5548184607    0.4011334921   -0.1411483374
C        0.8717352710   -0.8583996897   -0.0065177534
C       -0.5257550333   -1.1072277910   -0.3476104851
C       -1.1244130151    0.2934308437    0.0309766957
C       -0.3912974569    1.5170807727   -0.3125431226
N        0.9263885427    1.5692025961   -0.3818097144
H        2.6284175942    0.4476305913    0.0117644772
H        1.4800659278   -1.7413183863    0.1793006010
H       -0.8671611379   -1.3877263072   -1.3310463797
H       -2.2016440595    0.3237165599   -0.1194723501
H       -0.8869082976    2.4866317741   -0.3632277659
C       -0.5290315611   -0.6226189275    1.0256603454
H       -0.9352152350   -1.3215355283    1.7556737893
13   
From optimize.out: Frame 24 / 34, Energy=    -286.8577421206
C        1.5593543008    0.3841603811   -0.1391770041
C        0.8999803872   -0.8721345033   -0.0553765517
C       -0.5163785675   -1.1225211924   -0.3203875599
C       -1.1530354890    0.2917105232    0.0285149616
C       -0.3955004819    1.5095456825   -0.2874096800
N        0.9164038745    1.5611190704   -0.3330871941
H        2.6337947671    0.4371696408    0.0050864670
H        1.5207082728   -1.7537913245    0.0991476537
H       -0.8463538709   -1.4076952790   -1.3079926816
H       -2.2213417637    0.3020682952   -0.1748977877
H       -0.8804670772    2.4853104252   -0.3463886341
C       -0.5494270533   -0.5552913915    1.0565835264
H       -0.9677372989   -1.2596503277    1.7753844845
13   
From optimize.out: Frame 23 / 34, Energy=    -286.8553170874
C        1.5588688276    0.3669201321   -0.1301232036
C        0.9181478572   -0.8889711270   -0.0974288870
C       -0.5099704846   -1.1431509177   -0.2991423516
C       -1.1835746683    0.2914127597    0.0227761182
C       -0.4026467956    1.5033489206   -0.2626665724
N        0.9058283368    1.5505153790   -0.2804629182
H        2.6347629104    0.4241665595    0.0030267692
H        1.5530344972   -1.7677746484    0.0207911119
H       -0.8284276828   -1.4352976660   -1.2908128737
H       -2.2400772501    0.2794669396   -0.2327131842
H       -0.8733840980    2.4869309224   -0.3264633779
C       -0.5562980752   -0.4770220005    1.0814944439
H       -0.9762633746   -1.1905452534    1.7917249254
13   
From optimize.out: Frame 22 / 34, Energy=    -286.8528959086
C        1.5507304139    0.3489200911   -0.1153490612
C        0.9236068704   -0.9121946827   -0.1279285131
C       -0.5018117043   -1.1743791585   -0.2974646863
C       -1.2152217881    0.2927483674    0.0143664594
C       -0.4116392972    1.5019091002   -0.2385549920
N        0.8952297640    1.5400075652   -0.2296851852
H        2.6272445363    0.4087995596    0.0115038809
H        1.5731680408   -1.7847217508   -0.0372605523
H       -0.8241835565   -1.4727163089   -1.2869347655
H       -2.2588328704    0.2539929923   -0.2832942323
H       -0.8671935337    2.4938168137   -0.2992815957
C       -0.5411075873   -0.3857117455    1.0899062166
H       -0.9499892878   -1.1104708430    1.7999770266
13   
From optimize.out: Frame 21 / 34, Energy=    -286.8499023062
C        1.5410524886    0.3304589854   -0.1006909542
C        0.9269733280   -0.9405341185   -0.1513283970
C       -0.4901505256   -1.2146841223   -0.3153979004
C       -1.2471134118    0.2971818113    0.0072594431
C       -0.4207265995    1.5065895786   -0.2156260029
N        0.8852954192    1.5311051422   -0.1865102957
H        2.6174621759    0.3948172048    0.0273444643
H        1.5897737680   -1.8054149443   -0.0711031470
H       -0.8299185434   -1.5201623933   -1.2996607779
H       -2.2810818702    0.2336894586   -0.3156301023
H       -0.8659319702    2.5046673011   -0.2676380573
C       -0.5148523543   -0.2936413779    1.0855600094
H       -0.9107819046   -1.0240725259    1.8034217178
13   
From optimize.out: Frame 20 / 34, Energy=    -286.8462926905
C        1.5337463101    0.3111804407   -0.0878652485
C        0.9330703567   -0.9718205642   -0.1685812475
C       -0.4795547753   -1.2579090286   -0.3422946324
C       -1.2782031961    0.3051546423    0.0009359612
C       -0.4312007819    1.5169052700   -0.1947825921
N        0.8753268914    1.5248030219   -0.1512429053
H        2.6099414490    0.3829316019    0.0477570127
H        1.6054580197   -1.8306714671   -0.0826820536
H       -0.8431074255   -1.5766551278   -1.3224774582
H       -2.3071275876    0.2220005855   -0.3322853783
H       -0.8711557378    2.5188826180   -0.2330184700
C       -0.4820763669   -0.2071904573    1.0687702042
H       -0.8651171558   -0.9376115353    1.7977668078
13   
From optimize.out: Frame 18 / 34, Energy=    -286.8384419732
C        1.5304811233    0.2912944287   -0.0750688968
C        0.9422854583   -1.0028315454   -0.1807382883
C       -0.4732101575   -1.2976032187   -0.3689491799
C       -1.3071933159    0.3145134384   -0.0058744185
C       -0.4443619537    1.5296785995   -0.1772027218
N        0.8651561246    1.5196522920   -0.1208814997
H        2.6065494175    0.3717491909    0.0730785154
H        1.6203822324   -1.8584112293   -0.0800522569
H       -0.8660817727   -1.6359288668   -1.3479730901
H       -2.3344027659    0.2148733600   -0.3401946706
H       -0.8823227723    2.5338981491   -0.1987160057
C       -0.4447824577   -0.1268455936    1.0412741172
H       -0.8124991604   -0.8540390050    1.7812983957
13   
From optimize.out: Frame 17 / 34, Energy=    -286.8334788919
C        1.5337023008    0.2713314436   -0.0604613529
C        0.9543583997   -1.0303255898   -0.1877243437
C       -0.4713179817   -1.3284593194   -0.3916430123
C       -1.3335992424    0.3232681374   -0.0135081314
C       -0.4610468620    1.5410230640   -0.1643149367
N        0.8553975397    1.5102819469   -0.0927700716
H        2.6094654603    0.3607641639    0.1028794032
H        1.6341859546   -1.8857161202   -0.0679483362
H       -0.9016815961   -1.6917161122   -1.3752543748
H       -2.3614657481    0.2084339854   -0.3419359899
H       -0.9003354807    2.5456178683   -0.1669591556
C       -0.4047783772   -0.0520365445    1.0045762579
H       -0.7528843670   -0.7724669235    1.7550640440
13   
From optimize.out: Frame 16 / 34, Energy=    -286.8277960833
C        1.5533152979    0.2553576343   -0.0477979850
C        0.9720426862   -1.0540772080   -0.1894037860
C       -0.4745057606   -1.3481255728   -0.4089331916
C       -1.3616990136    0.3304114973   -0.0207890081
C       -0.4816970600    1.5489838629   -0.1528190557
N        0.8471146816    1.4925780098   -0.0666968479
H        2.6306532823    0.3538937567    0.1306994646
H        1.6512282017   -1.9128026633   -0.0470346211
H       -0.9515647094   -1.7418792735   -1.4047720182
H       -2.3919043377    0.2026831081   -0.3428142314
H       -0.9272390302    2.5522061972   -0.1369477086
C       -0.3688841764    0.0148168074    0.9660059087
H       -0.6968600619   -0.6940461562    1.7213030803
13   
From optimize.out: Frame 15 / 34, Energy=    -286.8212172670
C        1.5642943315    0.2470556960   -0.0296440898
C        0.9789302161   -1.0790691474   -0.1871487650
C       -0.4762370943   -1.3634465954   -0.4283417859
C       -1.3778953435    0.3430008053   -0.0273332217
C       -0.4983358924    1.5615080884   -0.1602074112
N        0.8406769438    1.4804636121   -0.0514590598
H        2.6405559489    0.3506829252    0.1710924350
H        1.6626326968   -1.9340940149   -0.0184427293
H       -1.0145464961   -1.7812245885   -1.4256386144
H       -2.4198017498    0.1919704690   -0.3243420062
H       -0.9431525344    2.5647376323   -0.1241832500
C       -0.3236037376    0.0666885145    0.9341139063
H       -0.6335172890   -0.6482733964    1.6715345920
13   
From optimize.out: Frame 14 / 34, Energy=    -286.8135457790
C        1.5660610409    0.2477747340   -0.0188941971
C        0.9662735028   -1.1121982270   -0.2152344772
C       -0.4526631383   -1.3934266587   -0.4737194684
C       -1.3752442574    0.3738377716   -0.0378711948
C       -0.5141251733    1.5969808998   -0.1970843830
N        0.8550354977    1.4801992911   -0.0486224094
H        2.6173553464    0.3479486308    0.2389643593
H        1.6721771872   -1.9326400101   -0.0416120243
H       -1.0413393161   -1.8017145599   -1.4132479755
H       -2.4427986402    0.1384020605   -0.2478440478
H       -0.9215394553    2.6039429744   -0.1521489017
C       -0.3064766827    0.1115548117    0.9611081524
H       -0.6227159117   -0.6606617182    1.6462065675
13   
From optimize.out: Frame 12 / 34, Energy=    -286.7954760785
C        1.5579585406    0.2445306213   -0.0101443824
C        0.9501796984   -1.1370741401   -0.2514728978
C       -0.4342876443   -1.4142729774   -0.5308548011
C       -1.3675772143    0.4017282735   -0.0569799484
C       -0.5277407577    1.6325688321   -0.2349348583
N        0.8622622585    1.4835828617   -0.0479300028
H        2.5835657831    0.3397139051    0.3064838014
H        1.6705420631   -1.9320801457   -0.0902562266
H       -1.0213461690   -1.8063747063   -1.3675963808
H       -2.4399871808    0.1008955473   -0.1717570868
H       -0.9010570835    2.6415348375   -0.1880239928
C       -0.3136308754    0.1361669102    0.9836206958
H       -0.6188814186   -0.6909198192    1.6598460805
13   
From optimize.out: Frame 11 / 34, Energy=    -286.7859313292
C        1.5409159722    0.2399893467   -0.0004522146
C        0.9335328539   -1.1536893158   -0.2876276997
C       -0.4171539787   -1.4266144625   -0.5854886674
C       -1.3565011112    0.4244413567   -0.0746425215
C       -0.5385676309    1.6656932793   -0.2688251354
N        0.8617871350    1.4909111192   -0.0480751486
H        2.5501555752    0.3285727133    0.3730699379
H        1.6691646965   -1.9364485581   -0.1508658510
H       -0.9898835635   -1.8233064633   -1.3275304492
H       -2.4145874571    0.0797286635   -0.0981521347
H       -0.8875164874    2.6814322436   -0.2276318665
C       -0.3355794758    0.1478955501    1.0068310169
H       -0.6157665282   -0.7186054727    1.6893907338
13   
From optimize.out: Frame 10 / 34, Energy=    -286.7759771218
C        1.5179999032    0.2367442965    0.0138330371
C        0.9196279645   -1.1634561686   -0.3189919454
C       -0.3950697992   -1.4310238839   -0.6301181560
C       -1.3405403446    0.4429108170   -0.0859287668
C       -0.5456336876    1.6970206218   -0.2975187568
N        0.8562145882    1.5029301858   -0.0473868417
H        2.5177590090    0.3170192752    0.4407189553
H        1.6739545857   -1.9429010942   -0.2155733753
H       -0.9767479838   -1.8747073104   -1.3224579635
H       -2.3744927725    0.0717509474   -0.0255831157
H       -0.8800553471    2.7238026270   -0.2696130239
C       -0.3645276275    0.1529630036    1.0353919830
H       -0.6084884882   -0.7330533173    1.7232279697
13   
From optimize.out: Frame 9 / 34, Energy=    -286.7646887803
C        1.4988697581    0.2380411754    0.0287592995
C        0.9005313891   -1.1563962797   -0.3346541606
C       -0.3935588272   -1.4055409914   -0.6608488283
C       -1.3096158516    0.4334832537   -0.0847990272
C       -0.5419323683    1.7009807121   -0.3165741916
N        0.8538796980    1.5141049532   -0.0468807311
H        2.4914047955    0.3064374431    0.4872845357
H        1.6563057945   -1.9428940071   -0.2485670822
H       -0.9888675205   -1.8833213068   -1.3511634060
H       -2.3267608543    0.0461567803    0.0142267074
H       -0.8829444664    2.7287069472   -0.3100451300
C       -0.3684574227    0.1526121219    1.0653434636
H       -0.5888541241   -0.7323708020    1.7579185507
13   
From optimize.out: Frame 7 / 34, Energy=    -286.7344920617
C        1.4865087091    0.2431501217    0.0404032676
C        0.8709886215   -1.1343325368   -0.3376521008
C       -0.4202671031   -1.3506580592   -0.6856270641
C       -1.2647084225    0.3944809418   -0.0756373621
C       -0.5295751161    1.6750987981   -0.3303738238
N        0.8577438333    1.5212832187   -0.0478896312
H        2.4720854343    0.2967776748    0.5124609630
H        1.6073154236   -1.9365563514   -0.2452097461
H       -1.0122841022   -1.8134987995   -1.3906556476
H       -2.2738283160   -0.0106330013    0.0208113225
H       -0.8946187628    2.6914269988   -0.3500088352
C       -0.3413278565    0.1497806742    1.0933898254
H       -0.5580323425   -0.7263196799    1.7959888324
13   
From optimize.out: Frame 6 / 34, Energy=    -286.7147976360
C        1.4741474549    0.2482592348    0.0520470245
C        0.8414460253   -1.1122688315   -0.3406507825
C       -0.4469742853   -1.2957756240   -0.7104069905
C       -1.2198015421    0.3554785967   -0.0664739800
C       -0.5172174154    1.6492163957   -0.3441731603
N        0.8616083510    1.5284612494   -0.0488989397
H        2.4527652854    0.2871184645    0.5376375617
H        1.5583247380   -1.9302184742   -0.2418528283
H       -1.0356990007   -1.7436773200   -1.4301498417
H       -2.2208965386   -0.0674227509    0.0273982276
H       -0.9062918830    2.6541462137   -0.3899729769
C       -0.3141992274    0.1469500727    1.1214368219
H       -0.5272119620   -0.7202672270    1.8340598643
13   
From optimize.out: Frame 5 / 34, Energy=    -286.6920170815
C        1.4617859932    0.2533685189    0.0636905629
C        0.8119036050   -1.0902051634   -0.3436502279
C       -0.4736803371   -1.2408937004   -0.7351886662
C       -1.1748952337    0.3164762146   -0.0573088250
C       -0.5048592528    1.6233334854   -0.3579721904
N        0.8654732716    1.5356390326   -0.0499086751
H        2.4334443274    0.2774598297    0.5628143401
H        1.5093337210   -1.9238803640   -0.2384963330
H       -1.0591121625   -1.6738569021   -1.4696460579
H       -2.1679655583   -0.1242124679    0.0339875009
H       -0.9179637930    2.6168645625   -0.4299375631
C       -0.2870715597    0.1441203477    1.1494844693
H       -0.4963930212   -0.7142133937    1.8721316655
13   
From optimize.out: Frame 4 / 34, Energy=    -286.6659657553
C        1.4494243220    0.2584779779    0.0753338749
C        0.7823613655   -1.0681415320   -0.3466504601
C       -0.5003852198   -1.1860123031   -0.7599721525
C       -1.1299895220    0.2774737915   -0.0481418385
C       -0.4925006144    1.5974500465   -0.3717709035
N        0.8693386173    1.5428165550   -0.0509188571
H        2.4141225381    0.2678017883    0.5879913069
H        1.4603423543   -1.9175420086   -0.2351402644
H       -1.0825235309   -1.6040375811   -1.5091443689
H       -2.1150354139   -0.1810021516    0.0405792246
H       -0.9296344571    2.5795820147   -0.4699026019
C       -0.2599448785    0.1412915310    1.1775327844
H       -0.4655755604   -0.7081581284    1.9102042559
13   
From optimize.out: Frame 3 / 34, Energy=    -286.6361401641
C        1.4370624391    0.2635876160    0.0869769523
C        0.7528193119   -1.0460779364   -0.3496515032
C       -0.5270888927   -1.1311314473   -0.7847575134
C       -1.0850844335    0.2384713223   -0.0389729591
C       -0.4801414856    1.5715660572   -0.3855692881
N        0.8732044115    1.5499938020   -0.0519295067
H        2.3947998943    0.2581443591    0.6131684709
H        1.4113506182   -1.9112033951   -0.2317846266
H       -1.1059330464   -1.5342193934   -1.5486448504
H       -2.0621061470   -0.2377918017    0.0471734847
H       -0.9413038381    2.5422985387   -0.5098681018
C       -0.2328192100    0.1384636556    1.2055817849
H       -0.4347596217   -0.7021013770    1.9482776562
13   
From optimize.out: Frame 1 / 34, Energy=    -286.5637887220
C        1.4238345149    0.2668669657    0.0956877104
C        0.7370306901   -1.0288422781   -0.3537581215
C       -0.5358999372   -1.0812771439   -0.8127413552
C       -1.0572008794    0.2100192332   -0.0183031751
C       -0.4683283422    1.5437524010   -0.4027279524
N        0.8737804866    1.5515056912   -0.0659478087
H        2.3737267735    0.2539241361    0.6353158126
H        1.3792449339   -1.9063398396   -0.2282333505
H       -1.1068713445   -1.4722408766   -1.5943750312
H       -2.0370786528   -0.2565664296    0.0732029127
H       -0.9449576302    2.5052667705   -0.5539475045
C       -0.2132717471    0.1204309228    1.2369247540
H       -0.4240088656   -0.7064995526    1.9889031094
13   
C5H5N+CH->C6H6N atoms 1-13 frame 104 charge -0.000 sz -1.000 sz^2 0.527
C        1.4090279914    0.2668094706    0.0990524043
C        0.7463153567   -1.0204082582   -0.3598790249
C       -0.5120923262   -1.0405859130   -0.8465527288
C       -1.0603488472    0.2008012588    0.0233307141
C       -0.4575111522    1.5124216129   -0.4260126310
N        0.8683593095    1.5426897754   -0.1036793309
H        2.3494634937    0.2596155693    0.6519382424
H        1.3779240946   -1.9041657615   -0.2243252288
H       -1.0668444054   -1.4245531135   -1.6514579068
H       -2.0629175204   -0.2060370591    0.1346596919
H       -0.9339996832    2.4686952403   -0.6055254326
C       -0.2075394474    0.0746771333    1.2742719845
H       -0.4498368641   -0.7299599553    2.0341792466
13   
C5H5N+CH->C6H6N atoms 1-13 frame 105 charge +0.000 sz -1.000 sz^2 0.523
C        1.3942201093    0.2667982364    0.1023958025
C        0.7555673385   -1.0120170830   -0.3657998563
C       -0.4884506499   -1.0002033735   -0.8798476976
C       -1.0634718615    0.1917819739    0.0646447031
C       -0.4467222239    1.4813921762   -0.4491746128
N        0.8629169542    1.5339520046   -0.1413050057
H        2.3253001356    0.2653683065    0.6683574742
H        1.3766994476   -1.9019485160   -0.2202916907
H       -1.0271069319   -1.3773674932   -1.7078340534
H       -2.0886498405   -0.1554429732    0.1956860895
H       -0.9230094193    2.4324995937   -0.6567431034
C       -0.2017788754    0.0288753634    1.3111556307
H       -0.4755141829   -0.7536882157    2.0787563200
13   
C5H5N+CH->C6H6N atoms 1-13 frame 106 charge -0.000 sz -1.000 sz^2 0.519
C        1.3791958669    0.2747067890    0.1022298949
C        0.7591495464   -1.0109853200   -0.3372956512
C       -0.4936394579   -1.0128937900   -0.8244394817
C       -1.0620160280    0.2169473192    0.0508802437
C       -0.4408375086    1.5022340122   -0.4513473651
N        0.8536251023    1.5386407619   -0.1606762436
H        2.3183893640    0.2816147572    0.6500727310
H        1.3920499755   -1.8923168879   -0.1945621981
H       -1.0375825229   -1.4165164148   -1.6428793054
H       -2.0957977695   -0.0937681697    0.1827275538
H       -0.9066527228    2.4609968181   -0.6461403750
C       -0.1908631502   -0.0251372093    1.2682247208
H       -0.4750206951   -0.8235226660    2.0032054758
13   
C5H5N+CH->C6H6N atoms 1-13 frame 108 charge +0.000 sz -1.000 sz^2 0.505
C        1.3641717277    0.2826153884    0.1020641374
C        0.7627325291   -1.0099544521   -0.3087917359
C       -0.4988268788   -1.0255857799   -0.7690311509
C       -1.0605604522    0.2421130994    0.0371168384
C       -0.4349528266    1.5230758466   -0.4535197073
N        0.8443326497    1.5433300652   -0.1800475321
H        2.3114783643    0.2978617136    0.6317877282
H        1.4074012561   -1.8826861755   -0.1688333098
H       -1.0480569325   -1.4556671955   -1.5779247511
H       -2.1029456445   -0.0320928293    0.1697718219
H       -0.8902956093    2.4894936163   -0.6355372843
C       -0.1799487267   -0.0791485175    1.2252920131
H       -0.4745294562   -0.8933547796    1.9276529323
13   
C5H5N+CH->C6H6N atoms 1-13 frame 109 charge +0.000 sz -1.000 sz^2 0.500
C        1.3491476948    0.2905240321    0.1018985274
C        0.7663163136   -1.0089244736   -0.2802881259
C       -0.5040128618   -1.0382793236   -0.7136226893
C       -1.0591051454    0.2672793135    0.0233544924
C       -0.4290681783    1.5439176792   -0.4556916461
N        0.8350395766    1.5480199073   -0.1994188720
H        2.3045671267    0.3141091632    0.6135024381
H        1.4227533134   -1.8730563782   -0.1431050670
H       -1.0585301149   -1.4948198097   -1.5129703530
H       -2.1100934692    0.0295830520    0.1568189122
H       -0.8739380619    2.5179899922   -0.6249338461
C       -0.1690356485   -0.1331585758    1.1823575132
H       -0.4740405450   -0.9631845786    1.8520987158
13   
C5H5N+CH->C6H6N atoms 1-13 frame 110 charge -0.000 sz -1.000 sz^2 0.501
C        1.3341237720    0.2984327182    0.1017330624
C        0.7699009280   -1.0078953792   -0.2517848373
C       -0.5091973538   -1.0509744016   -0.6582140799
C       -1.0576501192    0.2924459607    0.0095932115
C       -0.4231835641    1.5647595102   -0.4578631883
N        0.8257458622    1.5527102813   -0.2187902642
H        2.2976556407    0.3303570936    0.5952168322
H        1.4381061724   -1.8634274956   -0.1173775126
H       -1.0690020224   -1.5339742320   -1.4480160720
H       -2.1172412472    0.0912594785    0.1438688448
H       -0.8575800629    2.5464859496   -0.6143300759
C       -0.1581239619   -0.1871673987    1.1394212262
H       -0.4735540438   -1.0330120849    1.7765428531
13   
C5H5N+CH->C6H6N atoms 1-13 frame 111 charge +0.000 sz -1.000 sz^2 0.507
C        1.3190999630    0.3063414443    0.1015677396
C        0.7734864020   -1.0068671636   -0.2232818869
C       -0.5143802993   -1.0636709944   -0.6028053053
C       -1.0561953858    0.3176130404   -0.0041669980
C       -0.4172989844    1.5856013395   -0.4600343407
N        0.8164514846    1.5574011802   -0.2381617098
H        2.2907438960    0.3466054922    0.5769308806
H        1.4534598597   -1.8537995276   -0.0916506915
H       -1.0794726053   -1.5731304369   -1.3830618681
H       -2.1243889816    0.1529364551    0.1309216420
H       -0.8412215939    2.5749814918   -0.6037259893
C       -0.1472137152   -0.2411750009    1.0964831565
H       -0.4730700396   -1.1028373202    1.7009853710
13   
C5H5N+CH->C6H6N atoms 1-13 frame 112 charge +0.000 sz -1.000 sz^2 0.520
C        1.2976200023    0.2975568952    0.1164275558
C        0.7577273277   -1.0132548999   -0.2246661892
C       -0.5218311799   -1.0638278036   -0.6350585182
C       -1.0505433541    0.3190521425    0.0070174713
C       -0.4217004998    1.5806879211   -0.4668172326
N        0.8092763044    1.5509200462   -0.2381154254
H        2.2603484405    0.3317676259    0.6071199037
H        1.4322481180   -1.8624869419   -0.0841807603
H       -1.0637128073   -1.5728031941   -1.4305120903
H       -2.1185254002    0.1607148309    0.1547254318
H       -0.8486661507    2.5677804347   -0.6176910219
C       -0.1143990842   -0.2219683959    1.0954715953
H       -0.4178417168   -1.0741386612    1.7162792800
13   
C5H5N+CH->C6H6N atoms 1-13 frame 114 charge +0.000 sz -1.000 sz^2 0.555
C        1.2742450343    0.2838736102    0.1356963802
C        0.7362913815   -1.0218190864   -0.2348217556
C       -0.5299467035   -1.0603053264   -0.6930377070
C       -1.0436598873    0.3135283187    0.0255224363
C       -0.4291202678    1.5682162124   -0.4749532398
N        0.8027231621    1.5411602974   -0.2323705031
H        2.2230605925    0.3078073811    0.6515341505
H        1.4003055191   -1.8765492757   -0.0820692410
H       -1.0402540103   -1.5608897374   -1.5109487337
H       -2.1088442136    0.1526766478    0.1893142353
H       -0.8630953936    2.5501035268   -0.6388657955
C       -0.0751564834   -0.1812761259    1.1067643570
H       -0.3465487302   -1.0165264426    1.7582354164
13   
C5H5N+CH->C6H6N atoms 1-13 frame 115 charge -0.000 sz -1.000 sz^2 0.576
C        1.2508696765    0.2701904657    0.1549648794
C        0.7148556531   -1.0303836030   -0.2449779118
C       -0.5380608803   -1.0567838864   -0.7510173405
C       -1.0367768373    0.3080049747    0.0440277882
C       -0.4365396661    1.5557444193   -0.4830888863
N        0.7961700307    1.5314006103   -0.2266253101
H        2.1857717942    0.2838475410    0.6959478868
H        1.3683627982   -1.8906118280   -0.0799586514
H       -1.0167934129   -1.5489774128   -1.5913852544
H       -2.0991638448    0.1446393310    0.2239035644
H       -0.8775238412    2.5324262987   -0.6600400873