13   
From optimize.out: Frame 33 / 34, Energy=    -286.8584556587
C        1.5748599053    0.4457949738   -0.0860317622
C        0.8229557593   -0.8160969868    0.1166120050
C       -0.5200598419   -0.9688885888   -0.5830004170
C       -1.1192044585    0.3159568790   -0.0355108530
C       -0.3703706087    1.5798969100   -0.2390095761
N        0.9608892206    1.6152682476   -0.2557641101
H        2.6628065437    0.4376265632   -0.0979064375
H        1.4076710846   -1.7255910359    0.2501101110
H       -0.9239840208   -1.7415043410   -1.2229397507
H       -2.2059505343    0.3777711622   -0.0368483990
H       -0.9048727448    2.5181695490   -0.3803360835
C       -0.5012349421   -0.7476811506    0.8586617756
H       -0.8835053624   -1.2907221814    1.7119634976
13   
From optimize.out: Frame 32 / 34, Energy=    -286.8584483777
C        1.5753060893    0.4479670796   -0.0859393732
C        0.8170225548   -0.8065719856    0.1354588014
C       -0.5151009841   -0.9793679316   -0.5749040563
C       -1.1234523701    0.3149293601   -0.0091068672
C       -0.3668560307    1.5705666889   -0.2551174226
N        0.9646811673    1.6091004336   -0.2888983201
H        2.6625429748    0.4333322385   -0.1063635210
H        1.3991374033   -1.7118811045    0.2910596364
H       -0.9161056040   -1.6817546292   -1.2975997347
H       -2.2118817228    0.3654265371   -0.0071687338
H       -0.8967079455    2.5088434256   -0.3954294757
C       -0.5192348234   -0.7664699241    0.8618278864
H       -0.8693507088   -1.3041201883    1.7321811805
13   
From optimize.out: Frame 31 / 34, Energy=    -286.8584370224
C        1.5748531824    0.4458379793   -0.1027397519
C        0.8235856461   -0.8087321486    0.1531283850
C       -0.4993934032   -1.0058171428   -0.5421001408
C       -1.1095497951    0.3085885837    0.0147902435
C       -0.3723797589    1.5576521692   -0.2897228522
N        0.9590443084    1.5939438204   -0.3557355843
H        2.6628409631    0.4433324628   -0.0815133338
H        1.4151581090   -1.7071155735    0.3288852810
H       -0.9474152975   -1.5639353427   -1.3501116329
H       -2.1979674336    0.3599876948    0.0131458374
H       -0.9053848440    2.4989818792   -0.4043075957
C       -0.5197955900   -0.7727189827    0.8873320263
H       -0.8835960868   -1.3500053991    1.7289491185
13   
From optimize.out: Frame 29 / 34, Energy=    -286.8583943354
C        1.5743254630    0.4456078837   -0.1164421522
C        0.8334260370   -0.8124358418    0.1362755260
C       -0.4971833092   -1.0304965418   -0.5133171346
C       -1.0993146839    0.3027575593    0.0265084455
C       -0.3744587930    1.5480839305   -0.3095289464
N        0.9568731393    1.5876374993   -0.3904913967
H        2.6604455375    0.4564217040   -0.0536567154
H        1.4303390330   -1.7026936827    0.3316391799
H       -0.9667508554   -1.4997784256   -1.3632790654
H       -2.1881660406    0.3545867267    0.0127711985
H       -0.9024395743    2.4939976204   -0.4061030636
C       -0.5226832481   -0.7663602726    0.9174670534
H       -0.9044127053   -1.3773281594    1.7281570710
13   
From optimize.out: Frame 28 / 34, Energy=    -286.8583509999
C        1.5628666881    0.4375638912   -0.1266129347
C        0.8362364857   -0.8256943230    0.1132734500
C       -0.5094799833   -1.0620008202   -0.4604531168
C       -1.0905665023    0.2970337054    0.0336812489
C       -0.3799089504    1.5379192653   -0.3328737625
N        0.9504152876    1.5808628966   -0.4234077369
H        2.6444301912    0.4619670133   -0.0169433856
H        1.4387668215   -1.7093878817    0.3149666899
H       -0.9551193821   -1.4177813921   -1.3733535826
H       -2.1789219974    0.3472836659   -0.0033824402
H       -0.9000876717    2.4904127605   -0.4041773341
C       -0.5146551094   -0.7434872423    0.9506378183
H       -0.9039758773   -1.3946915388    1.7286450863
13   
From optimize.out: Frame 27 / 34, Energy=    -286.8582735639
C        1.5526867205    0.4181792475   -0.1368526359
C        0.8448675422   -0.8453672404    0.0535936286
C       -0.5310902098   -1.0908437746   -0.3906176763
C       -1.1013625383    0.2953577059    0.0350392283
C       -0.3886397063    1.5252230167   -0.3356521234
N        0.9369971519    1.5722808356   -0.4230401959
H        2.6281655082    0.4563058290    0.0116396985
H        1.4468609660   -1.7287140038    0.2557994154
H       -0.8920694901   -1.3735129673   -1.3662363022
H       -2.1858900904    0.3434387970   -0.0551675853
H       -0.8951492438    2.4875771970   -0.3862044931
C       -0.5113066959   -0.6867958011    0.9953032871
H       -0.9040699143   -1.3731288415    1.7423957543
13   
From optimize.out: Frame 26 / 34, Energy=    -286.8581878949
C        1.5548086638    0.4011629037   -0.1411726640
C        0.8717511682   -0.8583834169   -0.0065346381
C       -0.5257400968   -1.1072365519   -0.3476051700
C       -1.1244179771    0.2934097867    0.0309960364
C       -0.3913308736    1.5170744132   -0.3125321527
N        0.9263530165    1.5692210117   -0.3818202232
H        2.6284094407    0.4476795616    0.0117226626
H        1.4801013372   -1.7412913280    0.1792710829
H       -0.8671571186   -1.3877384874   -1.3310362994
H       -2.2016520560    0.3236758692   -0.1194352316
H       -0.8869606231    2.4866163258   -0.3632057539
C       -0.5290031123   -0.6226318635    1.0256671660
H       -0.9351617690   -1.3215582242    1.7556851849
13   
From optimize.out: Frame 24 / 34, Energy=    -286.8577421206
C        1.5593483448    0.3841766303   -0.1391988823
C        0.8999886382   -0.8721251414   -0.0553898968
C       -0.5163714829   -1.1225263328   -0.3203809683
C       -1.1530381068    0.2916985569    0.0285315170
C       -0.3955202025    1.5095417729   -0.2874030761
N        0.9163829710    1.5611287846   -0.3330991749
H        2.6337903089    0.4371969285    0.0050493751
H        1.5207278523   -1.7537756320    0.0991249204
H       -0.8463578475   -1.4077031903   -1.3079815941
H       -2.2213473755    0.3020453926   -0.1748660640
H       -0.8804977455    2.4853015291   -0.3463745069
C       -0.5494063043   -0.5552977781    1.0565909592
H       -0.9676990501   -1.2596615205    1.7753973916
13   
From optimize.out: Frame 23 / 34, Energy=    -286.8553170874
C        1.5588670397    0.3669219129   -0.1301396000
C        0.9181479465   -0.8889700993   -0.0974374228
C       -0.5099721568   -1.1431518470   -0.2991359495
C       -1.1835747917    0.2914113306    0.0227879888
C       -0.4026513402    1.5033481600   -0.2626639590
N        0.9058235513    1.5505162058   -0.2804738029
H        2.6347624209    0.4241697955    0.0029992554
H        1.5530368799   -1.7677727217    0.0207769418
H       -0.8284391902   -1.4352999923   -1.2908029015
H       -2.2400799850    0.2794639549   -0.2326904415
H       -0.8733905053    2.4869295194   -0.3264569238
C       -0.5562863729   -0.4770215856    1.0815006462
H       -0.9762434962   -1.1905446331    1.7917361687
13   
From optimize.out: Frame 22 / 34, Energy=    -286.8528959086
C        1.5507331601    0.3489056434   -0.1153558426
C        0.9235977828   -0.9122032696   -0.1279328928
C       -0.5018239934   -1.1743743814   -0.2974628148
C       -1.2152189901    0.2927597124    0.0143719459
C       -0.4116263299    1.5019130171   -0.2385527067
N        0.8952431265    1.5399992742   -0.2296886928
H        2.6272484052    0.4087750193    0.0114923364
H        1.5731512071   -1.7847364317   -0.0372680825
H       -0.8242030266   -1.4727082199   -1.2869315530
H       -2.2588317564    0.2540141745   -0.2832841225
H       -0.8671715723    2.4938250037   -0.2992769853
C       -0.5411063488   -0.3857070235    1.0899085026
H       -0.9499916642   -1.1104625184    1.7999809081
13   
From optimize.out: Frame 21 / 34, Energy=    -286.8499023062
C        1.5410596357    0.3304264855   -0.1006882249
C        0.9269533673   -0.9405532874   -0.1513315262
C       -0.4901761993   -1.2146723302   -0.3154034148
C       -1.2471070692    0.2972084229    0.0072595988
C       -0.4206942260    1.5065994691   -0.2156200614
N        0.8853282908    1.5310870104   -0.1865031112
H        2.6174705858    0.3947611735    0.0273484028
H        1.5897352608   -1.8054486083   -0.0711093192
H       -0.8299498835   -1.5201392211   -1.2996678682
H       -2.2810766018    0.2337395108   -0.3156311152
H       -0.8658782293    2.5046869201   -0.2676283250
C       -0.5148595751   -0.2936349248    1.0855583303
H       -0.9108053563   -1.0240606205    1.8034166343
13   
From optimize.out: Frame 20 / 34, Energy=    -286.8462926905
C        1.5337575279    0.3111289242   -0.0878518658
C        0.9330383318   -0.9718508111   -0.1685841294
C       -0.4795953829   -1.2578894098   -0.3423098353
C       -1.2781927861    0.3051982614    0.0009301672
C       -0.4311476816    1.5169218361   -0.1947711228
N        0.8753799645    1.5247745797   -0.1512224776
H        2.6099541931    0.3828420646    0.0477783941
H        1.6053960958   -1.8307254792   -0.0826885174
H       -0.8431522475   -1.5766137946   -1.3224981591
H       -2.3071177493    0.2220824878   -0.3322989576
H       -0.8710681774    2.5189145633   -0.2330004797
C       -0.4820907058   -0.2071841491    1.0687649593
H       -0.8651613824   -0.9375990733    1.7977520240
13   
From optimize.out: Frame 18 / 34, Energy=    -286.8384419732
C        1.5304959098    0.2912237759   -0.0750415530
C        0.9422410844   -1.0028729385   -0.1807399523
C       -0.4732655614   -1.2975752356   -0.3689765302
C       -1.3071784665    0.3145748779   -0.0058889582
C       -0.4442875258    1.5297022248   -0.1771854004
N        0.8652292418    1.5196135790   -0.1208448393
H        2.6065657728    0.3716257188    0.0731231385
H        1.6202962055   -1.8584860207   -0.0800572140
H       -0.8661384778   -1.6358671260   -1.3480115834
H       -2.3343876139    0.2149882391   -0.3402260623
H       -0.8822008946    2.5339426638   -0.1986894902
C       -0.4448039132   -0.1268410128    1.0412655102
H       -0.8125657612   -0.8540287456    1.7812729347
13   
From optimize.out: Frame 17 / 34, Energy=    -286.8334788919
C        1.5337199909    0.2712414784   -0.0604162622
C        0.9543018328   -1.0303782193   -0.1877230472
C       -0.4713871055   -1.3284225157   -0.3916846549
C       -1.3335796492    0.3233478382   -0.0135348595
C       -0.4609509299    1.5410541775   -0.1642922803
N        0.8554898178    1.5102330852   -0.0927145954
H        2.6094843153    0.3606065046    0.1029538697
H        1.6340754096   -1.8858118965   -0.0679488265
H       -0.9017473104   -1.6916317350   -1.3753150772
H       -2.3614446301    0.2085822128   -0.3419914415
H       -0.9001796692    2.5456751932   -0.1669252604
C       -0.4048070440   -0.0520348620    1.0045647937
H       -0.7529750281   -0.7724612614    1.7550276418
13   
From optimize.out: Frame 16 / 34, Energy=    -286.8277960833
C        1.5533354354    0.2552473611   -0.0477325176
C        0.9719740325   -1.0541416857   -0.1893972677
C       -0.4745873123   -1.3480798638   -0.4089892367
C       -1.3616744852    0.3305099446   -0.0208306690
C       -0.4815800143    1.5490228120   -0.1527931492
N        0.8472244412    1.4925190203   -0.0666227368
H        2.6306738068    0.3537009951    0.1308081083
H        1.6510924980   -1.9129199881   -0.0470270174
H       -0.9516372289   -1.7417710199   -1.4048571178
H       -2.3918769145    0.2028647297   -0.3428981302
H       -0.9270504827    2.5522767117   -0.1369100295
C       -0.3689193195    0.0148159040    0.9659925019
H       -0.6969744564   -0.6940449212    1.7212572618
13   
From optimize.out: Frame 15 / 34, Energy=    -286.8212172670
C        1.5643155793    0.2469318890   -0.0295542748
C        0.9788537291   -1.0791404597   -0.1871376452
C       -0.4763238213   -1.3633929160   -0.4284162088
C       -1.3778665419    0.3431118105   -0.0273918458
C       -0.4982029521    1.5615537226   -0.1601760793
N        0.8407977914    1.4803983693   -0.0513615384
H        2.6405750976    0.3504658565    0.1712416188
H        1.6624792323   -1.9342260739   -0.0184275490
H       -1.0146150673   -1.7810914867   -1.4257561038
H       -2.4197696616    0.1921755113   -0.3244599572
H       -0.9429413592    2.5648174592   -0.1241382256
C       -0.3236466558    0.0666802153    0.9340996296
H       -0.6336553705   -0.6482838972    1.6714781794
13   
From optimize.out: Frame 14 / 34, Energy=    -286.8135457790
C        1.5660818689    0.2476511701   -0.0187875275
C        0.9661980468   -1.1122643295   -0.2152316293
C       -0.4527453726   -1.3933670885   -0.4738160919
C       -1.3752122499    0.3739489879   -0.0379354291
C       -0.5139863415    1.5970315750   -0.1970358631
N        0.8551560952    1.4801337285   -0.0484972271
H        2.6173685988    0.3477286541    0.2391393422
H        1.6720260450   -1.9327708700   -0.0416074919
H       -1.0413974063   -1.8015614275   -1.4134003793
H       -2.4427726948    0.1386085995   -0.2479843077
H       -0.9213232771    2.6040237985   -0.1520748027
C       -0.3065257119    0.1115313421    0.9610952405
H       -0.6228676007   -0.6606941403    1.6461361670
13   
From optimize.out: Frame 12 / 34, Energy=    -286.7954760785
C        1.5579776942    0.2444131656   -0.0100327733
C        0.9501093728   -1.1371320763   -0.2514766354
C       -0.4343613935   -1.4142104378   -0.5309610623
C       -1.3675431939    0.4018350514   -0.0570435072
C       -0.5276023154    1.6326219182   -0.2348768951
N        0.8623776496    1.4835202113   -0.0477929610
H        2.5835722323    0.3395010801    0.3066652088
H        1.6704013751   -1.9322016482   -0.0902590560
H       -1.0213970031   -1.8062209830   -1.3677614411
H       -2.4399687261    0.1010899727   -0.1719048684
H       -0.9008451599    2.6416135803   -0.1879331728
C       -0.3136824089    0.1361357586    0.9836085747
H       -0.6190381233   -0.6909655930    1.6597685890
13   
From optimize.out: Frame 11 / 34, Energy=    -286.7859313292
C        1.5409335635    0.2398765471   -0.0003457504
C        0.9334656107   -1.1537406863   -0.2876398841
C       -0.4172233559   -1.4265493535   -0.5855978649
C       -1.3564655579    0.4245450831   -0.0746987181
C       -0.5384295698    1.6657485731   -0.2687590679
N        0.8618991696    1.4908508506   -0.0479355209
H        2.5501572729    0.3283639698    0.3732420812
H        1.6690319471   -1.9365618601   -0.1508801793
H       -0.9899375323   -1.8231556183   -1.3276973661
H       -2.4145757293    0.0799112517   -0.0982920567
H       -0.8873065238    2.6815106514   -0.2275267415
C       -0.3356289574    0.1478606918    1.0068196431
H       -0.6159203372   -0.7186601004    1.6893114255
13   
From optimize.out: Frame 10 / 34, Energy=    -286.7759771218
C        1.5180168985    0.2366298258    0.0139263200
C        0.9195573630   -1.1635048450   -0.3190179341
C       -0.3951443599   -1.4309545365   -0.6302288808
C       -1.3405027614    0.4430165557   -0.0859699857
C       -0.5454913429    1.6970802260   -0.2974397824
N        0.8563294941    1.5028690969   -0.0472477775
H        2.5177599753    0.3168030420    0.4408688978
H        1.6738203180   -1.9430127436   -0.2156096423
H       -0.9768200107   -1.8745507282   -1.3226267133
H       -2.3744860732    0.0719302522   -0.0257011235
H       -0.8798376075    2.7238854904   -0.2694864880
C       -0.3645696169    0.1529249222    1.0353828242
H       -0.6086322764   -0.7331165578    1.7231502856
13   
From optimize.out: Frame 9 / 34, Energy=    -286.7646887803
C        1.4988864508    0.2379266824    0.0288366366
C        0.9004581161   -1.1564399391   -0.3347004540
C       -0.3936376502   -1.4054642877   -0.6609650060
C       -1.3095799156    0.4335875464   -0.0848208076
C       -0.5417920239    1.7010439543   -0.3164745833
N        0.8539951600    1.5140442371   -0.0467382686
H        2.4914081526    0.3062157632    0.4874067132
H        1.6561700550   -1.9430005024   -0.2486390930
H       -0.9889543853   -1.8831506666   -1.3513376551
H       -2.3267579563    0.0463303083    0.0141363270
H       -0.8827272909    2.7287952991   -0.3098858861
C       -0.3684888699    0.1525637143    1.0653395202
H       -0.5889798424   -0.7324521093    1.7578425569
13   
From optimize.out: Frame 7 / 34, Energy=    -286.7344920617
C        1.4865245848    0.2430427909    0.0404649019
C        0.8709186783   -1.1343651510   -0.3377229397
C       -0.4203425068   -1.3505712322   -0.6857518687
C       -1.2646787353    0.3945757106   -0.0756394266
C       -0.5294488130    1.6751634927   -0.3302482062
N        0.8578515336    1.5212272429   -0.0477383863
H        2.4720919497    0.2965618849    0.5125544480
H        1.6071868174   -1.9366481924   -0.2453273442
H       -1.0123722913   -1.8133115161   -1.3908356550
H       -2.2738296309   -0.0104757458    0.0207473086
H       -0.8944208484    2.6915188580   -0.3498082167
C       -0.3413477421    0.1497129531    1.0933928923
H       -0.5581329960   -0.7264310957    1.7959124925
13   
From optimize.out: Frame 6 / 34, Energy=    -286.7147976360
C        1.4741627189    0.2481588995    0.0520931672
C        0.8413792404   -1.1122903629   -0.3407454253
C       -0.4470473633   -1.2956781767   -0.7105387314
C       -1.2197775551    0.3555638749   -0.0664580456
C       -0.5171056020    1.6492830310   -0.3440218290
N        0.8617079072    1.5284102487   -0.0487385041
H        2.4527757467    0.2869080065    0.5377021828
H        1.5582035797   -1.9302958824   -0.2420155954
H       -1.0357901972   -1.7434723655   -1.4303336548
H       -2.2209013055   -0.0672817999    0.0273582903
H       -0.9061144059    2.6542424169   -0.3897305473
C       -0.3142066143    0.1468621919    1.1214462644
H       -0.5272861497   -0.7204100821    1.8339824282
13   
From optimize.out: Frame 5 / 34, Energy=    -286.6920170815
C        1.4618008529    0.2532750080    0.0637214326
C        0.8118398026   -1.0902155748   -0.3437679109
C       -0.4737522199   -1.2407851212   -0.7353255941
C       -1.1748763749    0.3165520391   -0.0572766646
C       -0.5047623911    1.6234025693   -0.3577954519
N        0.8655642808    1.5355932546   -0.0497386219
H        2.4334595438    0.2772541281    0.5628499176
H        1.5092203421   -1.9239435724   -0.2387038466
H       -1.0592081031   -1.6736332150   -1.4698316547
H       -2.1679729801   -0.1240878540    0.0339692720
H       -0.9178079633    2.6169659758   -0.4296528779
C       -0.2870654865    0.1440114307    1.1494996365
H       -0.4964393033   -0.7143890685    1.8720523639
13   
From optimize.out: Frame 4 / 34, Energy=    -286.6659657553
C        1.4494389869    0.2583911166    0.0753496979
C        0.7823003648   -1.0681407867   -0.3467903966
C       -0.5004570765   -1.1858920658   -0.7601124568
C       -1.1299751947    0.2775402034   -0.0480952837
C       -0.4924191802    1.5975221077   -0.3715690748
N        0.8694206545    1.5427762604   -0.0507387396
H        2.4141433409    0.2676002498    0.5879976525
H        1.4602371045   -1.9175912624   -0.2353920978
H       -1.0826260091   -1.6037940644   -1.5093296546
H       -2.1150446547   -0.1808939080    0.0405802536
H       -0.9295015208    2.5796895348   -0.4695752085
C       -0.2599243587    0.1411606696    1.1775530086
H       -0.4655924570   -0.7083680549    1.9101222996
13   
From optimize.out: Frame 3 / 34, Energy=    -286.6361401641
C        1.4370771210    0.2635072252    0.0869779633
C        0.7527609270   -1.0460659986   -0.3498128822
C       -0.5271619331   -1.1309990103   -0.7848993195
C       -1.0850740145    0.2385283676   -0.0389139027
C       -0.4800759692    1.5716416460   -0.3853426976
N        0.8732770281    1.5499592662   -0.0517388574
H        2.3948271380    0.2579463714    0.6131453873
H        1.4112538668   -1.9112389524   -0.2320803490
H       -1.1060439150   -1.5339549139   -1.5488276545
H       -2.0621163293   -0.2376999621    0.0471912353
H       -0.9411950783    2.5424130937   -0.5094975390
C       -0.2327832308    0.1383099084    1.2056063808
H       -0.4347456106   -0.7023470412    1.9481922353
13   
From optimize.out: Frame 1 / 34, Energy=    -286.5637887220
C        1.4238492880    0.2667944707    0.0956700404
C        0.7369743276   -1.0288209627   -0.3539374904
C       -0.5359766950   -1.0811365454   -0.8128777693
C       -1.0571929700    0.2100653622   -0.0182305165
C       -0.4682808746    1.5438303825   -0.4024841461
N        0.8738416556    1.5514793721   -0.0657562233
H        2.3737624596    0.2537338752    0.6352584908
H        1.3791574801   -1.9063632259   -0.2285662484
H       -1.1069952410   -1.4719627833   -1.5945457701
H       -2.0370862891   -0.2564933605    0.0732464594
H       -0.9448766383    2.5053863938   -0.5535444954
C       -0.2132176355    0.1202592578    1.2369507845
H       -0.4239588674   -0.7067722365    1.9888168842
13   
C5H5N+CH->C6H6N atoms 1-13 frame 104 charge -0.000 sz -1.000 sz^2 0.527
C        1.4090427415    0.2667475819    0.0990092582
C        0.7462600348   -1.0203808747   -0.3600713385
C       -0.5121766675   -1.0404451697   -0.8466746870
C       -1.0603407242    0.2008335509    0.0234217628
C       -0.4574850310    1.5124991435   -0.4257653565
N        0.8684052189    1.5426756482   -0.1035048671
H        2.3495101981    0.2594413673    0.6518392668
H        1.3778469054   -1.9041794059   -0.2246832475
H       -1.0669885511   -1.4242762734   -1.6516035557
H       -2.0629166116   -0.2059872501    0.1347497843
H       -0.9339518132    2.4688149881   -0.6051109088
C       -0.2074627217    0.0744982342    1.2742949499
H       -0.4497429784   -0.7302415403    2.0340989392
13   
C5H5N+CH->C6H6N atoms 1-13 frame 105 charge +0.000 sz -1.000 sz^2 0.523
C        1.3942349232    0.2667466985    0.1023283454
C        0.7555128508   -1.0119836303   -0.3660048886
C       -0.4885440213   -1.0000623652   -0.8799561362
C       -1.0634618894    0.1918004868    0.0647537368
C       -0.4467175487    1.4814693247   -0.4489247479
N        0.8629464824    1.5339499075   -0.1411473586
H        2.3253580656    0.2652098697    0.6682187992
H        1.3766326696   -1.9019525638   -0.2206737264
H       -1.0272733490   -1.3770917195   -1.7079563453
H       -2.0886389963   -0.1554166192    0.1958227191
H       -0.9229955792    2.4326194781   -0.6563183683
C       -0.2016781354    0.0286896654    1.3111752064
H       -0.4753754721   -0.7539785326    2.0786827645
13   
C5H5N+CH->C6H6N atoms 1-13 frame 106 charge -0.000 sz -1.000 sz^2 0.519
C        1.3792082616    0.2746617633    0.1021836468
C        0.7591062454   -1.0109582895   -0.3374740764
C       -0.4937119048   -1.0127739649   -0.8245433005
C       -1.0620080188    0.2169649276    0.0509722529
C       -0.4408300787    1.5023034978   -0.4511232899
N        0.8536507295    1.5386423595   -0.1605247219
H        2.3184346461    0.2814761247    0.6499712709
H        1.3919950220   -1.8923231229   -0.1948944448
H       -1.0377131083   -1.4162764083   -1.6430037424
H       -2.0957889949   -0.0937442518    0.1828404310
H       -0.9066349783    2.4611025965   -0.6457622691
C       -0.1907879544   -0.0252997719    1.2682328027
H       -0.4749198665   -0.8237754603    2.0031254409
13   
C5H5N+CH->C6H6N atoms 1-13 frame 108 charge +0.000 sz -1.000 sz^2 0.505
C        1.3641815999    0.2825768282    0.1020389482
C        0.7626996400   -1.0099329487   -0.3089432642
C       -0.4988797883   -1.0254855646   -0.7691304647
C       -1.0605541481    0.2421293685    0.0371907690
C       -0.4349426086    1.5231376709   -0.4533218319
N        0.8443549766    1.5433348116   -0.1799020852
H        2.3115112267    0.2977423798    0.6317237425
H        1.4073573744   -1.8826936819   -0.1691151632
H       -1.0481528676   -1.4554610971   -1.5780511396
H       -2.1029389935   -0.0320718843    0.1698581428
H       -0.8902743773    2.4895857150   -0.6352061700
C       -0.1798977733   -0.0792892093    1.2252903990
H       -0.4744642609   -0.8935723879    1.9275681174
13   
C5H5N+CH->C6H6N atoms 1-13 frame 109 charge +0.000 sz -1.000 sz^2 0.500
C        1.3491549383    0.2904918931    0.1018942496
C        0.7662930346   -1.0089076079   -0.2804124520
C       -0.5040476719   -1.0381971643   -0.7137176290
C       -1.0591002774    0.2672938093    0.0234092851
C       -0.4290551386    1.5439718440   -0.4555203739
N        0.8350592236    1.5480272636   -0.1992794485
H        2.3045878072    0.3140086349    0.6134762141
H        1.4227197268   -1.8730642410   -0.1433358816
H       -1.0585926268   -1.4946457859   -1.5130985367
H       -2.1100889921    0.0296004832    0.1568758547
H       -0.8739137763    2.5180688334   -0.6246500708
C       -0.1690075923   -0.1332786467    1.1823479953
H       -0.4740086552   -0.9633693155    1.8520107938
13   
C5H5N+CH->C6H6N atoms 1-13 frame 110 charge -0.000 sz -1.000 sz^2 0.501
C        1.3341282767    0.2984069580    0.1017495510
C        0.7698864292   -1.0078822671   -0.2518816398
C       -0.5092155554   -1.0509087640   -0.6583047932
C       -1.0576464068    0.2924582501    0.0096278012
C       -0.4231676685    1.5648060171   -0.4577189160
N        0.8257634707    1.5527197157   -0.2186568119
H        2.2976643878    0.3302748899    0.5952286857
H        1.4380820793   -1.8634348000   -0.1175566000
H       -1.0690323861   -1.5338304747   -1.4481459338
H       -2.1172389908    0.0912728506    0.1438935665
H       -0.8575531753    2.5465519518   -0.6140939717
C       -0.1581174112   -0.1872680841    1.1394055916
H       -0.4735530496   -1.0331662432    1.7764534702
13   
C5H5N+CH->C6H6N atoms 1-13 frame 111 charge +0.000 sz -1.000 sz^2 0.507
C        1.3191016150    0.3063220228    0.1016048524
C        0.7734798238   -1.0068569264   -0.2233508276
C       -0.5143834389   -1.0636203637   -0.6028919574
C       -1.0561925361    0.3176226909   -0.0041536827
C       -0.4172801985    1.5856401902   -0.4599174580
N        0.8164677178    1.5574121677   -0.2380341752
H        2.2907409683    0.3465411450    0.5769811573
H        1.4534444317   -1.8538053591   -0.0917773184
H       -1.0794721454   -1.5730151635   -1.3831933309
H       -2.1243889894    0.1529452181    0.1309112784
H       -0.8411925743    2.5750350702   -0.6035378725
C       -0.1472272302   -0.2412575215    1.0964631879
H       -0.4730974439   -1.1029631708    1.7008961467
13   
C5H5N+CH->C6H6N atoms 1-13 frame 112 charge +0.000 sz -1.000 sz^2 0.520
C        1.2976224770    0.2975342584    0.1164578218
C        0.7577180951   -1.0132443278   -0.2247449938
C       -0.5218390021   -1.0637708858   -0.6351474286
C       -1.0505401482    0.3190622355    0.0070384802
C       -0.4216822661    1.5807301391   -0.4666907305
N        0.8092931639    1.5509311795   -0.2379855747
H        2.2603489624    0.3316953330    0.6071574605
H        1.4322296064   -1.8624946328   -0.0843254291
H       -1.0637220676   -1.5726761201   -1.4306449065
H       -2.1185244938    0.1607237604    0.1547285656
H       -0.8486371898    2.5678392466   -0.6174862903
C       -0.1144064722   -0.2220562727    1.0954530142
H       -0.4178606651   -1.0742739134    1.7161900111
13   
C5H5N+CH->C6H6N atoms 1-13 frame 114 charge +0.000 sz -1.000 sz^2 0.555
C        1.2742497762    0.2838448322    0.1357120512
C        0.7362763546   -1.0218070946   -0.2349210329
C       -0.5299659146   -1.0602351967   -0.6931303010
C       -1.0436556511    0.3135394018    0.0255594836
C       -0.4291039319    1.5682651116   -0.4748065170
N        0.8027411033    1.5411712003   -0.2322361733
H        2.2230697955    0.3077192816    0.6515443648
H        1.4002807341   -1.8765597709   -0.0822519507
H       -1.0402862425   -1.5607383250   -1.5110829457
H       -2.1088407263    0.1526864610    0.1893451654
H       -0.8630677548    2.5501729748   -0.6386258763
C       -0.0751499020   -0.1813762681    1.1067483970
H       -0.3465476407   -1.0166826080    1.7581453347
13   
C5H5N+CH->C6H6N atoms 1-13 frame 115 charge -0.000 sz -1.000 sz^2 0.576
C        1.2508770753    0.2701554061    0.1549662807
C        0.7148346140   -1.0303698614   -0.2450970719
C       -0.5380928271   -1.0566995077   -0.7511131734
C       -1.0367711539    0.3080165680    0.0440804869
C       -0.4365255977    1.5558000841   -0.4829223034
N        0.7961890428    1.5314112212   -0.2264867718
H        2.1857906286    0.2837432301    0.6959312691
H        1.3683318618   -1.8906249089   -0.0801784723
H       -1.0168504174   -1.5488005299   -1.5915209848
H       -2.0991569587    0.1446491616    0.2239617652
H       -0.8774983197    2.5325067030   -0.6597654622
C       -0.0358933318   -0.1406962634    1.1180437798
H       -0.2752346162   -0.9590913026    1.8001006582
13   
C5H5N+CH->C6H6N atoms 1-13 frame 116 charge +0.000 sz -1.000 sz^2 0.609
C        1.2275043745    0.2564659799    0.1742205102
C        0.6933928735   -1.0389326282   -0.2552731110
C       -0.5462197395   -1.0531638186   -0.8090960458
C       -1.0298866567    0.3024937342    0.0626014902
C       -0.4439472635    1.5433350566   -0.4910380899
N        0.7896369822    1.5216512420   -0.2207373704
H        2.1485114617    0.2597671787    0.7403181735
H        1.3363829894   -1.9046900470   -0.0781049939
H       -0.9934145923   -1.5368627348   -1.6719590240
H       -2.0894731911    0.1366118621    0.2585783649
H       -0.8919288847    2.5148404312   -0.6809050482
C        0.0033632383   -0.1000162588    1.1293391627
H       -0.2039215918   -0.9014999972    1.8420559818
13   
C5H5N+CH->C6H6N atoms 1-13 frame 117 charge -0.000 sz -1.000 sz^2 0.648
C        1.2041316737    0.2427765537    0.1934747397
C        0.6719511330   -1.0474953950   -0.2654491501
C       -0.5543466520   -1.0496281296   -0.8670789183
C       -1.0230021596    0.2969709004    0.0811224935
C       -0.4513689293    1.5308700291   -0.4991538764
N        0.7830849217    1.5118912629   -0.2149879690
H        2.1112322948    0.2357911272    0.7847050778
H        1.3044341171   -1.9187551851   -0.0760315155
H       -0.9699787673   -1.5249249397   -1.7523970631
H       -2.0797894235    0.1285745627    0.2931949647