13   
Frame   0 IRC: Energy =  -286.8735100000 ; +0.0000 kcal/mol
C        0.0259220000   -0.0903790000    0.0000000000
C       -0.1473860000    0.0446070000   -0.0000000000
C       -0.1279200000    0.0956010000   -0.0000000000
C        0.0090410000   -0.0612840000    0.0000000000
C       -0.0913280000   -0.0316040000   -0.0000000000
N       -0.2041660000    0.0260300000   -0.0000000000
H        0.1294150000    0.0035920000    0.0000000000
H        0.1388740000    0.0007360000   -0.0000000000
H        0.1384430000    0.0001140000   -0.0000000000
H        0.1247840000    0.0034470000    0.0000000000
H        0.1372960000   -0.0000940000   -0.0000000000
C       -0.2717660000    1.0354920000    0.0000000000
H        0.1387910000   -0.0262590000    0.0000000000
13   
Frame   1 IRC: Energy =  -286.8734950000 ; +0.0094 kcal/mol
C        0.0252850000   -0.0903360000    0.0000000000
C       -0.1470610000    0.0440030000   -0.0000000000
C       -0.1282030000    0.0962860000   -0.0000000000
C        0.0092040000   -0.0613410000    0.0000000000
C       -0.0910380000   -0.0317470000   -0.0000000000
N       -0.2042610000    0.0261960000   -0.0000000000
H        0.1294770000    0.0036000000    0.0000000000
H        0.1388530000    0.0007430000   -0.0000000000
H        0.1384020000    0.0001030000   -0.0000000000
H        0.1248130000    0.0034440000    0.0000000000
H        0.1373440000   -0.0000850000   -0.0000000000
C       -0.2716040000    1.0353580000    0.0000000000
H        0.1387920000   -0.0262240000    0.0000000000
13   
Frame   2 IRC: Energy =  -286.8734920000 ; +0.0113 kcal/mol
C        0.0253030000   -0.0903560000    0.0000000000
C       -0.1469530000    0.0438980000   -0.0000000000
C       -0.1282370000    0.0963670000   -0.0000000000
C        0.0092580000   -0.0613290000    0.0000000000
C       -0.0910490000   -0.0318160000   -0.0000000000
N       -0.2042310000    0.0262840000   -0.0000000000
H        0.1295220000    0.0036050000    0.0000000000
H        0.1388560000    0.0007460000   -0.0000000000
H        0.1383800000    0.0001070000   -0.0000000000
H        0.1248050000    0.0034400000    0.0000000000
H        0.1373480000   -0.0000840000   -0.0000000000
C       -0.2717830000    1.0353250000    0.0000000000
H        0.1387830000   -0.0261880000    0.0000000000
13   
Frame   3 IRC: Energy =  -286.8734420000 ; +0.0427 kcal/mol
C        0.0241660000   -0.0901610000    0.0000000000
C       -0.1471390000    0.0425430000   -0.0000000000
C       -0.1285010000    0.0982120000   -0.0000000000
C        0.0096090000   -0.0614720000    0.0000000000
C       -0.0905170000   -0.0320260000   -0.0000000000
N       -0.2044910000    0.0264420000   -0.0000000000
H        0.1295230000    0.0036260000    0.0000000000
H        0.1388910000    0.0007880000   -0.0000000000
H        0.1384060000    0.0000060000   -0.0000000000
H        0.1248740000    0.0034390000    0.0000000000
H        0.1373190000   -0.0000660000   -0.0000000000
C       -0.2709630000    1.0348110000    0.0000000000
H        0.1388230000   -0.0261420000    0.0000000000
13   
Frame   4 IRC: Energy =  -286.8734320000 ; +0.0489 kcal/mol
C        0.0245310000   -0.0901630000    0.0000000000
C       -0.1474290000    0.0423650000   -0.0000000000
C       -0.1284350000    0.0986250000   -0.0000000000
C        0.0096650000   -0.0614900000    0.0000000000
C       -0.0905340000   -0.0321090000   -0.0000000000
N       -0.2045170000    0.0265040000   -0.0000000000
H        0.1295710000    0.0036490000    0.0000000000
H        0.1389250000    0.0008010000   -0.0000000000
H        0.1384130000   -0.0000130000   -0.0000000000
H        0.1248700000    0.0034390000    0.0000000000
H        0.1373040000   -0.0000640000   -0.0000000000
C       -0.2711930000    1.0345870000    0.0000000000
H        0.1388300000   -0.0261300000    0.0000000000
13   
Frame   5 IRC: Energy =  -286.8733240000 ; +0.1167 kcal/mol
C        0.0225400000   -0.0899710000    0.0000000000
C       -0.1469080000    0.0404730000   -0.0000000000
C       -0.1290420000    0.1007560000   -0.0000000000
C        0.0102770000   -0.0616720000    0.0000000000
C       -0.0898670000   -0.0324610000   -0.0000000000
N       -0.2047640000    0.0268940000   -0.0000000000
H        0.1296310000    0.0036590000    0.0000000000
H        0.1389210000    0.0008480000   -0.0000000000
H        0.1383750000   -0.0001030000   -0.0000000000
H        0.1249690000    0.0034290000    0.0000000000
H        0.1373270000   -0.0000400000   -0.0000000000
C       -0.2703000000    1.0342630000    0.0000000000
H        0.1388400000   -0.0260760000    0.0000000000
13   
Frame   6 IRC: Energy =  -286.8733020000 ; +0.1305 kcal/mol
C        0.0230270000   -0.0900100000    0.0000000000
C       -0.1471690000    0.0401900000   -0.0000000000
C       -0.1290420000    0.1011110000   -0.0000000000
C        0.0105290000   -0.0616500000    0.0000000000
C       -0.0900790000   -0.0326510000   -0.0000000000
N       -0.2047300000    0.0271260000   -0.0000000000
H        0.1297370000    0.0036890000    0.0000000000
H        0.1389450000    0.0008620000   -0.0000000000
H        0.1383510000   -0.0001100000   -0.0000000000
H        0.1249850000    0.0034250000    0.0000000000
H        0.1373540000   -0.0000340000   -0.0000000000
C       -0.2707570000    1.0340450000    0.0000000000
H        0.1388490000   -0.0259930000    0.0000000000
13   
Frame   7 IRC: Energy =  -286.8732070000 ; +0.1901 kcal/mol
C        0.0214710000   -0.0898160000    0.0000000000
C       -0.1469790000    0.0390190000   -0.0000000000
C       -0.1293100000    0.1026870000   -0.0000000000
C        0.0107180000   -0.0618300000    0.0000000000
C       -0.0893820000   -0.0327260000   -0.0000000000
N       -0.2049940000    0.0271350000   -0.0000000000
H        0.1296670000    0.0036860000    0.0000000000
H        0.1389780000    0.0008930000   -0.0000000000
H        0.1383970000   -0.0002070000   -0.0000000000
H        0.1250280000    0.0034230000    0.0000000000
H        0.1372770000   -0.0000230000   -0.0000000000
C       -0.2697290000    1.0338020000    0.0000000000
H        0.1388570000   -0.0260440000    0.0000000000
13   
Frame   8 IRC: Energy =  -286.8731650000 ; +0.2165 kcal/mol
C        0.0224070000   -0.0897540000    0.0000000000
C       -0.1477900000    0.0385240000   -0.0000000000
C       -0.1293170000    0.1040530000   -0.0000000000
C        0.0109670000   -0.0619740000    0.0000000000
C       -0.0895430000   -0.0329140000   -0.0000000000
N       -0.2051390000    0.0272600000   -0.0000000000
H        0.1296950000    0.0037320000    0.0000000000
H        0.1390250000    0.0009230000   -0.0000000000
H        0.1384170000   -0.0002590000   -0.0000000000
H        0.1250290000    0.0034500000    0.0000000000
H        0.1373330000   -0.0000140000   -0.0000000000
C       -0.2699630000    1.0331340000    0.0000000000
H        0.1388790000   -0.0261610000    0.0000000000
13   
Frame   9 IRC: Energy =  -286.8729620000 ; +0.3439 kcal/mol
C        0.0194740000   -0.0896810000    0.0000000000
C       -0.1464430000    0.0365800000   -0.0000000000
C       -0.1300600000    0.1054150000   -0.0000000000
C        0.0117140000   -0.0620480000    0.0000000000
C       -0.0887780000   -0.0332860000   -0.0000000000
N       -0.2051920000    0.0277990000   -0.0000000000
H        0.1298770000    0.0037260000    0.0000000000
H        0.1390300000    0.0009670000   -0.0000000000
H        0.1383520000   -0.0003130000   -0.0000000000
H        0.1251730000    0.0034030000    0.0000000000
H        0.1373120000    0.0000080000   -0.0000000000
C       -0.2693290000    1.0333800000    0.0000000000
H        0.1388680000   -0.0259520000    0.0000000000
13   
Frame  10 IRC: Energy =  -286.8729060000 ; +0.3790 kcal/mol
C        0.0195050000   -0.0897120000    0.0000000000
C       -0.1463570000    0.0361120000   -0.0000000000
C       -0.1303080000    0.1055810000   -0.0000000000
C        0.0121950000   -0.0619380000    0.0000000000
C       -0.0891980000   -0.0335830000   -0.0000000000
N       -0.2051660000    0.0282230000   -0.0000000000
H        0.1300110000    0.0037440000    0.0000000000
H        0.1389990000    0.0009880000   -0.0000000000
H        0.1382790000   -0.0003090000   -0.0000000000
H        0.1252510000    0.0033850000    0.0000000000
H        0.1374250000    0.0000190000   -0.0000000000
C       -0.2695200000    1.0332440000    0.0000000000
H        0.1388840000   -0.0257530000    0.0000000000
13   
Frame  11 IRC: Energy =  -286.8720700000 ; +0.9036 kcal/mol
C        0.0153110000   -0.0894920000    0.0000000000
C       -0.1464150000    0.0303510000   -0.0000000000
C       -0.1313180000    0.1138880000   -0.0000000000
C        0.0138250000   -0.0630070000    0.0000000000
C       -0.0877570000   -0.0345200000   -0.0000000000
N       -0.2055840000    0.0293460000   -0.0000000000
H        0.1299950000    0.0038220000    0.0000000000
H        0.1393610000    0.0011220000   -0.0000000000
H        0.1385020000   -0.0008290000   -0.0000000000
H        0.1255240000    0.0033680000    0.0000000000
H        0.1372160000    0.0000850000   -0.0000000000
C       -0.2674430000    1.0320480000    0.0000000000
H        0.1387830000   -0.0261830000    0.0000000000
13   
Frame  12 IRC: Energy =  -286.8719530000 ; +0.9770 kcal/mol
C        0.0163970000   -0.0895020000    0.0000000000
C       -0.1472710000    0.0295280000   -0.0000000000
C       -0.1312280000    0.1154740000   -0.0000000000
C        0.0143430000   -0.0631110000    0.0000000000
C       -0.0881770000   -0.0349970000   -0.0000000000
N       -0.2056630000    0.0298940000   -0.0000000000
H        0.1301140000    0.0038780000    0.0000000000
H        0.1393800000    0.0011690000   -0.0000000000
H        0.1384680000   -0.0008810000   -0.0000000000
H        0.1255590000    0.0033860000    0.0000000000
H        0.1373450000    0.0001040000   -0.0000000000
C       -0.2680510000    1.0312080000    0.0000000000
H        0.1387850000   -0.0261510000    0.0000000000
13   
Frame  13 IRC: Energy =  -286.8708180000 ; +1.6893 kcal/mol
C        0.0104400000   -0.0899620000    0.0000000000
C       -0.1452370000    0.0239260000   -0.0000000000
C       -0.1327780000    0.1221060000   -0.0000000000
C        0.0155930000   -0.0641900000    0.0000000000
C       -0.0871930000   -0.0357220000   -0.0000000000
N       -0.2053380000    0.0313320000   -0.0000000000
H        0.1301980000    0.0038630000    0.0000000000
H        0.1397740000    0.0012360000   -0.0000000000
H        0.1388000000   -0.0014090000   -0.0000000000
H        0.1259840000    0.0032950000    0.0000000000
H        0.1370710000    0.0001640000   -0.0000000000
C       -0.2659040000    1.0320950000    0.0000000000
H        0.1385910000   -0.0267330000    0.0000000000
13   
Frame  14 IRC: Energy =  -286.8705570000 ; +1.8530 kcal/mol
C        0.0108610000   -0.0901330000    0.0000000000
C       -0.1458060000    0.0221710000   -0.0000000000
C       -0.1330150000    0.1244260000   -0.0000000000
C        0.0163890000   -0.0644260000    0.0000000000
C       -0.0877800000   -0.0363830000   -0.0000000000
N       -0.2052300000    0.0323100000   -0.0000000000
H        0.1303990000    0.0039120000    0.0000000000
H        0.1398810000    0.0013260000   -0.0000000000
H        0.1388510000   -0.0014850000   -0.0000000000
H        0.1261110000    0.0032990000    0.0000000000
H        0.1372650000    0.0001960000   -0.0000000000
C       -0.2665220000    1.0314480000    0.0000000000
H        0.1385960000   -0.0266600000    0.0000000000
13   
Frame  15 IRC: Energy =  -286.8689060000 ; +2.8891 kcal/mol
C        0.0067620000   -0.0911830000    0.0000000000
C       -0.1444120000    0.0158010000   -0.0000000000
C       -0.1343010000    0.1334920000   -0.0000000000
C        0.0171110000   -0.0659600000    0.0000000000
C       -0.0877780000   -0.0372150000   -0.0000000000
N       -0.2047730000    0.0341630000   -0.0000000000
H        0.1302490000    0.0038700000    0.0000000000
H        0.1405920000    0.0013220000   -0.0000000000
H        0.1394620000   -0.0023530000   -0.0000000000
H        0.1265380000    0.0032090000    0.0000000000
H        0.1366050000    0.0002650000   -0.0000000000
C       -0.2643170000    1.0325740000    0.0000000000
H        0.1382620000   -0.0279850000    0.0000000000
13   
Frame  16 IRC: Energy =  -286.8666090000 ; +4.3304 kcal/mol
C        0.0038690000   -0.0931190000    0.0000000000
C       -0.1431700000    0.0043870000   -0.0000000000
C       -0.1359220000    0.1488910000   -0.0000000000
C        0.0179490000   -0.0684950000    0.0000000000
C       -0.0889560000   -0.0387910000   -0.0000000000
N       -0.2035550000    0.0378560000   -0.0000000000
H        0.1307600000    0.0038330000    0.0000000000
H        0.1413120000    0.0016110000   -0.0000000000
H        0.1405340000   -0.0034020000   -0.0000000000
H        0.1271020000    0.0031740000    0.0000000000
H        0.1362370000    0.0004020000   -0.0000000000
C       -0.2645220000    1.0338390000    0.0000000000
H        0.1383630000   -0.0301860000    0.0000000000
13   
Frame  17 IRC: Energy =  -286.8636190000 ; +6.2067 kcal/mol
C       -0.0068580000   -0.0937480000    0.0000000000
C       -0.1385060000   -0.0243330000   -0.0000000000
C       -0.1378820000    0.1903010000   -0.0000000000
C        0.0189150000   -0.0739900000    0.0000000000
C       -0.0867690000   -0.0402080000   -0.0000000000
N       -0.1996970000    0.0426430000   -0.0000000000
H        0.1316940000    0.0039430000    0.0000000000
H        0.1410960000    0.0030730000   -0.0000000000
H        0.1412880000   -0.0052700000   -0.0000000000
H        0.1279310000    0.0035860000    0.0000000000
H        0.1356690000    0.0006460000   -0.0000000000
C       -0.2665440000    1.0286750000    0.0000000000
H        0.1396630000   -0.0353190000    0.0000000000
13   
Frame  18 IRC: Energy =  -286.8592490000 ; +8.9489 kcal/mol
C       -0.0240850000   -0.0890970000    0.0000000000
C       -0.1307690000   -0.0810010000   -0.0000000000
C       -0.1400940000    0.2737340000   -0.0000000000
C        0.0186420000   -0.0819370000    0.0000000000
C       -0.0825840000   -0.0395880000   -0.0000000000
N       -0.1943990000    0.0488740000   -0.0000000000
H        0.1328360000    0.0041660000    0.0000000000
H        0.1404890000    0.0060620000   -0.0000000000
H        0.1415680000   -0.0087060000   -0.0000000000
H        0.1286390000    0.0045510000    0.0000000000
H        0.1350220000    0.0009970000   -0.0000000000
C       -0.2670130000    1.0022120000    0.0000000000
H        0.1417470000   -0.0402680000    0.0000000000
13   
Frame  19 IRC: Energy =  -286.8538300000 ; +12.3494 kcal/mol
C       -0.0501720000   -0.0749580000    0.0000000000
C       -0.1199770000   -0.1622610000   -0.0000000000
C       -0.1425690000    0.4081340000   -0.0000000000
C        0.0166750000   -0.0910600000    0.0000000000
C       -0.0787710000   -0.0337160000   -0.0000000000
N       -0.1888080000    0.0561300000   -0.0000000000
H        0.1343490000    0.0043660000    0.0000000000
H        0.1398830000    0.0098560000   -0.0000000000
H        0.1411360000   -0.0142480000   -0.0000000000
H        0.1290420000    0.0061890000    0.0000000000
H        0.1343060000    0.0013580000   -0.0000000000
C       -0.2590240000    0.9315580000    0.0000000000
H        0.1439310000   -0.0413470000    0.0000000000
13   
Frame  20 IRC: Energy =  -286.8492430000 ; +15.2278 kcal/mol
C       -0.0870910000   -0.0502680000    0.0000000000
C       -0.1100690000   -0.2295470000   -0.0000000000
C       -0.1432550000    0.5764040000   -0.0000000000
C        0.0112550000   -0.0987120000    0.0000000000
C       -0.0752420000   -0.0199610000   -0.0000000000
N       -0.1837700000    0.0617740000   -0.0000000000
H        0.1365060000    0.0044670000    0.0000000000
H        0.1395330000    0.0120060000   -0.0000000000
H        0.1400930000   -0.0215040000   -0.0000000000
H        0.1290870000    0.0084260000    0.0000000000
H        0.1334700000    0.0015650000   -0.0000000000
C       -0.2362730000    0.7911520000    0.0000000000
H        0.1457560000   -0.0358020000    0.0000000000
13   
Frame  21 IRC: Energy =  -286.8475240000 ; +16.3065 kcal/mol (Transition State)
C       -0.1331960000   -0.0210860000    0.0000000000
C       -0.1035500000   -0.2336970000   -0.0000000000
C       -0.1404940000    0.7285350000   -0.0000000000
C        0.0020920000   -0.1019110000    0.0000000000
C       -0.0699950000   -0.0023290000   -0.0000000000
N       -0.1798830000    0.0623750000   -0.0000000000
H        0.1389680000    0.0043300000    0.0000000000
H        0.1392030000    0.0103110000   -0.0000000000
H        0.1390350000   -0.0287860000   -0.0000000000
H        0.1290880000    0.0106040000    0.0000000000
H        0.1327110000    0.0015560000   -0.0000000000
C       -0.1998920000    0.5944870000    0.0000000000
H        0.1459140000   -0.0243900000    0.0000000000
13   
Frame  22 IRC: Energy =  -286.8489170000 ; +15.4324 kcal/mol
C       -0.1798210000    0.0037510000    0.0000000000
C       -0.0984530000   -0.1934330000   -0.0000000000
C       -0.1354110000    0.8375340000   -0.0000000000
C       -0.0120770000   -0.1027710000    0.0000000000
C       -0.0607100000    0.0115480000   -0.0000000000
N       -0.1769920000    0.0576640000   -0.0000000000
H        0.1412050000    0.0040440000    0.0000000000
H        0.1385960000    0.0068280000   -0.0000000000
H        0.1386090000   -0.0345810000   -0.0000000000
H        0.1292240000    0.0121360000    0.0000000000
H        0.1320600000    0.0015390000   -0.0000000000
C       -0.1600820000    0.4079080000    0.0000000000
H        0.1438530000   -0.0121670000    0.0000000000
13   
Frame  23 IRC: Energy =  -286.8518300000 ; +13.6044 kcal/mol
C       -0.2170700000    0.0226310000    0.0000000000
C       -0.0938640000   -0.1579480000   -0.0000000000
C       -0.1294160000    0.9101900000   -0.0000000000
C       -0.0318130000   -0.1043830000    0.0000000000
C       -0.0499900000    0.0189980000   -0.0000000000
N       -0.1758260000    0.0511720000   -0.0000000000
H        0.1430410000    0.0037670000    0.0000000000
H        0.1376490000    0.0042440000   -0.0000000000
H        0.1385710000   -0.0387840000   -0.0000000000
H        0.1296020000    0.0131120000    0.0000000000
H        0.1316460000    0.0015610000   -0.0000000000
C       -0.1229610000    0.2786740000    0.0000000000
H        0.1404310000   -0.0032330000    0.0000000000
13   
Frame  24 IRC: Energy =  -286.8544310000 ; +11.9723 kcal/mol
C       -0.2382610000    0.0369520000    0.0000000000
C       -0.0915170000   -0.1411390000   -0.0000000000
C       -0.1237190000    0.9572130000   -0.0000000000
C       -0.0525020000   -0.1065500000    0.0000000000
C       -0.0412460000    0.0223410000   -0.0000000000
N       -0.1756770000    0.0453480000   -0.0000000000
H        0.1442470000    0.0035660000    0.0000000000
H        0.1369590000    0.0030480000   -0.0000000000
H        0.1390080000   -0.0416280000   -0.0000000000
H        0.1299850000    0.0137700000    0.0000000000
H        0.1313060000    0.0016160000   -0.0000000000
C       -0.0953130000    0.2034250000    0.0000000000
H        0.1367290000    0.0020370000    0.0000000000
13   
Frame  25 IRC: Energy =  -286.8559380000 ; +11.0266 kcal/mol
C       -0.2430010000    0.0470340000    0.0000000000
C       -0.0982010000   -0.1372160000   -0.0000000000
C       -0.1189240000    0.9821880000   -0.0000000000
C       -0.0657960000   -0.1086230000    0.0000000000
C       -0.0381340000    0.0234430000   -0.0000000000
N       -0.1769940000    0.0416760000   -0.0000000000
H        0.1448400000    0.0034420000    0.0000000000
H        0.1367270000    0.0025950000   -0.0000000000
H        0.1389320000   -0.0430450000   -0.0000000000
H        0.1306220000    0.0143950000    0.0000000000
H        0.1311410000    0.0015640000   -0.0000000000
C       -0.0759530000    0.1681730000    0.0000000000
H        0.1347400000    0.0043740000    0.0000000000
13   
Frame  26 IRC: Energy =  -286.8563920000 ; +10.7417 kcal/mol
C       -0.2419340000    0.0472230000    0.0000000000
C       -0.0984090000   -0.1369130000   -0.0000000000
C       -0.1188790000    0.9840640000   -0.0000000000
C       -0.0660470000   -0.1089490000    0.0000000000
C       -0.0379620000    0.0226560000   -0.0000000000
N       -0.1771870000    0.0420710000   -0.0000000000
H        0.1445810000    0.0034900000    0.0000000000
H        0.1372200000    0.0025700000   -0.0000000000
H        0.1393280000   -0.0432090000   -0.0000000000
H        0.1306470000    0.0145050000    0.0000000000
H        0.1311820000    0.0016060000   -0.0000000000
C       -0.0772450000    0.1667540000    0.0000000000
H        0.1347040000    0.0041310000    0.0000000000
13   
Frame  27 IRC: Energy =  -286.8566650000 ; +10.5704 kcal/mol
C       -0.2446120000    0.0481620000    0.0000000000
C       -0.0999690000   -0.1362380000   -0.0000000000
C       -0.1192780000    0.9877940000   -0.0000000000
C       -0.0673280000   -0.1093570000    0.0000000000
C       -0.0364810000    0.0223190000   -0.0000000000
N       -0.1778130000    0.0415430000   -0.0000000000
H        0.1446090000    0.0035250000    0.0000000000
H        0.1372170000    0.0025500000   -0.0000000000
H        0.1390480000   -0.0432660000   -0.0000000000
H        0.1308220000    0.0147160000    0.0000000000
H        0.1311170000    0.0016220000   -0.0000000000
C       -0.0721880000    0.1623250000    0.0000000000
H        0.1348560000    0.0043050000    0.0000000000
13   
Frame  28 IRC: Energy =  -286.8569120000 ; +10.4154 kcal/mol
C       -0.2456320000    0.0493630000    0.0000000000
C       -0.0995780000   -0.1361280000   -0.0000000000
C       -0.1196950000    0.9896090000   -0.0000000000
C       -0.0687680000   -0.1097940000    0.0000000000
C       -0.0357220000    0.0228260000   -0.0000000000
N       -0.1776660000    0.0413670000   -0.0000000000
H        0.1444760000    0.0035750000    0.0000000000
H        0.1374590000    0.0025490000   -0.0000000000
H        0.1391470000   -0.0432970000   -0.0000000000
H        0.1307890000    0.0148760000    0.0000000000
H        0.1311600000    0.0016320000   -0.0000000000
C       -0.0706950000    0.1592470000    0.0000000000
H        0.1347260000    0.0041750000    0.0000000000
13   
Frame  29 IRC: Energy =  -286.8570660000 ; +10.3188 kcal/mol
C       -0.2478320000    0.0503880000    0.0000000000
C       -0.1002000000   -0.1359980000   -0.0000000000
C       -0.1203440000    0.9914440000   -0.0000000000
C       -0.0691070000   -0.1102040000    0.0000000000
C       -0.0344510000    0.0228760000   -0.0000000000
N       -0.1783190000    0.0409630000   -0.0000000000
H        0.1445120000    0.0036280000    0.0000000000
H        0.1374860000    0.0025780000   -0.0000000000
H        0.1389970000   -0.0432830000   -0.0000000000
H        0.1308960000    0.0151230000    0.0000000000
H        0.1310920000    0.0016440000   -0.0000000000
C       -0.0675130000    0.1566620000    0.0000000000
H        0.1347820000    0.0041790000    0.0000000000
13   
Frame  30 IRC: Energy =  -286.8571960000 ; +10.2372 kcal/mol
C       -0.2492550000    0.0516830000    0.0000000000
C       -0.0995150000   -0.1362160000   -0.0000000000
C       -0.1212730000    0.9924940000   -0.0000000000
C       -0.0701870000   -0.1107070000    0.0000000000
C       -0.0336800000    0.0238330000   -0.0000000000
N       -0.1781270000    0.0406960000   -0.0000000000
H        0.1444300000    0.0036700000    0.0000000000
H        0.1376240000    0.0026050000   -0.0000000000
H        0.1389650000   -0.0432060000   -0.0000000000
H        0.1308590000    0.0153120000    0.0000000000
H        0.1311140000    0.0016480000   -0.0000000000
C       -0.0658260000    0.1541570000    0.0000000000
H        0.1348710000    0.0040320000    0.0000000000
13   
Frame  31 IRC: Energy =  -286.8572640000 ; +10.1945 kcal/mol
C       -0.2506690000    0.0523790000    0.0000000000
C       -0.0996310000   -0.1362890000   -0.0000000000
C       -0.1216680000    0.9931310000   -0.0000000000
C       -0.0698640000   -0.1109590000    0.0000000000
C       -0.0331490000    0.0240090000   -0.0000000000
N       -0.1786340000    0.0405200000   -0.0000000000
H        0.1444560000    0.0037190000    0.0000000000
H        0.1376280000    0.0026450000   -0.0000000000
H        0.1389120000   -0.0431590000   -0.0000000000
H        0.1309090000    0.0154970000    0.0000000000
H        0.1310970000    0.0016460000   -0.0000000000
C       -0.0642240000    0.1528790000    0.0000000000
H        0.1348370000    0.0039840000    0.0000000000
13   
Frame  32 IRC: Energy =  -286.8573550000 ; +10.1374 kcal/mol
C       -0.2522400000    0.0538930000    0.0000000000
C       -0.0988220000   -0.1367860000   -0.0000000000
C       -0.1226980000    0.9935510000   -0.0000000000
C       -0.0703410000   -0.1115210000    0.0000000000
C       -0.0326180000    0.0252300000   -0.0000000000
N       -0.1786120000    0.0402590000   -0.0000000000
H        0.1443900000    0.0037580000    0.0000000000
H        0.1377080000    0.0026950000   -0.0000000000
H        0.1388550000   -0.0430000000   -0.0000000000
H        0.1308910000    0.0157480000    0.0000000000
H        0.1311330000    0.0016350000   -0.0000000000
C       -0.0626070000    0.1507230000    0.0000000000
H        0.1349610000    0.0038150000    0.0000000000
13   
Frame  33 IRC: Energy =  -286.8574260000 ; +10.0929 kcal/mol
C       -0.2541800000    0.0552730000    0.0000000000
C       -0.0983390000   -0.1372450000   -0.0000000000
C       -0.1235280000    0.9940000000   -0.0000000000
C       -0.0696560000   -0.1119640000    0.0000000000
C       -0.0321210000    0.0259980000   -0.0000000000
N       -0.1790220000    0.0399510000   -0.0000000000
H        0.1443950000    0.0038290000    0.0000000000
H        0.1377250000    0.0027770000   -0.0000000000
H        0.1387930000   -0.0428350000   -0.0000000000
H        0.1309160000    0.0160190000    0.0000000000
H        0.1310910000    0.0016280000   -0.0000000000
C       -0.0609920000    0.1488780000    0.0000000000
H        0.1349180000    0.0036900000    0.0000000000
13   
Frame  34 IRC: Energy =  -286.8574530000 ; +10.0759 kcal/mol
C       -0.2545470000    0.0560010000    0.0000000000
C       -0.0979060000   -0.1376110000   -0.0000000000
C       -0.1240100000    0.9939020000   -0.0000000000
C       -0.0699190000   -0.1122480000    0.0000000000
C       -0.0318840000    0.0267130000   -0.0000000000
N       -0.1788270000    0.0398100000   -0.0000000000
H        0.1443570000    0.0038330000    0.0000000000
H        0.1377410000    0.0027990000   -0.0000000000
H        0.1387600000   -0.0427310000   -0.0000000000
H        0.1308890000    0.0161190000    0.0000000000
H        0.1310770000    0.0016260000   -0.0000000000
C       -0.0607430000    0.1481730000    0.0000000000
H        0.1350120000    0.0036130000    0.0000000000
13   
Frame  35 IRC: Energy =  -286.8577190000 ; +9.9090 kcal/mol
C       -0.2642330000    0.0646870000    0.0000000000
C       -0.0928900000   -0.1412500000   -0.0000000000
C       -0.1298580000    0.9948810000   -0.0000000000
C       -0.0660220000   -0.1150690000    0.0000000000
C       -0.0295900000    0.0327530000   -0.0000000000
N       -0.1792140000    0.0379600000   -0.0000000000
H        0.1442450000    0.0040770000    0.0000000000
H        0.1377670000    0.0032820000   -0.0000000000
H        0.1381650000   -0.0410740000   -0.0000000000
H        0.1309430000    0.0176650000    0.0000000000
H        0.1307700000    0.0016210000   -0.0000000000
C       -0.0552770000    0.1376450000    0.0000000000
H        0.1351940000    0.0028220000    0.0000000000
13   
Frame  36 IRC: Energy =  -286.8577420000 ; +9.8946 kcal/mol
C       -0.2640510000    0.0649620000    0.0000000000
C       -0.0925150000   -0.1414770000   -0.0000000000
C       -0.1297690000    0.9938340000   -0.0000000000
C       -0.0659260000   -0.1150510000    0.0000000000
C       -0.0305320000    0.0334150000   -0.0000000000
N       -0.1792930000    0.0381210000   -0.0000000000
H        0.1442210000    0.0040860000    0.0000000000
H        0.1378180000    0.0032800000   -0.0000000000
H        0.1382270000   -0.0409540000   -0.0000000000
H        0.1309420000    0.0177070000    0.0000000000
H        0.1309440000    0.0015740000   -0.0000000000
C       -0.0552870000    0.1377390000    0.0000000000
H        0.1352190000    0.0027640000    0.0000000000
13   
Frame  37 IRC: Energy =  -286.8577820000 ; +9.8695 kcal/mol
C       -0.2643990000    0.0663380000    0.0000000000
C       -0.0915290000   -0.1422920000   -0.0000000000
C       -0.1302790000    0.9925860000   -0.0000000000
C       -0.0652150000   -0.1153530000    0.0000000000
C       -0.0310380000    0.0348920000   -0.0000000000
N       -0.1789990000    0.0379580000   -0.0000000000
H        0.1441690000    0.0040900000    0.0000000000
H        0.1377950000    0.0033380000   -0.0000000000
H        0.1381110000   -0.0405310000   -0.0000000000
H        0.1309210000    0.0178830000    0.0000000000
H        0.1309440000    0.0015510000   -0.0000000000
C       -0.0557280000    0.1369030000    0.0000000000
H        0.1352480000    0.0026370000    0.0000000000
13   
Frame  38 IRC: Energy =  -286.8578290000 ; +9.8400 kcal/mol
C       -0.2657950000    0.0675710000    0.0000000000
C       -0.0905200000   -0.1428810000   -0.0000000000
C       -0.1309560000    0.9922930000   -0.0000000000
C       -0.0632360000   -0.1156750000    0.0000000000
C       -0.0315440000    0.0356390000   -0.0000000000
N       -0.1791060000    0.0378840000   -0.0000000000
H        0.1441820000    0.0041140000    0.0000000000
H        0.1377410000    0.0034250000   -0.0000000000
H        0.1379870000   -0.0400990000   -0.0000000000
H        0.1309800000    0.0181260000    0.0000000000
H        0.1309020000    0.0015490000   -0.0000000000
C       -0.0558050000    0.1355100000    0.0000000000
H        0.1351710000    0.0025430000    0.0000000000
13   