13   
Frame   0 IRC: Energy =  -286.8735100000 ; +0.0000 kcal/mol
C        1.1275036404    0.1918961657    0.4734165392
C        0.8557349672   -0.9780042488   -0.4865106154
C       -0.4691580315   -0.9890670536   -0.7199582506
C       -1.0737200572    0.1679043627    0.1038091570
C       -0.4313808012    1.4532337658   -0.4540703786
N        0.8314113192    1.4878430686   -0.2628465899
H        2.1022023700    0.2174366231    0.9557406162
H        1.6130165960   -1.6353953739   -0.8983655343
H       -1.0316788945   -1.6451399926   -1.3746742822
H       -2.1539214513    0.1642681282    0.2449304696
H       -0.9673872875    2.2451143083   -0.9725999562
C       -0.1362539921    0.0377689185    1.3094707556
H       -0.2663683774   -0.7178586718    2.0816580698
13   
Frame   1 IRC: Energy =  -286.8734950000 ; +0.0094 kcal/mol
C        1.1278735168    0.1917988727    0.4726546992
C        0.8556153707   -0.9785510576   -0.4858147303
C       -0.4691176458   -0.9885720116   -0.7204685327
C       -1.0735862970    0.1677288334    0.1030715180
C       -0.4322333610    1.4540739760   -0.4535057163
N        0.8308850794    1.4879118688   -0.2638085411
H        2.1030772146    0.2190421874    0.9542968995
H        1.6119308857   -1.6398012154   -0.8924175071
H       -1.0309145212   -1.6424159903   -1.3776754794
H       -2.1537045493    0.1635221501    0.2452181886
H       -0.9693030722    2.2461668469   -0.9709509619
C       -0.1359505898    0.0375850245    1.3089459238
H       -0.2645720309   -0.7184894848    2.0804542399
13   
Frame   2 IRC: Energy =  -286.8734920000 ; +0.0113 kcal/mol
C        1.1278627805    0.1915786937    0.4725566742
C        0.8555391205   -0.9785105034   -0.4857415749
C       -0.4690872502   -0.9885531802   -0.7204782512
C       -1.0737761458    0.1675591065    0.1029072148
C       -0.4323143211    1.4542322312   -0.4532916356
N        0.8308300674    1.4879023340   -0.2639617023
H        2.1033007849    0.2193038706    0.9541383589
H        1.6117693935   -1.6403953324   -0.8915714756
H       -1.0307725010   -1.6419686362   -1.3780404647
H       -2.1535241935    0.1634399934    0.2452530644
H       -0.9696148417    2.2463479413   -0.9707884913
C       -0.1358730616    0.0378295722    1.3085365107
H       -0.2643398319   -0.7187660906    2.0804817726
13   
Frame   3 IRC: Energy =  -286.8734420000 ; +0.0427 kcal/mol
C        1.1282277775    0.1929760524    0.4711323307
C        0.8553091223   -0.9804011069   -0.4837694947
C       -0.4687306321   -0.9869626807   -0.7227536437
C       -1.0733312637    0.1679922922    0.1029275887
C       -0.4339677098    1.4547062627   -0.4532168148
N        0.8295007815    1.4885441997   -0.2657176349
H        2.1041428362    0.2219666906    0.9508235892
H        1.6100595204   -1.6497775472   -0.8801954669
H       -1.0295205434   -1.6364286502   -1.3853146155
H       -2.1533844229    0.1615800244    0.2459367063
H       -0.9729135701    2.2477220557   -0.9671722383
C       -0.1344807010    0.0378452280    1.3084944428
H       -0.2609111949   -0.7197628207    2.0788252511
13   
Frame   4 IRC: Energy =  -286.8734320000 ; +0.0489 kcal/mol
C        1.1278748138    0.1933072475    0.4709832944
C        0.8553010541   -0.9806211982   -0.4833806983
C       -0.4686211740   -0.9867310065   -0.7231257514
C       -1.0735388622    0.1681938029    0.1032554923
C       -0.4341467668    1.4545814682   -0.4532584371
N        0.8294096569    1.4886219664   -0.2658687130
H        2.1043490136    0.2222915667    0.9503997083
H        1.6099123520   -1.6511043930   -0.8787728850
H       -1.0294059358   -1.6357586662   -1.3863343856
H       -2.1532197436    0.1613092686    0.2459618251
H       -0.9733566943    2.2479276798   -0.9666806169
C       -0.1340227295    0.0381268919    1.3079514338
H       -0.2605349842   -0.7201446282    2.0788697333
13   
Frame   5 IRC: Energy =  -286.8733240000 ; +0.1167 kcal/mol
C        1.1289064614    0.1938976218    0.4691793667
C        0.8547712003   -0.9826776451   -0.4811497819
C       -0.4683571391   -0.9849101469   -0.7255518893
C       -1.0730798449    0.1679456815    0.1024404081
C       -0.4363546128    1.4557825633   -0.4524540759
N        0.8276647076    1.4890935523   -0.2682946913
H        2.1059382174    0.2257632531    0.9462340216
H        1.6071557669   -1.6627088853   -0.8635116955
H       -1.0273822974   -1.6274525230   -1.3961602972
H       -2.1528846328    0.1587400509    0.2471377170
H       -0.9779924620    2.2494415416   -0.9627617566
C       -0.1326715302    0.0379588390    1.3076706126
H       -0.2557138343   -0.7208739032    2.0772220618
13   
Frame   6 IRC: Energy =  -286.8733020000 ; +0.1305 kcal/mol
C        1.1283826137    0.1937283514    0.4687330813
C        0.8548852097   -0.9828708416   -0.4807817439
C       -0.4684243564   -0.9846390307   -0.7258629529
C       -1.0733211089    0.1677417659    0.1023235545
C       -0.4367754504    1.4558446087   -0.4521620258
N        0.8277109631    1.4892070959   -0.2686046096
H        2.1065490759    0.2263090679    0.9458085095
H        1.6067263035   -1.6643266147   -0.8613252402
H       -1.0270561037   -1.6262091822   -1.3975063618
H       -2.1526221043    0.1583952396    0.2472846713
H       -0.9786994379    2.2497191605   -0.9622942675
C       -0.1322570082    0.0385054395    1.3069724371
H       -0.2550985961   -0.7214050603    2.0774149479
13   
Frame   7 IRC: Energy =  -286.8732070000 ; +0.1901 kcal/mol
C        1.1291545513    0.1950578013    0.4678926763
C        0.8543035226   -0.9844100559   -0.4791801038
C       -0.4678614904   -0.9832522221   -0.7278810952
C       -1.0728238970    0.1681708530    0.1026016621
C       -0.4379288457    1.4561041236   -0.4521915750
N        0.8261925558    1.4895427230   -0.2700219963
H        2.1069012847    0.2281969580    0.9428109577
H        1.6051609228   -1.6718982751   -0.8518791726
H       -1.0259654995   -1.6211122209   -1.4041493218
H       -2.1525328310    0.1566174165    0.2479781083
H       -0.9813813822    2.2503989760   -0.9596217618
C       -0.1311715175    0.0381295889    1.3073630517
H       -0.2520473741   -0.7215456664    2.0762785704
13   
Frame   8 IRC: Energy =  -286.8731650000 ; +0.2165 kcal/mol
C        1.1283370227    0.1964957963    0.4679173209
C        0.8546840734   -0.9850324235   -0.4783383438
C       -0.4680277902   -0.9827304121   -0.7288636363
C       -1.0727618067    0.1687690116    0.1041033793
C       -0.4386118581    1.4557657476   -0.4527029337
N        0.8263496718    1.4892827825   -0.2700507007
H        2.1071707249    0.2286598656    0.9417566417
H        1.6047850390   -1.6745389761   -0.8490412338
H       -1.0257261490   -1.6196875751   -1.4064655491
H       -2.1523054700    0.1559674180    0.2479529166
H       -0.9823231392    2.2507505804   -0.9586914973
C       -0.1304088216    0.0379068581    1.3064443325
H       -0.2511614971   -0.7216086732    2.0759793036
13   
Frame   9 IRC: Energy =  -286.8729620000 ; +0.3439 kcal/mol
C        1.1300255407    0.1952261364    0.4654848922
C        0.8535236300   -0.9868589815   -0.4763365752
C       -0.4675602383   -0.9809907560   -0.7308362879
C       -1.0727320498    0.1676359770    0.1014701872
C       -0.4406877301    1.4575437895   -0.4508443991
N        0.8240764578    1.4902976548   -0.2729284150
H        2.1094379390    0.2321664847    0.9377575370
H        1.6013677632   -1.6858735064   -0.8325802203
H       -1.0232449159   -1.6099474380   -1.4169648106
H       -2.1519990275    0.1531338594    0.2495555570
H       -0.9872917403    2.2518891192   -0.9555068922
C       -0.1290955263    0.0382870615    1.3063268173
H       -0.2458201026   -0.7225094007    2.0754026098
13   
Frame  10 IRC: Energy =  -286.8729060000 ; +0.3790 kcal/mol
C        1.1300200901    0.1941744864    0.4647058239
C        0.8540694689   -0.9872288422   -0.4760165105
C       -0.4681561416   -0.9808599655   -0.7313008412
C       -1.0729322664    0.1671149021    0.1002507784
C       -0.4419220289    1.4581112593   -0.4502667595
N        0.8243622384    1.4907770487   -0.2735434747
H        2.1102185782    0.2329476149    0.9372305626
H        1.6004329627   -1.6876851467   -0.8293180131
H       -1.0225544262   -1.6078259703   -1.4186422133
H       -2.1518609104    0.1526524147    0.2499528342
H       -0.9880969895    2.2519288977   -0.9549404612
C       -0.1287214396    0.0390973822    1.3060844068
H       -0.2448591356   -0.7232040813    2.0758038675
13   
Frame  11 IRC: Energy =  -286.8720700000 ; +0.9036 kcal/mol
C        1.1303291092    0.1996099976    0.4607040679
C        0.8514302874   -0.9913304939   -0.4709458814
C       -0.4665983057   -0.9734189390   -0.7424201835
C       -1.0721447840    0.1678565900    0.1023075611
C       -0.4477233478    1.4594696020   -0.4483718067
N        0.8182117317    1.4931428287   -0.2761156115
H        2.1138899402    0.2374194764    0.9231212042
H        1.5915581463   -1.7191850313   -0.7843726839
H       -1.0166334270   -1.5851019689   -1.4494036130
H       -2.1507605022    0.1442178924    0.2536227183
H       -0.9996699856    2.2531543096   -0.9483106806
C       -0.1231808053    0.0370475015    1.3045286093
H       -0.2287080573   -0.7228817652    2.0756562998
13   
Frame  12 IRC: Energy =  -286.8719530000 ; +0.9770 kcal/mol
C        1.1296294932    0.2003181795    0.4606323147
C        0.8523719377   -0.9919460245   -0.4703229662
C       -0.4673699216   -0.9727257888   -0.7438094250
C       -1.0724617736    0.1678301824    0.1032665897
C       -0.4492572590    1.4599195904   -0.4486415289
N        0.8185571740    1.4931677362   -0.2760144444
H        2.1144144509    0.2377855194    0.9217755635
H        1.5905691197   -1.7219926524   -0.7801801312
H       -1.0160113510   -1.5829826735   -1.4521882574
H       -2.1503229312    0.1434469121    0.2537992091
H       -1.0005677578    2.2529996358   -0.9475195141
C       -0.1222069043    0.0378107149    1.3027663492
H       -0.2273442768   -0.7236313314    2.0764362411
13   
Frame  13 IRC: Energy =  -286.8708180000 ; +1.6893 kcal/mol
C        1.1312459809    0.2019973057    0.4552795977
C        0.8485416438   -0.9931037943   -0.4692862811
C       -0.4662111291   -0.9661610829   -0.7557077830
C       -1.0719582270    0.1667930843    0.1005367988
C       -0.4542106416    1.4624207573   -0.4437761523
N        0.8122499276    1.4973954066   -0.2763902183
H        2.1186412448    0.2411853401    0.9094722842
H        1.5804784120   -1.7473439196   -0.7356895808
H       -1.0105236168   -1.5639632994   -1.4795934027
H       -2.1495453297    0.1370443105    0.2591698429
H       -1.0100798509    2.2530920950   -0.9453627080
C       -0.1176607034    0.0327736188    1.3019881776
H       -0.2109677107   -0.7221298223    2.0793594249
13   
Frame  14 IRC: Energy =  -286.8705570000 ; +1.8530 kcal/mol
C        1.1310853785    0.2016441054    0.4543750221
C        0.8499067308   -0.9931554746   -0.4686629749
C       -0.4678344311   -0.9646094991   -0.7579529028
C       -1.0724445963    0.1660336040    0.0999937705
C       -0.4567021138    1.4637098796   -0.4432612797
N        0.8123345962    1.4981260478   -0.2761732108
H        2.1195851925    0.2418249961    0.9073215763
H        1.5785233420   -1.7516342996   -0.7277391248
H       -1.0095639130   -1.5607241944   -1.4844455253
H       -2.1489476877    0.1360053524    0.2600786379
H       -1.0113672847    2.2525184026   -0.9447908843
C       -0.1164080159    0.0332191903    1.3001779719
H       -0.2081671975   -0.7229581104    2.0810789238
13   
Frame  15 IRC: Energy =  -286.8689060000 ; +2.8891 kcal/mol
C        1.1305986021    0.2067935904    0.4493246722
C        0.8456769003   -0.9927650902   -0.4724061174
C       -0.4657614332   -0.9571930307   -0.7767366509
C       -1.0716045361    0.1654106495    0.1000004871
C       -0.4611974368    1.4639884188   -0.4380337098
N        0.8057451719    1.5021246930   -0.2724039930
H        2.1217090174    0.2456644279    0.8938137201
H        1.5676778614   -1.7750561180   -0.6791278351
H       -1.0061281963   -1.5460616109   -1.5126236469
H       -2.1476340414    0.1322810865    0.2678300283
H       -1.0176106760    2.2506237361   -0.9445498355
C       -0.1111121758    0.0239058813    1.2976849978
H       -0.1903590575   -0.7197166337    2.0872278830
13   
Frame  16 IRC: Energy =  -286.8666090000 ; +4.3304 kcal/mol
C        1.1319708357    0.2093327696    0.4425612610
C        0.8418298250   -0.9887742165   -0.4792775846
C       -0.4691037301   -0.9505550042   -0.7982695308
C       -1.0713298704    0.1622842743    0.0968087393
C       -0.4660349600    1.4661482125   -0.4321273034
N        0.8020687602    1.5064504319   -0.2680238860
H        2.1253474832    0.2536400101    0.8835618612
H        1.5542358042   -1.7911480190   -0.6257200118
H       -1.0056704143   -1.5364003406   -1.5417707463
H       -2.1448042094    0.1316221686    0.2780506587
H       -1.0216090111    2.2474519523   -0.9466257610
C       -0.1039568464    0.0073544800    1.2903575034
H       -0.1729436667   -0.7174067192    2.1004748005
13   
Frame  17 IRC: Energy =  -286.8636190000 ; +6.2067 kcal/mol
C        1.1379230652    0.2178241803    0.4342194411
C        0.8322093209   -0.9874018480   -0.4718806980
C       -0.4754284888   -0.9448645456   -0.8156129967
C       -1.0715019813    0.1598796935    0.0925682269
C       -0.4687871348    1.4685553484   -0.4265351400
N        0.8003664333    1.5128693342   -0.2662593321
H        2.1315976447    0.2618659794    0.8794275115
H        1.5399600067   -1.7951903155   -0.5816347163
H       -1.0064774857   -1.5298760154   -1.5637364028
H       -2.1430686388    0.1325635980    0.2870109020
H       -1.0235737238    2.2445341680   -0.9497631923
C       -0.0933224297   -0.0294289295    1.2694119593
H       -0.1598965880   -0.7113306478    2.1127844376
13   
Frame  18 IRC: Energy =  -286.8592490000 ; +8.9489 kcal/mol
C        1.1457954750    0.2319517936    0.4265960141
C        0.8202230833   -0.9867057189   -0.4502282177
C       -0.4843028121   -0.9384299940   -0.8280986244
C       -1.0725082957    0.1584100005    0.0886420525
C       -0.4703525883    1.4703467268   -0.4227845446
N        0.7999992207    1.5189890381   -0.2658860446
H        2.1374233647    0.2680489708    0.8784144967
H        1.5285395326   -1.7940312410   -0.5501974538
H       -1.0080685462   -1.5256791840   -1.5788395641
H       -2.1424370302    0.1337907949    0.2935552307
H       -1.0244975345    2.2422683208   -0.9525466458
C       -0.0789811786   -0.0756532744    1.2414556990
H       -0.1508326907   -0.7033062330    2.1199176019
13   
Frame  19 IRC: Energy =  -286.8538300000 ; +12.3494 kcal/mol
C        1.1542081582    0.2489591202    0.4201278374
C        0.8079094227   -0.9860484352   -0.4200250208
C       -0.4951248843   -0.9312836345   -0.8384018529
C       -1.0738788218    0.1576337653    0.0850664501
C       -0.4715375061    1.4712862506   -0.4204691266
N        0.8003063836    1.5244094452   -0.2659307662
H        2.1420737573    0.2726355558    0.8784386635
H        1.5197750615   -1.7915582457   -0.5267204900
H       -1.0099409934   -1.5225811369   -1.5896019740
H       -2.1424496598    0.1349395736    0.2985944860
H       -1.0251811864    2.2407057723   -0.9549834851
C       -0.0625024509   -0.1237531980    1.2116079814
H       -0.1436572807   -0.6953448326    2.1222972972
13   
Frame  20 IRC: Energy =  -286.8492430000 ; +15.2278 kcal/mol
C        1.1614931431    0.2667540636    0.4155522191
C        0.7968163419   -0.9856342464   -0.3842509554
C       -0.5076643675   -0.9226354018   -0.8476911853
C       -1.0758462049    0.1572200989    0.0816059175
C       -0.4724531643    1.4719991639   -0.4193947277
N        0.8003723762    1.5292119225   -0.2659871660
H        2.1456995776    0.2762710203    0.8785346979
H        1.5129139722   -1.7891626438   -0.5078112756
H       -1.0122177566   -1.5204080903   -1.5979430268
H       -2.1425212411    0.1359411283    0.3027949380
H       -1.0258422158    2.2394745479   -0.9569734086
C       -0.0435983879   -0.1701464377    1.1803293853
H       -0.1371520729   -0.6888851254    2.1212345874
13   
Frame  21 IRC: Energy =  -286.8475240000 ; +16.3065 kcal/mol (Transition State)
C        1.1680262107    0.2842792513    0.4124267725
C        0.7854279822   -0.9869700144   -0.3456436530
C       -0.5199249565   -0.9131493363   -0.8582288967
C       -1.0774482790    0.1571085469    0.0784378528
C       -0.4739621211    1.4725968509   -0.4189623008
N        0.8001907554    1.5341905186   -0.2656687168
H        2.1491208554    0.2799491437    0.8783719113
H        1.5064187405   -1.7868207564   -0.4898828940
H       -1.0146670984   -1.5183985009   -1.6048471700
H       -2.1425090104    0.1369809940    0.3070127736
H       -1.0266446986    2.2384944638   -0.9588555012
C       -0.0240248869   -0.2145076302    1.1488651713
H       -0.1300034934   -0.6837535310    2.1169746510
13   
Frame  22 IRC: Energy =  -286.8489170000 ; +15.4324 kcal/mol
C        1.1741469407    0.3015134218    0.4100827781
C        0.7729829878   -0.9897038470   -0.3068562455
C       -0.5305705321   -0.9031839801   -0.8688827724
C       -1.0790132504    0.1569685270    0.0755674746
C       -0.4750241731    1.4732798631   -0.4186844983
N        0.7991290244    1.5395201052   -0.2653537529
H        2.1526653025    0.2837950226    0.8781352763
H        1.4996471671   -1.7841737418   -0.4717509348
H       -1.0173747953   -1.5165782316   -1.6117177662
H       -2.1425021700    0.1381152574    0.3113222030
H       -1.0274674334    2.2375534202   -0.9607234703
C       -0.0041260592   -0.2582518919    1.1174914524
H       -0.1224930090   -0.6788539248    2.1113702561
13   
Frame  23 IRC: Energy =  -286.8518300000 ; +13.6044 kcal/mol
C        1.1795916350    0.3177504351    0.4090918163
C        0.7576650160   -0.9965904999   -0.2683655734
C       -0.5373646452   -0.8926923542   -0.8824086309
C       -1.0796251907    0.1567596570    0.0733828236
C       -0.4769185177    1.4742010546   -0.4184906555
N        0.7972240704    1.5457630412   -0.2641911517
H        2.1570877889    0.2888688396    0.8774651025
H        1.4914410175   -1.7813475219   -0.4508294946
H       -1.0204714588   -1.5145148672   -1.6182668618
H       -2.1421997791    0.1395493684    0.3163757492
H       -1.0285931760    2.2367109521   -0.9627364166
C        0.0151611813   -0.2990947865    1.0874288232
H       -0.1129979416   -0.6753633184    2.1015444696
13   
Frame  24 IRC: Energy =  -286.8544310000 ; +11.9723 kcal/mol
C        1.1860905801    0.3334091956    0.4076373217
C        0.7397155918   -1.0058173373   -0.2349201259
C       -0.5399971788   -0.8804816449   -0.8983254915
C       -1.0800930211    0.1560396119    0.0700977037
C       -0.4786610893    1.4756542927   -0.4171650637
N        0.7939400413    1.5521182707   -0.2615218035
H        2.1626961238    0.2961652862    0.8757586009
H        1.4813837863   -1.7809390207   -0.4226333414
H       -1.0249229683   -1.5126687179   -1.6265945896
H       -2.1404536050    0.1410334940    0.3227385832
H       -1.0306956587    2.2357832227   -0.9651349111
C        0.0314297120   -0.3355346982    1.0618409760
H       -0.1004323142   -0.6747619548    2.0882221411
13   
Frame  25 IRC: Energy =  -286.8559380000 ; +11.0266 kcal/mol
C        1.1889833932    0.3416773152    0.4085930888
C        0.7243244936   -1.0174619318   -0.2178058516
C       -0.5385155968   -0.8698568130   -0.9208417956
C       -1.0780437478    0.1553314953    0.0674509474
C       -0.4822395325    1.4779428155   -0.4142450379
N        0.7895213634    1.5595386946   -0.2565070476
H        2.1702333959    0.3075142734    0.8713404406
H        1.4686866150   -1.7872082996   -0.3816047645
H       -1.0299696729   -1.5082591844   -1.6366552963
H       -2.1376815709    0.1417634264    0.3305994017
H       -1.0344417642    2.2344600233   -0.9671037333
C        0.0423886115   -0.3538093381    1.0436906670
H       -0.0832459876   -0.6816324768    2.0730889813
13   
Frame  26 IRC: Energy =  -286.8563920000 ; +10.7417 kcal/mol
C        1.1907567840    0.3446423718    0.4061143132
C        0.7233815715   -1.0164893243   -0.2182776603
C       -0.5379216941   -0.8652619306   -0.9261566589
C       -1.0786644081    0.1557075388    0.0644073612
C       -0.4835930670    1.4794054185   -0.4127225879
N        0.7883193848    1.5603018191   -0.2533899490
H        2.1718746347    0.3123831670    0.8671350336
H        1.4647989877   -1.7974034192   -0.3617028307
H       -1.0330672688   -1.5057427524   -1.6429127268
H       -2.1344051089    0.1406705044    0.3334752365
H       -1.0372467323    2.2341534868   -0.9668577716
C        0.0413781366   -0.3535093532    1.0421886529
H       -0.0756112201   -0.6888575267    2.0686995879
13   
Frame  27 IRC: Energy =  -286.8566650000 ; +10.5704 kcal/mol
C        1.1903956868    0.3440872361    0.4062632580
C        0.7230811694   -1.0174551112   -0.2176640205
C       -0.5366628738   -0.8646744361   -0.9304031915
C       -1.0771621051    0.1562111692    0.0641230799
C       -0.4848116811    1.4807181069   -0.4123985793
N        0.7867950218    1.5637553636   -0.2537011123
H        2.1733592453    0.3159325781    0.8644938621
H        1.4592878542   -1.8024528946   -0.3470402494
H       -1.0336512238   -1.5018608587   -1.6460448325
H       -2.1344432079    0.1397891088    0.3349320924
H       -1.0389356839    2.2344630217   -0.9662770712
C        0.0437539316   -0.3543504030    1.0387258294
H       -0.0710061336   -0.6941628809    2.0649909350
13   
Frame  28 IRC: Energy =  -286.8569120000 ; +10.4154 kcal/mol
C        1.1920907366    0.3480448172    0.4035860412
C        0.7220450488   -1.0176081003   -0.2161595677
C       -0.5364157154   -0.8621074329   -0.9326898446
C       -1.0776099984    0.1560494015    0.0628639017
C       -0.4858189382    1.4816268558   -0.4116427222
N        0.7860711652    1.5641168848   -0.2527656470
H        2.1749115596    0.3195681257    0.8613635598
H        1.4547909679   -1.8100650723   -0.3315744950
H       -1.0344669906   -1.4980940443   -1.6508672454
H       -2.1323778444    0.1385534363    0.3360013591
H       -1.0416440655    2.2354691667   -0.9655211321
C        0.0443468793   -0.3551719785    1.0367252576
H       -0.0659228049   -0.7003820597    2.0606805348
13   
Frame  29 IRC: Energy =  -286.8570660000 ; +10.3188 kcal/mol
C        1.1922033886    0.3470502616    0.4038895100
C        0.7215896034   -1.0186606512   -0.2155369782
C       -0.5353440986   -0.8622523014   -0.9343329903
C       -1.0764953799    0.1567418273    0.0625569900
C       -0.4869451978    1.4826256992   -0.4116980347
N        0.7846483874    1.5668442605   -0.2541269499
H        2.1763481594    0.3226390795    0.8590785905
H        1.4502317181   -1.8143234288   -0.3202525417
H       -1.0342370310   -1.4943078550   -1.6544009177
H       -2.1325679556    0.1375790530    0.3366980340
H       -1.0430960276    2.2359424673   -0.9643522885
C        0.0462685192   -0.3550383623    1.0351431352
H       -0.0626040855   -0.7048400496    2.0573344413
13   
Frame  30 IRC: Energy =  -286.8571960000 ; +10.2372 kcal/mol
C        1.1935521418    0.3503910230    0.4015976839
C        0.7210092032   -1.0189495054   -0.2138809080
C       -0.5358060825   -0.8615461627   -0.9348741957
C       -1.0767399688    0.1564195523    0.0620366825
C       -0.4873799607    1.4831054700   -0.4113433451
N        0.7842326800    1.5662608896   -0.2540390220
H        2.1776567166    0.3254725315    0.8565010893
H        1.4467103434   -1.8200089887   -0.3093943613
H       -1.0337857132   -1.4903448769   -1.6588963350
H       -2.1312993119    0.1365328904    0.3371207189
H       -1.0454508206    2.2371296442   -0.9632564185
C        0.0466532310   -0.3548114387    1.0335631795
H       -0.0593524584   -0.7096510286    2.0548652315
13   
Frame  31 IRC: Energy =  -286.8572640000 ; +10.1945 kcal/mol
C        1.1934069497    0.3491806540    0.4019942619
C        0.7207105755   -1.0198065671   -0.2134005622
C       -0.5352104847   -0.8622330819   -0.9349428894
C       -1.0761786583    0.1569214923    0.0619082182
C       -0.4884405352    1.4835528965   -0.4116717638
N        0.7836054748    1.5680703059   -0.2554726811
H        2.1786542694    0.3273683573    0.8550677620
H        1.4439912130   -1.8222827294   -0.3031729778
H       -1.0331433815   -1.4876155974   -1.6617669215
H       -2.1315659710    0.1359836527    0.3374394933
H       -1.0461970094    2.2373607187   -0.9622325422
C        0.0480370437   -0.3546109284    1.0333852524
H       -0.0576694860   -0.7118891732    2.0528653503
13   
Frame  32 IRC: Energy =  -286.8573550000 ; +10.1374 kcal/mol
C        1.1945482226    0.3516505022    0.4001958403
C        0.7201076077   -1.0204698012   -0.2117880300
C       -0.5358032076   -0.8627279235   -0.9344549542
C       -1.0761747486    0.1565497959    0.0617787816
C       -0.4891123053    1.4838490314   -0.4117140703
N        0.7833477484    1.5674487139   -0.2560276249
H        2.1798784824    0.3299303602    0.8525864458
H        1.4408392116   -1.8269562631   -0.2941500832
H       -1.0318778617   -1.4830989877   -1.6668932902
H       -2.1308632694    0.1351612785    0.3378390391
H       -1.0482304643    2.2383468998   -0.9609006552
C        0.0484845557   -0.3540571095    1.0323626903
H       -0.0551439715   -0.7156264968    2.0511659110
13   
Frame  33 IRC: Energy =  -286.8574260000 ; +10.0929 kcal/mol
C        1.1945549436    0.3507859981    0.4001916647
C        0.7195059578   -1.0217531793   -0.2106656946
C       -0.5356118662   -0.8643665459   -0.9334700231
C       -1.0759560610    0.1569311089    0.0618027795
C       -0.4902442399    1.4838903868   -0.4121068221
N        0.7826052115    1.5689754479   -0.2580952310
H        2.1812611440    0.3324366874    0.8503585399
H        1.4375237575   -1.8302173044   -0.2862051528
H       -1.0301836274   -1.4783119797   -1.6723202604
H       -2.1309554096    0.1345078869    0.3383651873
H       -1.0495724208    2.2388183494   -0.9594469794
C        0.0501283920   -0.3535767410    1.0324991296
H       -0.0530557813   -0.7181201150    2.0490928625
13   
Frame  34 IRC: Energy =  -286.8574530000 ; +10.0759 kcal/mol
C        1.1951595237    0.3523793135    0.3991738960
C        0.7192303173   -1.0219722057   -0.2099658255
C       -0.5361934393   -0.8647533700   -0.9328860144
C       -1.0760342741    0.1564949037    0.0619104935
C       -0.4900279273    1.4838480900   -0.4120793288
N        0.7824220573    1.5679301920   -0.2580555059
H        2.1815667236    0.3330695509    0.8495118768
H        1.4368588955   -1.8317229823   -0.2838493344
H       -1.0294444120   -1.4764839421   -1.6744800754
H       -2.1306535006    0.1343205925    0.3385737590
H       -1.0503777728    2.2391691504   -0.9590822214
C        0.0498883902   -0.3532549167    1.0320943497
H       -0.0523945814   -0.7190243762    2.0491339308
13   
Frame  35 IRC: Energy =  -286.8577190000 ; +9.9090 kcal/mol
C        1.1973470396    0.3537321635    0.3961492398
C        0.7158755592   -1.0285874347   -0.2021277232
C       -0.5399881619   -0.8755751753   -0.9243750433
C       -1.0756927065    0.1556325691    0.0631281268
C       -0.4928302914    1.4824524673   -0.4138271123
N        0.7780883410    1.5688991787   -0.2669060334
H        2.1873174174    0.3434716401    0.8378881619
H        1.4238914958   -1.8474797500   -0.2499371193
H       -1.0172111021   -1.4480437988   -1.7066038265
H       -2.1304951796    0.1318603815    0.3424601275
H       -1.0581241450    2.2410987063   -0.9527462530
C        0.0551498432   -0.3498016582    1.0325483905
H       -0.0433281096   -0.7276592894    2.0443490644
13   
Frame  36 IRC: Energy =  -286.8577420000 ; +9.8946 kcal/mol
C        1.1972816506    0.3546926118    0.3954070797
C        0.7155686634   -1.0286019517   -0.2019691861
C       -0.5401753119   -0.8758168401   -0.9236638652
C       -1.0759077355    0.1552125226    0.0633127547
C       -0.4938666814    1.4824631748   -0.4141398947
N        0.7792739878    1.5679801838   -0.2664934257
H        2.1874525641    0.3434072735    0.8377702557
H        1.4240844638   -1.8477596287   -0.2499100834
H       -1.0167540387   -1.4472380640   -1.7076121978
H       -2.1302590808    0.1319381614    0.3426232031
H       -1.0582432432    2.2409058576   -0.9526775236
C        0.0548451512   -0.3497774415    1.0326070241
H       -0.0433003895   -0.7274058596    2.0447458592
13   
Frame  37 IRC: Energy =  -286.8577820000 ; +9.8695 kcal/mol
C        1.1974228029    0.3559692045    0.3944753821
C        0.7148616733   -1.0293749069   -0.2010493533
C       -0.5414266790   -0.8777950122   -0.9213217891
C       -1.0763370240    0.1543218062    0.0639710875
C       -0.4939181257    1.4816904567   -0.4144364041
N        0.7792975192    1.5661432032   -0.2667750817
H        2.1875425102    0.3432435687    0.8369117298
H        1.4243832639   -1.8482618172   -0.2496908256
H       -1.0142986530   -1.4430360535   -1.7120002040
H       -2.1300672738    0.1321159375    0.3435754646
H       -1.0589424218    2.2404091401   -0.9527571842
C        0.0546010809   -0.3493975272    1.0329931214
H       -0.0431186730   -0.7260279999    2.0461040566
13   
Frame  38 IRC: Energy =  -286.8578290000 ; +9.8400 kcal/mol
C        1.1969570428    0.3543862491    0.3951370186
C        0.7143030903   -1.0306159714   -0.1999321974
C       -0.5424811995   -0.8805154017   -0.9188850390
C       -1.0763627723    0.1541456618    0.0646748248
C       -0.4946393502    1.4807311565   -0.4150009909
N        0.7787349826    1.5665283493   -0.2685259435
H        2.1878362241    0.3432862083    0.8359321619
H        1.4242687195   -1.8483725589   -0.2491231582
H       -1.0115047651   -1.4380008824   -1.7174459669
H       -2.1305561256    0.1322416843    0.3448826509
H       -1.0592738321    2.2393826612   -0.9527806068
C        0.0555171713   -0.3490232685    1.0341098906
H       -0.0427991858   -0.7241738875    2.0469573560
13   