
Running Job 1 of 1 irc_transition.in
qchem irc_transition.in_22154.0 ./irc_transition.d/ 1
/home/leeping/opt/qchem/5.0.2-openmp/exe/qcprog.exe_s irc_transition.in_22154.0 ./irc_transition.d/
Check license passed

                  Welcome to Q-Chem
     A Quantum Leap Into The Future Of Chemistry


 Q-Chem 5.0, Q-Chem, Inc., Pleasanton, CA (2017)

 Yihan Shao,  Zhengting Gan,  E. Epifanovsky,  A. T. B. Gilbert,  M. Wormit,  
 J. Kussmann,  A. W. Lange,  A. Behn,  Jia Deng,  Xintian Feng,  D. Ghosh,  
 M. Goldey,  P. R. Horn,  L. D. Jacobson,  I. Kaliman,  T. Kus,  A. Landau,  
 Jie Liu,  E. I. Proynov,  R. M. Richard,  R. P. Steele,  E. J. Sundstrom,  
 H. L. Woodcock III,  P. M. Zimmerman,  D. Zuev,  B. Albrecht,  E. Alguire,  
 S. A. Baeppler,  D. Barton,  Z. Benda,  Y. A. Bernard,  E. J. Berquist,  
 K. B. Bravaya,  H. Burton,  D. Casanova,  Chun-Min Chang,  Yunqing Chen,  
 A. Chien,  K. D. Closser,  M. P. Coons,  S. Dasgupta,  A. L. Dempwolff,  
 M. Diedenhofen,  Hainam Do,  R. G. Edgar,  Po-Tung Fang,  S. Fatehi,  
 Qingguo Feng,  J. Fosso-Tande,  Qinghui Ge,  A. Ghysels,  G. Gidofalvi,  
 J. Gomes,  J. Gonthier,  A. Gunina,  M. W. D. Hanson-Heine,  
 P. H. P. Harbach,  A. W. Hauser,  J. E. Herr,  E. G. Hohenstein,  
 Z. C. Holden,  Kerwin Hui,  T.-C. Jagau,  Hyunjun Ji,  B. Kaduk,  
 K. Khistyaev,  Jaehoon Kim,  P. Klunzinger,  K. Koh,  D. Kosenkov,  
 L. Koulias,  T. Kowalczyk,  C. M. Krauter,  A. Kunitsa,  Ka Un Lao,  
 A. Laurent,  K. V. Lawler,  Joonho Lee,  D. Lefrancois,  S. Lehtola,  
 D. S. Levine,  Yi-Pei Li,  You-Sheng Lin,  Fenglai Liu,  E. Livshits,  
 A. Luenser,  P. Manohar,  E. Mansoor,  S. F. Manzer,  Shan-Ping Mao,  
 Yuezhi Mao,  N. Mardirossian,  A. V. Marenich,  T. Markovich,  
 L. A. Martinez-Martinez,  S. A. Maurer,  N. J. Mayhall,  S. C. McKenzie,  
 J.-M. Mewes,  A. F. Morrison,  J. W. Mullinax,  K. Nanda,  
 T. S. Nguyen-Beck,  R. Olivares-Amaya,  J. A. Parkhill,  T. M. Perrine,  
 F. Plasser,  S. Prager,  A. Prociuk,  E. Ramos,  D. R. Rehn,  F. Rob,  
 M. Schneider,  N. Sergueev,  S. M. Sharada,  S. Sharma,  D. W. Small,  
 T. Stauch,  T. Stein,  Yu-Chuan Su,  A. J. W. Thom,  A. Tkatchenko,  
 T. Tsuchimochi,  L. Vogt,  O. Vydrov,  M. A. Watson,  J. Wenzel,  
 M. de Wergifosse,  T. A. Wesolowski,  A. White,  J. Witte,  A. Yamada,  
 Jun Yang,  K. Yao,  S. Yeganeh,  S. R. Yost,  Zhi-Qiang You,  A. Zech,  
 Igor Ying Zhang,  Xing Zhang,  Yan Zhao,  Ying Zhu,  B. R. Brooks,  
 G. K. L. Chan,  C. J. Cramer,  M. S. Gordon,  W. J. Hehre,  A. Klamt,  
 M. W. Schmidt,  C. D. Sherrill,  D. G. Truhlar,  A. Aspuru-Guzik,  R. Baer,  
 A. T. Bell,  N. A. Besley,  Jeng-Da Chai,  R. A. DiStasio Jr.,  A. Dreuw,  
 B. D. Dunietz,  T. R. Furlani,  Chao-Ping Hsu,  Yousung Jung,  Jing Kong,  
 D. S. Lambrecht,  WanZhen Liang,  C. Ochsenfeld,  V. A. Rassolov,  
 L. V. Slipchenko,  J. E. Subotnik,  T. Van Voorhis,  J. M. Herbert,  
 A. I. Krylov,  P. M. W. Gill,  M. Head-Gordon

 Contributors to earlier versions of Q-Chem not listed above: 
 R. D. Adamson,  B. Austin,  J. Baker,  G. J. O. Beran,  K. Brandhorst,  
 S. T. Brown,  E. F. C. Byrd,  A. K. Chakraborty,  C.-L. Cheng,  
 Siu Hung Chien,  D. M. Chipman,  D. L. Crittenden,  H. Dachsel,  
 R. J. Doerksen,  A. D. Dutoi,  L. Fusti-Molnar,  W. A. Goddard III,  
 A. Golubeva-Zadorozhnaya,  S. R. Gwaltney,  G. Hawkins,  A. Heyden,  
 S. Hirata,  G. Kedziora,  F. J. Keil,  C. Kelley,  Jihan Kim,  R. A. King,  
 R. Z. Khaliullin,  P. P. Korambath,  W. Kurlancheek,  A. M. Lee,  M. S. Lee,  
 S. V. Levchenko,  Ching Yeh Lin,  D. Liotard,  R. C. Lochan,  I. Lotan,  
 P. E. Maslen,  N. Nair,  D. P. O'Neill,  D. Neuhauser,  E. Neuscamman,  
 C. M. Oana,  R. Olson,  B. Peters,  R. Peverati,  P. A. Pieniazek,  
 Y. M. Rhee,  J. Ritchie,  M. A. Rohrdanz,  E. Rosta,  N. J. Russ,  
 H. F. Schaefer III,  N. E. Schultz,  N. Shenvi,  A. C. Simmonett,  A. Sodt,  
 D. Stuck,  K. S. Thanthiriwatte,  V. Vanovschi,  Tao Wang,  A. Warshel,  
 C. F. Williams,  Q. Wu,  X. Xu,  W. Zhang

 Please cite Q-Chem as follows:
 Y. Shao et al., Mol. Phys. 113, 184-215 (2015)
 DOI: 10.1080/00268976.2014.952696

 Q-Chem 5.0.2 for Intel X86 EM64T Linux

 Parts of Q-Chem use Armadillo 5.200.1 (Boston Tea Smuggler).
 http://arma.sourceforge.net/

 Q-Chem begins on Fri Mar  4 00:47:38 2022  

Host: 
0

     Scratch files written to ./irc_transition.d//
 Dec517 15110_ 26548  26544 5633   
Processing $rem in /home/leeping/opt/qchem/5.0.2-openmp/config/preferences.
 MEM_STATIC 2000
 MEM_TOTAL  8000
 SYMMETRY   OFF
 SYM_IGNORE TRUE 

Checking the input file for inconsistencies... 	...done.

--------------------------------------------------------------
User input:
--------------------------------------------------------------
$molecule
0 2
C        1.1670093310    0.2822702402    0.4126474333
C        0.7851892292   -0.9877831900   -0.3478159546
C       -0.5198988947   -0.9134476001   -0.8610007441
C       -1.0782432306    0.1550457834    0.0771902190
C       -0.4748489881    1.4715540918   -0.4176160013
N        0.7992010774    1.5332404289   -0.2635073318
H        2.1478457074    0.2774145982    0.8791308195
H        1.5064842289   -1.7871838979   -0.4930257112
H       -1.0140558711   -1.5175529010   -1.6089317918
H       -2.1434253140    0.1342286481    0.3051370340
H       -1.0274456171    2.2382226034   -0.9565020853
C       -0.0253115939   -0.2181123896    1.1475649276
H       -0.1316974372   -0.6890483261    2.1148087134
$end

$rem
method                b3lyp
basis                 6-31+g(d,p)
unrestricted          true
symmetry              off
sym_ignore            true
incdft                false
incfock               0
scf_convergence       8
thresh                14
jobtype               sp
scf_guess             core
scf_guess_mix         5
scf_algorithm         diis
max_scf_cycles        100
$end

--------------------------------------------------------------
 ----------------------------------------------------------------
             Standard Nuclear Orientation (Angstroms)
    I     Atom           X                Y                Z
 ----------------------------------------------------------------
    1      C       1.1670093310     0.2822702402     0.4126474333
    2      C       0.7851892292    -0.9877831900    -0.3478159546
    3      C      -0.5198988947    -0.9134476001    -0.8610007441
    4      C      -1.0782432306     0.1550457834     0.0771902190
    5      C      -0.4748489881     1.4715540918    -0.4176160013
    6      N       0.7992010774     1.5332404289    -0.2635073318
    7      H       2.1478457074     0.2774145982     0.8791308195
    8      H       1.5064842289    -1.7871838979    -0.4930257112
    9      H      -1.0140558711    -1.5175529010    -1.6089317918
   10      H      -2.1434253140     0.1342286481     0.3051370340
   11      H      -1.0274456171     2.2382226034    -0.9565020853
   12      C      -0.0253115939    -0.2181123896     1.1475649276
   13      H      -0.1316974372    -0.6890483261     2.1148087134
 ----------------------------------------------------------------
 Nuclear Repulsion Energy =   281.0238291145 hartrees
 There are       25 alpha and       24 beta electrons
 Requested basis set is 6-31+G(d,p)
 There are 53 shells and 163 basis functions

 Total QAlloc Memory Limit   8000 MB
 Mega-Array Size      1956 MB
 MEM_STATIC part      2000 MB

                       Distance Matrix (Angstroms)
             C (  1)   C (  2)   C (  3)   C (  4)   C (  5)   N (  6)
   C (  2)  1.528766
   C (  3)  2.428493  1.404329
   C (  4)  2.273736  2.226897  1.527622
   C (  5)  2.190761  2.764219  2.426284  1.530396
   N (  6)  1.468807  2.522472  2.843115  2.353783  1.284818
   H (  7)  1.086126  2.227769  3.400452  3.326520  3.160071  2.168309
   H (  8)  2.284322  1.086459  2.237197  3.283020  3.814543  3.402667
   H (  9)  3.476089  2.260166  1.080988  2.375861  3.262627  3.795446
   H ( 10)  3.315487  3.203442  2.256843  1.089498  2.257201  3.307513
   H ( 11)  3.242831  3.750101  3.193705  2.326097  1.087907  2.076988
   C ( 12)  1.487318  1.866941  2.182302  1.547131  2.346667  2.395450
   H ( 13)  2.351053  2.644701  3.009401  2.400069  3.346510  3.385488
             H (  7)   H (  8)   H (  9)   H ( 10)   H ( 11)   C ( 12)
   H (  8)  2.560610
   H (  9)  4.405677  2.769670
   H ( 10)  4.331856  4.201277  2.769028
   H ( 11)  4.158941  4.779070  3.812046  2.695169
   C ( 12)  2.245043  2.738598  3.203816  2.306563  3.385994
   H ( 13)  2.767177  3.269609  3.915510  2.828382  4.336384  1.081045

 
 A cutoff of  1.0D-14 yielded   1405 shell pairs
 There are     13515 function pairs
 
 -------------------------------------------------------
 OpenMP Integral Computing Module                       
 Release: version 1.0, May 2013, Q-Chem Inc. Pittsburgh 
 -------------------------------------------------------
 Integral Job Info:
 Integral job number is                      11
 Integral operator is                         1
 short-range coefficients                     0
 long-range coefficients              100000000
 Omega coefficients                           0
 if combine SR and LR in K                    0
 Integral screening is                        0
 Integral computing path is                   2
 max size of driver memory is            800000
 size of driver memory is                593474
 size of scratch memory is              2361544
 max col of scratch BK array               1296
 max len of scratch array in speh3          155
 max len of scratch index in speh4           18
 max int batch size is                      520
 min int batch size is                       52
 fixed nKL is                                52
 max L of basis functions is                  2
 order of int derivative is                   0
 number of shells is                         53
 number of basis is                         163
 number of cartesian basis is               163
 number of contracted shell pairs          1405
 number of primitive shell pairs           4830
 maxK2 (contraction) of shell pair           36
 max number of K2 of shell pair               1
 max number of CS2 of shell pair            127
 max number of PS2 of shell pair            702
 mem total for path MDJ                  535308
 -------------------------------------------------------
 Smallest overlap matrix eigenvalue = 2.76E-05

 Scale SEOQF with 1.000000e-01/1.000000e-01/1.000000e-01

 Standard Electronic Orientation quadrupole field applied
 Nucleus-field energy     =     0.0000000025 hartrees
 Guess MOs from core Hamiltonian diagonalization
 Mixing HOMO and LUMO in initial guess
 Adding  50% of the LUMO to the HOMO
 An unrestricted hybrid HF-DFT SCF calculation will be
 performed using Pulay DIIS extrapolation
 Exchange:     0.2000 Hartree-Fock + 0.0800 Slater + 0.7200 B88
 Correlation:  0.1900 VWN1RPA + 0.8100 LYP
 Using SG-1 standard quadrature grid
 SCF converges when DIIS error is below 1.0E-08
 using 4 threads for integral computing
 -------------------------------------------------------
 OpenMP Integral computing Module                
 Release: version 1.0, May 2013, Q-Chem Inc. Pittsburgh 
 -------------------------------------------------------
 -------------------------------------------------------
 OpenMP BLAS3 based DFT computing Module                
 Release: version 1.0, May 2013, Q-Chem Inc. Pittsburgh 
 -------------------------------------------------------
 ---------------------------------------
  Cycle       Energy         DIIS Error
 ---------------------------------------
    1    -235.5675540738      9.87E-02
    2    -211.6722522001      7.26E-02
    3    -254.6244597516      7.67E-02
    4    -280.1545551222      3.77E-02
    5    -282.2943021534      3.19E-02
    6    -285.6723775118      1.67E-02
    7    -286.6347206305      7.15E-03
    8    -286.7683376174      4.69E-03
    9    -286.8444719855      5.79E-04
   10    -286.8463781824      3.92E-04
   11    -286.8471140345      1.68E-04
   12    -286.8473398751      6.73E-05
   13    -286.8474322562      5.10E-05
   14    -286.8475114286      1.59E-05
   15    -286.8475217608      9.08E-06
   16    -286.8475230683      4.01E-06
   17    -286.8475236827      8.31E-07
   18    -286.8475237222      1.82E-07
   19    -286.8475237324      9.03E-08
   20    -286.8475237371      3.86E-08
   21    -286.8475237378      1.58E-08
   22    -286.8475237379      6.53E-09 Convergence criterion met
 ---------------------------------------
 <S^2> = 0.7773
 SCF time:  CPU 111.16 s  wall 31.33 s
 SCF   energy in the final basis set = -286.84752374
 Total energy in the final basis set = -286.84752374
 
 --------------------------------------------------------------
 
                    Orbital Energies (a.u.)
 --------------------------------------------------------------
 
 Alpha MOs
 -- Occupied --
-14.330 -10.235 -10.230 -10.229 -10.226 -10.221 -10.206  -0.972
 -0.849  -0.751  -0.696  -0.601  -0.585  -0.548  -0.522  -0.472
 -0.444  -0.424  -0.409  -0.378  -0.356  -0.296  -0.284  -0.277
 -0.157
 -- Virtual --
 -0.017  -0.010   0.001   0.018   0.029   0.033   0.046   0.048
  0.062   0.071   0.074   0.095   0.100   0.107   0.109   0.118
  0.124   0.129   0.141   0.153   0.165   0.178   0.180   0.185
  0.192   0.197   0.207   0.218   0.225   0.234   0.240   0.251
  0.259   0.268   0.281   0.287   0.309   0.313   0.331   0.368
  0.372   0.382   0.407   0.455   0.629   0.668   0.675   0.695
  0.699   0.713   0.725   0.734   0.744   0.753   0.778   0.793
  0.806   0.814   0.858   0.901   0.917   0.936   0.955   1.002
  1.015   1.033   1.047   1.070   1.082   1.094   1.104   1.139
  1.202   1.217   1.326   1.340   1.384   1.419   1.437   1.487
  1.558   1.621   1.626   1.691   1.724   1.767   1.817   1.864
  1.879   1.908   1.952   1.980   2.042   2.093   2.105   2.126
  2.156   2.212   2.220   2.277   2.304   2.327   2.363   2.397
  2.404   2.437   2.447   2.485   2.504   2.520   2.534   2.553
  2.569   2.606   2.618   2.655   2.686   2.703   2.745   2.778
  2.852   2.857   2.980   3.072   3.083   3.291   3.316   3.326
  3.508   3.599   3.687   4.171   4.413   4.487   4.569   4.620
  4.694   4.831
 
 Beta MOs
 -- Occupied --
-14.329 -10.235 -10.231 -10.230 -10.222 -10.217 -10.197  -0.968
 -0.842  -0.747  -0.684  -0.598  -0.577  -0.541  -0.519  -0.463
 -0.441  -0.419  -0.407  -0.373  -0.351  -0.287  -0.275  -0.265
 -- Virtual --
 -0.054  -0.009  -0.002   0.003   0.019   0.031   0.038   0.047
  0.049   0.063   0.072   0.077   0.096   0.101   0.108   0.109
  0.119   0.128   0.132   0.142   0.153   0.164   0.179   0.181
  0.188   0.195   0.197   0.208   0.223   0.228   0.237   0.242
  0.254   0.260   0.273   0.282   0.288   0.312   0.315   0.333
  0.372   0.376   0.385   0.411   0.457   0.633   0.674   0.678
  0.700   0.711   0.727   0.734   0.744   0.749   0.759   0.784
  0.796   0.808   0.817   0.859   0.905   0.919   0.939   0.958
  1.005   1.019   1.036   1.049   1.071   1.087   1.101   1.109
  1.147   1.207   1.221   1.330   1.346   1.387   1.425   1.442
  1.491   1.566   1.627   1.636   1.698   1.732   1.770   1.828
  1.870   1.885   1.913   1.955   1.984   2.048   2.102   2.109
  2.130   2.165   2.220   2.229   2.283   2.310   2.330   2.367
  2.403   2.406   2.443   2.454   2.489   2.508   2.526   2.542
  2.556   2.573   2.614   2.620   2.664   2.692   2.706   2.748
  2.782   2.857   2.861   2.983   3.074   3.085   3.292   3.318
  3.327   3.509   3.602   3.691   4.173   4.423   4.486   4.581
  4.626   4.696   4.835
 --------------------------------------------------------------
 
          Ground-State Mulliken Net Atomic Charges

     Atom                 Charge (a.u.)    Spin (a.u.)
  --------------------------------------------------------
      1 C                    -0.133196      -0.021086
      2 C                    -0.103550      -0.233697
      3 C                    -0.140494       0.728535
      4 C                     0.002092      -0.101911
      5 C                    -0.069995      -0.002329
      6 N                    -0.179883       0.062375
      7 H                     0.138968       0.004330
      8 H                     0.139203       0.010311
      9 H                     0.139035      -0.028786
     10 H                     0.129088       0.010604
     11 H                     0.132711       0.001556
     12 C                    -0.199892       0.594487
     13 H                     0.145914      -0.024390
  --------------------------------------------------------
  Sum of atomic charges =     0.000000
  Sum of spin   charges =     1.000000

 -----------------------------------------------------------------
                    Cartesian Multipole Moments
 -----------------------------------------------------------------
    Charge (ESU x 10^10)
                 0.0000
    Dipole Moment (Debye)
         X      -1.3071      Y      -2.1005      Z       0.7991
       Tot       2.5998
    Quadrupole Moments (Debye-Ang)
        XX     -38.9959     XY      -5.0804     YY     -44.9714
        XZ       2.2365     YZ       0.3867     ZZ     -41.3894
    Octopole Moments (Debye-Ang^2)
       XXX      -9.8551    XXY     -10.7068    XYY     -10.7746
       YYY     -26.5926    XXZ       3.6438    XYZ       2.8528
       YYZ      -2.0566    XZZ      -5.1943    YZZ     -10.3752
       ZZZ       8.8521
    Hexadecapole Moments (Debye-Ang^3)
      XXXX    -224.2560   XXXY     -10.0780   XXYY     -94.8486
      XYYY     -27.6815   YYYY    -326.4905   XXXZ      -8.4194
      XXYZ       4.0468   XYYZ       2.1179   YYYZ       2.0994
      XXZZ     -67.7912   XYZZ      -0.2813   YYZZ     -77.3421
      XZZZ     -11.5212   YZZZ      -3.4159   ZZZZ    -174.2917
 -----------------------------------------------------------------
Archival summary:
1\1\c8-73\SP\ProcedureUnspecified\6-31+G**\166(2)\hpark21\FriMar400:48:102022FriMar400:48:102022\0\\#,ProcedureUnspecified,6-31+G**,\\0,2\N\C,1,1.28482\H,2,1.08791,1,121.956\C,1,1.46881,2,105.227,3,-175.751,0\H,4,1.08613,1,115.319,2,-163.085,0\C,4,1.48732,1,108.256,2,-24.4587,0\H,6,1.08105,4,131.879,1,-140.953,0\C,4,1.52877,1,114.584,2,58.6511,0\H,8,1.08646,4,120.793,1,131.578,0\C,8,1.40433,4,111.71,1,-44.7582,0\H,10,1.08099,8,130.398,4,164.828,0\C,10,1.52762,8,98.7582,4,-21.9586,0\H,12,1.0895,10,118.195,8,-150.64,0\\\@

 Total job time:  32.01s(wall), 112.81s(cpu) 
 Fri Mar  4 00:48:10 2022

        *************************************************************
        *                                                           *
        *  Thank you very much for using Q-Chem.  Have a nice day.  *
        *                                                           *
        *************************************************************


