
Running Job 1 of 1 qcts1.in
qchem qcts1.in_7924.0 ./qcts1.d/ 1
/home/leeping/opt/qchem/5.0.2-openmp/exe/qcprog.exe_s qcts1.in_7924.0 ./qcts1.d/
Check license passed

                  Welcome to Q-Chem
     A Quantum Leap Into The Future Of Chemistry


 Q-Chem 5.0, Q-Chem, Inc., Pleasanton, CA (2017)

 Yihan Shao,  Zhengting Gan,  E. Epifanovsky,  A. T. B. Gilbert,  M. Wormit,  
 J. Kussmann,  A. W. Lange,  A. Behn,  Jia Deng,  Xintian Feng,  D. Ghosh,  
 M. Goldey,  P. R. Horn,  L. D. Jacobson,  I. Kaliman,  T. Kus,  A. Landau,  
 Jie Liu,  E. I. Proynov,  R. M. Richard,  R. P. Steele,  E. J. Sundstrom,  
 H. L. Woodcock III,  P. M. Zimmerman,  D. Zuev,  B. Albrecht,  E. Alguire,  
 S. A. Baeppler,  D. Barton,  Z. Benda,  Y. A. Bernard,  E. J. Berquist,  
 K. B. Bravaya,  H. Burton,  D. Casanova,  Chun-Min Chang,  Yunqing Chen,  
 A. Chien,  K. D. Closser,  M. P. Coons,  S. Dasgupta,  A. L. Dempwolff,  
 M. Diedenhofen,  Hainam Do,  R. G. Edgar,  Po-Tung Fang,  S. Fatehi,  
 Qingguo Feng,  J. Fosso-Tande,  Qinghui Ge,  A. Ghysels,  G. Gidofalvi,  
 J. Gomes,  J. Gonthier,  A. Gunina,  M. W. D. Hanson-Heine,  
 P. H. P. Harbach,  A. W. Hauser,  J. E. Herr,  E. G. Hohenstein,  
 Z. C. Holden,  Kerwin Hui,  T.-C. Jagau,  Hyunjun Ji,  B. Kaduk,  
 K. Khistyaev,  Jaehoon Kim,  P. Klunzinger,  K. Koh,  D. Kosenkov,  
 L. Koulias,  T. Kowalczyk,  C. M. Krauter,  A. Kunitsa,  Ka Un Lao,  
 A. Laurent,  K. V. Lawler,  Joonho Lee,  D. Lefrancois,  S. Lehtola,  
 D. S. Levine,  Yi-Pei Li,  You-Sheng Lin,  Fenglai Liu,  E. Livshits,  
 A. Luenser,  P. Manohar,  E. Mansoor,  S. F. Manzer,  Shan-Ping Mao,  
 Yuezhi Mao,  N. Mardirossian,  A. V. Marenich,  T. Markovich,  
 L. A. Martinez-Martinez,  S. A. Maurer,  N. J. Mayhall,  S. C. McKenzie,  
 J.-M. Mewes,  A. F. Morrison,  J. W. Mullinax,  K. Nanda,  
 T. S. Nguyen-Beck,  R. Olivares-Amaya,  J. A. Parkhill,  T. M. Perrine,  
 F. Plasser,  S. Prager,  A. Prociuk,  E. Ramos,  D. R. Rehn,  F. Rob,  
 M. Schneider,  N. Sergueev,  S. M. Sharada,  S. Sharma,  D. W. Small,  
 T. Stauch,  T. Stein,  Yu-Chuan Su,  A. J. W. Thom,  A. Tkatchenko,  
 T. Tsuchimochi,  L. Vogt,  O. Vydrov,  M. A. Watson,  J. Wenzel,  
 M. de Wergifosse,  T. A. Wesolowski,  A. White,  J. Witte,  A. Yamada,  
 Jun Yang,  K. Yao,  S. Yeganeh,  S. R. Yost,  Zhi-Qiang You,  A. Zech,  
 Igor Ying Zhang,  Xing Zhang,  Yan Zhao,  Ying Zhu,  B. R. Brooks,  
 G. K. L. Chan,  C. J. Cramer,  M. S. Gordon,  W. J. Hehre,  A. Klamt,  
 M. W. Schmidt,  C. D. Sherrill,  D. G. Truhlar,  A. Aspuru-Guzik,  R. Baer,  
 A. T. Bell,  N. A. Besley,  Jeng-Da Chai,  R. A. DiStasio Jr.,  A. Dreuw,  
 B. D. Dunietz,  T. R. Furlani,  Chao-Ping Hsu,  Yousung Jung,  Jing Kong,  
 D. S. Lambrecht,  WanZhen Liang,  C. Ochsenfeld,  V. A. Rassolov,  
 L. V. Slipchenko,  J. E. Subotnik,  T. Van Voorhis,  J. M. Herbert,  
 A. I. Krylov,  P. M. W. Gill,  M. Head-Gordon

 Contributors to earlier versions of Q-Chem not listed above: 
 R. D. Adamson,  B. Austin,  J. Baker,  G. J. O. Beran,  K. Brandhorst,  
 S. T. Brown,  E. F. C. Byrd,  A. K. Chakraborty,  C.-L. Cheng,  
 Siu Hung Chien,  D. M. Chipman,  D. L. Crittenden,  H. Dachsel,  
 R. J. Doerksen,  A. D. Dutoi,  L. Fusti-Molnar,  W. A. Goddard III,  
 A. Golubeva-Zadorozhnaya,  S. R. Gwaltney,  G. Hawkins,  A. Heyden,  
 S. Hirata,  G. Kedziora,  F. J. Keil,  C. Kelley,  Jihan Kim,  R. A. King,  
 R. Z. Khaliullin,  P. P. Korambath,  W. Kurlancheek,  A. M. Lee,  M. S. Lee,  
 S. V. Levchenko,  Ching Yeh Lin,  D. Liotard,  R. C. Lochan,  I. Lotan,  
 P. E. Maslen,  N. Nair,  D. P. O'Neill,  D. Neuhauser,  E. Neuscamman,  
 C. M. Oana,  R. Olson,  B. Peters,  R. Peverati,  P. A. Pieniazek,  
 Y. M. Rhee,  J. Ritchie,  M. A. Rohrdanz,  E. Rosta,  N. J. Russ,  
 H. F. Schaefer III,  N. E. Schultz,  N. Shenvi,  A. C. Simmonett,  A. Sodt,  
 D. Stuck,  K. S. Thanthiriwatte,  V. Vanovschi,  Tao Wang,  A. Warshel,  
 C. F. Williams,  Q. Wu,  X. Xu,  W. Zhang

 Please cite Q-Chem as follows:
 Y. Shao et al., Mol. Phys. 113, 184-215 (2015)
 DOI: 10.1080/00268976.2014.952696

 Q-Chem 5.0.2 for Intel X86 EM64T Linux

 Parts of Q-Chem use Armadillo 5.200.1 (Boston Tea Smuggler).
 http://arma.sourceforge.net/

 Q-Chem begins on Thu Mar  3 21:54:19 2022  

Host: 
0

     Scratch files written to ./qcts1.d//
 Dec517 15110_ 26548  26544 5633   
Processing $rem in /home/leeping/opt/qchem/5.0.2-openmp/config/preferences.
 MEM_STATIC 2000
 MEM_TOTAL  8000
 SYMMETRY   OFF
 SYM_IGNORE TRUE 

Checking the input file for inconsistencies... 	...done.

--------------------------------------------------------------
User input:
--------------------------------------------------------------
$molecule
0 2
C        1.1602549289    0.2751435525    0.4167785003
C        0.7926268258   -0.9790313375   -0.3684205276
C       -0.5283024739   -0.9545775097   -0.8043020789
C       -1.0821327649    0.1552569829    0.0948258623
C       -0.4633833162    1.4620000832   -0.4310785334
N        0.8068638893    1.5207058157   -0.2749970422
H        2.1428852989    0.2758897076    0.8821012617
H        1.5220346599   -1.7694709435   -0.5320773688
H       -0.9978626858   -1.4940317235   -1.6182215931
H       -2.1497157447    0.1461487722    0.3167975485
H       -1.0189322657    2.2248608254   -0.9733156393
C       -0.0459351059   -0.1523342175    1.1867751672
H       -0.1475986186   -0.7317119182    2.0932139702
$end

$rem
method                b3lyp
basis                 6-31g(d)
unrestricted          true
symmetry              off
sym_ignore            true
incdft                false
incfock               0
scf_convergence       8
thresh                14
jobtype               freq
scf_guess             read
scf_algorithm         diis
max_scf_cycles        100
$end

--------------------------------------------------------------
 ----------------------------------------------------------------
             Standard Nuclear Orientation (Angstroms)
    I     Atom           X                Y                Z
 ----------------------------------------------------------------
    1      C       1.1602549289     0.2751435525     0.4167785003
    2      C       0.7926268258    -0.9790313375    -0.3684205276
    3      C      -0.5283024739    -0.9545775097    -0.8043020789
    4      C      -1.0821327649     0.1552569829     0.0948258623
    5      C      -0.4633833162     1.4620000832    -0.4310785334
    6      N       0.8068638893     1.5207058157    -0.2749970422
    7      H       2.1428852989     0.2758897076     0.8821012617
    8      H       1.5220346599    -1.7694709435    -0.5320773688
    9      H      -0.9978626858    -1.4940317235    -1.6182215931
   10      H      -2.1497157447     0.1461487722     0.3167975485
   11      H      -1.0189322657     2.2248608254    -0.9733156393
   12      C      -0.0459351059    -0.1523342175     1.1867751672
   13      H      -0.1475986186    -0.7317119182     2.0932139702
 ----------------------------------------------------------------
 Nuclear Repulsion Energy =   280.8378384128 hartrees
 There are       25 alpha and       24 beta electrons
 Requested basis set is 6-31G(d)
 There are 40 shells and 117 basis functions

 Total QAlloc Memory Limit   8000 MB
 Mega-Array Size      1956 MB
 MEM_STATIC part      2000 MB

                       Distance Matrix (Angstroms)
             C (  1)   C (  2)   C (  3)   C (  4)   C (  5)   N (  6)
   C (  2)  1.524678
   C (  3)  2.419603  1.391203
   C (  4)  2.268552  2.239627  1.531957
   C (  5)  2.182588  2.745928  2.446090  1.538507
   N (  6)  1.467945  2.501523  2.861793  2.359985  1.281146
   H (  7)  1.087239  2.227516  3.390170  3.321912  3.150228  2.161804
   H (  8)  2.282906  1.087940  2.223070  3.298374  3.794007  3.376807
   H (  9)  3.453792  2.243453  1.083496  2.379451  3.230031  3.761640
   H ( 10)  3.313992  3.223807  2.257752  1.090453  2.265944  3.313758
   H ( 11)  3.237687  3.729956  3.221508  2.329846  1.088399  2.077743
   C ( 12)  1.493495  1.950704  2.200150  1.536448  2.323314  2.379728
   H ( 13)  2.352589  2.646665  2.930905  2.377735  3.359188  3.404821
             H (  7)   H (  8)   H (  9)   H ( 10)   H ( 11)   C ( 12)
   H (  8)  2.562978
   H (  9)  4.387315  2.757800
   H ( 10)  4.331608  4.227522  2.785903
   H ( 11)  4.151885  4.754565  3.774455  2.695201
   C ( 12)  2.251030  2.833393  3.251819  2.296050  3.356154
   H ( 13)  2.779995  3.279752  3.883147  2.816872  4.347890  1.080576

 
 A cutoff of  1.0D-14 yielded    813 shell pairs
 There are      7085 function pairs
 Smallest overlap matrix eigenvalue = 1.34E-03
 Guess MOs from SCF MO coefficient file
 Reading MOs from coefficient file
 Reading MOs from coefficient file
 An unrestricted hybrid HF-DFT SCF calculation will be
 performed using Pulay DIIS extrapolation
 Exchange:     0.2000 Hartree-Fock + 0.0800 Slater + 0.7200 B88
 Correlation:  0.1900 VWN1RPA + 0.8100 LYP
 Using SG-1 standard quadrature grid
 SCF converges when DIIS error is below 1.0E-08
Using Q-Chem read-in guess as SCF_GUESS READ specified.

 -------------------------------------------------------
 OpenMP BLAS3 based DFT computing Module                
 -------------------------------------------------------
 ---------------------------------------
  Cycle       Energy         DIIS Error
 ---------------------------------------
    1    -286.8262866350      6.48E-10
    2    -286.8262866350      1.27E-09 Convergence criterion met
 ---------------------------------------
 <S^2> = 0.7857
 SCF time:  CPU 3.37 s  wall 3.52 s
 SCF   energy in the final basis set = -286.82628664
 Total energy in the final basis set = -286.82628664
 
 --------------------------------------------------------------
 
                    Orbital Energies (a.u.)
 --------------------------------------------------------------
 
 Alpha MOs
 -- Occupied --
-14.316 -10.223 -10.220 -10.214 -10.209 -10.206 -10.196  -0.959
 -0.834  -0.736  -0.689  -0.589  -0.575  -0.536  -0.512  -0.464
 -0.430  -0.414  -0.396  -0.369  -0.346  -0.284  -0.270  -0.264
 -0.149
 -- Virtual --
 -0.007   0.017   0.099   0.139   0.149   0.154   0.156   0.164
  0.173   0.208   0.221   0.275   0.289   0.309   0.354   0.373
  0.489   0.501   0.520   0.535   0.579   0.583   0.592   0.614
  0.640   0.654   0.667   0.692   0.701   0.737   0.768   0.799
  0.808   0.817   0.840   0.847   0.855   0.882   0.895   0.941
  0.973   1.011   1.067   1.103   1.160   1.223   1.285   1.376
  1.391   1.436   1.468   1.503   1.588   1.624   1.665   1.732
  1.757   1.805   1.847   1.920   1.956   1.961   2.034   2.050
  2.115   2.139   2.163   2.225   2.267   2.291   2.322   2.356
  2.401   2.470   2.516   2.547   2.580   2.617   2.653   2.672
  2.702   2.816   2.849   2.904   2.959   3.947   4.196   4.267
  4.310   4.404   4.540   4.624
 
 Beta MOs
 -- Occupied --
-14.315 -10.223 -10.220 -10.216 -10.210 -10.195 -10.188  -0.955
 -0.826  -0.733  -0.676  -0.586  -0.565  -0.529  -0.511  -0.455
 -0.427  -0.409  -0.395  -0.364  -0.341  -0.277  -0.261  -0.251
 -- Virtual --
 -0.034   0.010   0.028   0.102   0.146   0.152   0.157   0.159
  0.165   0.176   0.214   0.225   0.280   0.292   0.313   0.359
  0.376   0.497   0.513   0.523   0.547   0.581   0.588   0.598
  0.619   0.644   0.669   0.680   0.698   0.705   0.744   0.772
  0.800   0.811   0.821   0.841   0.850   0.860   0.885   0.899
  0.944   0.977   1.016   1.072   1.114   1.165   1.231   1.289
  1.382   1.393   1.440   1.473   1.510   1.599   1.632   1.674
  1.738   1.766   1.809   1.853   1.931   1.964   1.968   2.045
  2.061   2.122   2.151   2.165   2.238   2.276   2.297   2.338
  2.364   2.410   2.484   2.520   2.552   2.585   2.626   2.658
  2.680   2.707   2.820   2.852   2.906   2.961   3.948   4.203
  4.268   4.331   4.408   4.546   4.626
 --------------------------------------------------------------
 
          Ground-State Mulliken Net Atomic Charges

     Atom                 Charge (a.u.)    Spin (a.u.)
  --------------------------------------------------------
      1 C                    -0.039552      -0.011374
      2 C                    -0.120433      -0.221724
      3 C                    -0.086736       0.526116
      4 C                    -0.259051      -0.066658
      5 C                     0.092354       0.001049
      6 N                    -0.333126       0.056369
      7 H                     0.145170       0.004841
      8 H                     0.146360       0.014569
      9 H                     0.142609      -0.013972
     10 H                     0.137823       0.009236
     11 H                     0.144927       0.001530
     12 C                    -0.126280       0.737993
     13 H                     0.155934      -0.037974
  --------------------------------------------------------
  Sum of atomic charges =    -0.000000
  Sum of spin   charges =     1.000000

 -----------------------------------------------------------------
                    Cartesian Multipole Moments
 -----------------------------------------------------------------
    Charge (ESU x 10^10)
                -0.0000
    Dipole Moment (Debye)
         X      -1.1863      Y      -1.9123      Z       0.4272
       Tot       2.2905
    Quadrupole Moments (Debye-Ang)
        XX     -38.2019     XY      -4.5173     YY     -43.1561
        XZ       2.1590     YZ       0.1659     ZZ     -39.7719
    Octopole Moments (Debye-Ang^2)
       XXX      -9.0412    XXY      -9.8268    XYY      -9.4146
       YYY     -24.3009    XXZ       2.5978    XYZ       2.4891
       YYZ      -1.7172    XZZ      -5.0238    YZZ      -9.8970
       ZZZ       4.5631
    Hexadecapole Moments (Debye-Ang^3)
      XXXX    -216.2253   XXXY      -8.3925   XXYY     -89.0143
      XYYY     -22.8707   YYYY    -301.5739   XXXZ      -7.5652
      XXYZ       3.2261   XYYZ       1.8425   YYYZ       0.8314
      XXZZ     -63.7591   XYZZ      -0.0070   YYZZ     -71.2860
      XZZZ      -9.2202   YZZZ      -3.3156   ZZZZ    -156.7116
 -----------------------------------------------------------------
 Calculating MO derivatives via CPSCF
   1         3          39      0.270412    0.059950
   2         3          39      0.029011    0.005476
   3         3          39      0.003310    0.000518
   4         4          38      0.000398    0.000075
   5        29          13      0.000031    0.000007
   6        42           0      0.000000    0.000000    Roots Converged
 Time for AOints: 5.7 s (CPU) 5.8 s (wall)
 ------------------------------------------------------------------------------
                     AOints        : Timing summary (seconds)
 ------------------------------------------------------------------------------
     job step          cpu (% of tot)      sys (% of tot)     wall (% of tot)
 ------------------------------------------------------------------------------
  cpscf_lag         0.5569E+02 (29.0)   0.2800E-04 (40.6)   0.5575E+02 (29.0)
  iterzp            0.1304E+03 (67.9)   0.3800E-04 (55.1)   0.1307E+03 (67.9)
  make_fx           0.0000E+00 ( 0.0)   0.0000E+00 ( 0.0)   0.0000E+00 ( 0.0)
  AOints            0.5745E+01 ( 3.0)   0.0000E+00 ( 0.0)   0.5763E+01 ( 3.0)
 ------------------------------------------------------------------------------
   Grand Totals     0.1919E+03          0.6900E-04          0.1924E+03
 ------------------------------------------------------------------------------
 Calculating analytic Hessian of the SCF energy
 Polarizability Matrix (a.u.)
            1           2           3
    1 -64.0155825   3.1653927  -5.4576056
    2   3.1653927 -59.7751116  -1.7211355
    3  -5.4576056  -1.7211355 -53.8822236
 
 Direct stationary perturbation theory relativistic correction:
 
 rels  =       0.069229171697
 relv  =      -0.341317696666
 rel2e =       0.159126158041
 E_rel =      -0.112962366928
 
 Hessian of the SCF Energy
            1           2           3           4           5           6
    1   0.7063984   0.0093463   0.1482442  -0.0777979  -0.0202640  -0.0469678
    2   0.0093463   0.3469779  -0.0262340   0.0108359  -0.1373405  -0.0994002
    3   0.1482442  -0.0262340   0.3768252  -0.0160248  -0.0415882  -0.0575817
    4  -0.0777979   0.0108359  -0.0160248   0.6430534  -0.1969669   0.0699974
    5  -0.0202640  -0.1373405  -0.0415882  -0.1969669   0.4677353   0.1007614
    6  -0.0469678  -0.0994002  -0.0575817   0.0699974   0.1007614   0.1350706
    7  -0.0047760   0.0028461  -0.0293082  -0.3261546   0.0423362  -0.0173990
    8  -0.0229871  -0.0029210  -0.0056137   0.0163826  -0.0833719  -0.0244935
    9  -0.0156859   0.0069910  -0.0071050  -0.1000354  -0.0154078  -0.0715535
   10  -0.0503494   0.0031333  -0.0126989  -0.0333804   0.0364791   0.0198544
   11  -0.0021722  -0.0185390  -0.0027417   0.0451644  -0.0123121   0.0023295
   12  -0.0030198  -0.0042008  -0.0107273   0.0110126  -0.0018579   0.0082547
   13  -0.0401435   0.0541634  -0.0253131  -0.0193478  -0.0048965  -0.0021833
   14   0.0396038  -0.0095323   0.0144774   0.0010943  -0.0093104  -0.0014080
   15  -0.0241545   0.0130030  -0.0131994  -0.0011334  -0.0007796   0.0032387
   16  -0.0820970   0.0092350  -0.0270261   0.0099203   0.0157829  -0.0027655
   17   0.0003882  -0.1163651   0.0349174  -0.0117918  -0.0427771   0.0024275
   18  -0.0112132   0.0315729  -0.0877561   0.0123379  -0.0066171   0.0124861
   19  -0.2835702  -0.0052376  -0.1122998   0.0008276   0.0006266   0.0017170
   20  -0.0067009  -0.0486885   0.0006406  -0.0230965   0.0017689  -0.0070355
   21  -0.1103112   0.0028686  -0.0983981  -0.0180000   0.0011432  -0.0079545
   22   0.0079662  -0.0075812  -0.0015629  -0.1780699   0.1428725   0.0224592
   23   0.0141745  -0.0109937   0.0000080   0.1484802  -0.1987254  -0.0351059
   24   0.0067871  -0.0180328  -0.0014944   0.0170348  -0.0404027  -0.0644008
   25  -0.0036959   0.0019872  -0.0035082  -0.0036131  -0.0173265  -0.0179397
   26   0.0006302  -0.0017295  -0.0026630  -0.0022459   0.0029122  -0.0072372
   27   0.0021492   0.0026905   0.0025779   0.0064491   0.0004785   0.0085959
   28  -0.0024609   0.0004158  -0.0012602  -0.0000775   0.0003572   0.0014873
   29  -0.0001808  -0.0016490   0.0022307   0.0015537  -0.0040245  -0.0034546
   30  -0.0049881   0.0012727  -0.0040396   0.0007224  -0.0040783  -0.0037063
   31  -0.0059266  -0.0024802  -0.0020699   0.0008385  -0.0007261  -0.0002335
   32  -0.0009335   0.0049372   0.0059534  -0.0004809   0.0011988   0.0006328
   33  -0.0006414   0.0079468   0.0088502  -0.0017707   0.0019166   0.0006620
   34  -0.1685796  -0.0681262   0.0686393  -0.0145837   0.0056783  -0.0295005
   35  -0.0192098  -0.0000477   0.0240781   0.0113937   0.0097393   0.0817038
   36   0.0622237   0.0835587  -0.1060705   0.0188292   0.0045959   0.0436685
   37   0.0050325  -0.0085379   0.0141886  -0.0016149  -0.0039528   0.0014740
   38   0.0083052  -0.0041087  -0.0034648  -0.0003228   0.0045074  -0.0097200
   39  -0.0024223  -0.0020362  -0.0018811   0.0005809   0.0018359  -0.0067796
            7           8           9          10          11          12
    1  -0.0047760  -0.0229871  -0.0156859  -0.0503494  -0.0021722  -0.0030198
    2   0.0028461  -0.0029210   0.0069910   0.0031333  -0.0185390  -0.0042008
    3  -0.0293082  -0.0056137  -0.0071050  -0.0126989  -0.0027417  -0.0107273
    4  -0.3261546   0.0163826  -0.1000354  -0.0333804   0.0451644   0.0110126
    5   0.0423362  -0.0833719  -0.0154078   0.0364791  -0.0123121  -0.0018579
    6  -0.0173990  -0.0244935  -0.0715535   0.0198544   0.0023295   0.0082547
    7   0.5087273   0.0291212   0.1961721  -0.0960363   0.0116090   0.0242884
    8   0.0291212   0.3247543   0.2416335   0.0300700  -0.0910712  -0.0509383
    9   0.1961721   0.2416335   0.4233824   0.0199788  -0.0442749  -0.0900396
   10  -0.0960363   0.0300700   0.0199788   0.7188174  -0.0155772  -0.0534366
   11   0.0116090  -0.0910712  -0.0442749  -0.0155772   0.3311457  -0.0166858
   12   0.0242884  -0.0509383  -0.0900396  -0.0534366  -0.0166858   0.3284348
   13   0.0105700  -0.0091517  -0.0086968  -0.0885074  -0.0101426   0.0105585
   14   0.0102715  -0.0384740  -0.0063127  -0.0165627  -0.1140564   0.0358653
   15  -0.0060156  -0.0108910   0.0044995   0.0067858   0.0278054  -0.0748460
   16  -0.0087914   0.0005101   0.0036296  -0.0362960  -0.0399933   0.0055222
   17   0.0062165  -0.0030030   0.0038486  -0.0309406   0.0024046   0.0086545
   18  -0.0054278  -0.0005146   0.0035221   0.0033690   0.0036061   0.0166451
   19   0.0003907   0.0007867   0.0002848  -0.0032890  -0.0015818   0.0016827
   20  -0.0010799  -0.0030683  -0.0036310  -0.0008905  -0.0008626   0.0013788
   21  -0.0000095  -0.0037971  -0.0020561   0.0046227   0.0015802  -0.0011843
   22  -0.0131203   0.0191784   0.0073876  -0.0051916   0.0029511  -0.0027673
   23  -0.0098122   0.0051772   0.0004726  -0.0004697   0.0022738  -0.0032915
   24   0.0121662   0.0068453   0.0134413  -0.0027123  -0.0063670   0.0043319
   25  -0.1053232  -0.0555237  -0.1038300   0.0084263   0.0050665   0.0074257
   26  -0.0492880  -0.1147886  -0.1259982  -0.0101653  -0.0038877  -0.0058192
   27  -0.1196016  -0.1350886  -0.2015753  -0.0047894   0.0014905  -0.0023404
   28  -0.0044919   0.0010906   0.0009638  -0.3161849  -0.0027314   0.0545793
   29   0.0236553   0.0012514  -0.0014334  -0.0019936  -0.0459950   0.0041297
   30   0.0194577   0.0027819  -0.0007468   0.0562359   0.0037967  -0.0630276
   31  -0.0006760   0.0003915   0.0007606   0.0086918  -0.0084841   0.0059178
   32  -0.0015678   0.0010432   0.0002651   0.0102978  -0.0063153   0.0093257
   33  -0.0006559   0.0009473  -0.0009907  -0.0049645   0.0024794   0.0013610
   34   0.0407496  -0.0123845  -0.0005882  -0.1149613   0.0062689  -0.0478743
   35  -0.0676693   0.0055102  -0.0584934  -0.0010840  -0.0407600   0.0261641
   36  -0.0760874  -0.0202346  -0.0732747  -0.0381970   0.0236662  -0.1142399
   37  -0.0010678   0.0025159  -0.0003410   0.0082607   0.0096227  -0.0138894
   38   0.0033614  -0.0010384   0.0023406  -0.0022967  -0.0020249  -0.0027247
   39   0.0024206  -0.0006366   0.0024964   0.0059520   0.0033153  -0.0026222
           13          14          15          16          17          18
    1  -0.0401435   0.0396038  -0.0241545  -0.0820970   0.0003882  -0.0112132
    2   0.0541634  -0.0095323   0.0130030   0.0092350  -0.1163651   0.0315729
    3  -0.0253131   0.0144774  -0.0131994  -0.0270261   0.0349174  -0.0877561
    4  -0.0193478   0.0010943  -0.0011334   0.0099203  -0.0117918   0.0123379
    5  -0.0048965  -0.0093104  -0.0007796   0.0157829  -0.0427771  -0.0066171
    6  -0.0021833  -0.0014080   0.0032387  -0.0027655   0.0024275   0.0124861
    7   0.0105700   0.0102715  -0.0060156  -0.0087914   0.0062165  -0.0054278
    8  -0.0091517  -0.0384740  -0.0108910   0.0005101  -0.0030030  -0.0005146
    9  -0.0086968  -0.0063127   0.0044995   0.0036296   0.0038486   0.0035221
   10  -0.0885074  -0.0165627   0.0067858  -0.0362960  -0.0309406   0.0033690
   11  -0.0101426  -0.1140564   0.0278054  -0.0399933   0.0024046   0.0036061
   12   0.0105585   0.0358653  -0.0748460   0.0055222   0.0086545   0.0166451
   13   0.8138526  -0.0971865   0.1628737  -0.5553512  -0.0051516  -0.0694186
   14  -0.0971865   0.4859942  -0.1967955  -0.0406064  -0.0937294   0.0201248
   15   0.1628737  -0.1967955   0.2880276  -0.0592888   0.0237181  -0.0736909
   16  -0.5553512  -0.0406064  -0.0592888   0.7030420   0.0326021   0.0769877
   17  -0.0051516  -0.0937294   0.0237181   0.0326021   0.2816101  -0.0932580
   18  -0.0694186   0.0201248  -0.0736909   0.0769877  -0.0932580   0.1642387
   19   0.0001309   0.0000646  -0.0007485  -0.0014910   0.0022052  -0.0005112
   20   0.0016635  -0.0054203   0.0039065   0.0273436  -0.0000739   0.0117817
   21  -0.0005778   0.0035131  -0.0012682  -0.0124610  -0.0002857  -0.0070633
   22  -0.0013926  -0.0019078   0.0008408   0.0018006  -0.0010748  -0.0011489
   23  -0.0004343  -0.0009128  -0.0000002   0.0006418  -0.0008968  -0.0020895
   24   0.0029910   0.0002691   0.0006012  -0.0024924   0.0018372  -0.0025206
   25  -0.0007423  -0.0007171   0.0010525   0.0008455   0.0003503  -0.0002138
   26   0.0015060   0.0007003  -0.0012725  -0.0013474   0.0003457  -0.0002530
   27  -0.0002750   0.0004452  -0.0002930   0.0007166  -0.0003123   0.0005265
   28  -0.0044844   0.0016384  -0.0012682  -0.0013253  -0.0004853   0.0005626
   29  -0.0260275   0.0072710   0.0004465  -0.0048668  -0.0056750   0.0011253
   30   0.0094808  -0.0034084  -0.0020265   0.0007648   0.0028885   0.0003892
   31  -0.1166689   0.0905343  -0.0683823  -0.0203421   0.0263183  -0.0172323
   32   0.0965324  -0.1998072   0.1084067   0.0021003   0.0059141  -0.0057466
   33  -0.0741338   0.1102540  -0.1130498   0.0001105  -0.0029268  -0.0039534
   34   0.0054156   0.0158143  -0.0081988  -0.0096922  -0.0182793   0.0089441
   35   0.0001911  -0.0215868   0.0301696  -0.0007121  -0.0229590   0.0358857
   36  -0.0061752   0.0213505  -0.0173790   0.0185258   0.0196778  -0.0234628
   37  -0.0033307  -0.0020408  -0.0023626  -0.0002222  -0.0003572   0.0029643
   38  -0.0010658  -0.0011359   0.0022828  -0.0006899  -0.0047952   0.0043823
   39   0.0008697   0.0016252  -0.0006139  -0.0022234  -0.0011868   0.0006394
           19          20          21          22          23          24
    1  -0.2835702  -0.0067009  -0.1103112   0.0079662   0.0141745   0.0067871
    2  -0.0052376  -0.0486885   0.0028686  -0.0075812  -0.0109937  -0.0180328
    3  -0.1122998   0.0006406  -0.0983981  -0.0015629   0.0000080  -0.0014944
    4   0.0008276  -0.0230965  -0.0180000  -0.1780699   0.1484802   0.0170348
    5   0.0006266   0.0017689   0.0011432   0.1428725  -0.1987254  -0.0404027
    6   0.0017170  -0.0070355  -0.0079545   0.0224592  -0.0351059  -0.0644008
    7   0.0003907  -0.0010799  -0.0000095  -0.0131203  -0.0098122   0.0121662
    8   0.0007867  -0.0030683  -0.0037971   0.0191784   0.0051772   0.0068453
    9   0.0002848  -0.0036310  -0.0020561   0.0073876   0.0004726   0.0134413
   10  -0.0032890  -0.0008905   0.0046227  -0.0051916  -0.0004697  -0.0027123
   11  -0.0015818  -0.0008626   0.0015802   0.0029511   0.0022738  -0.0063670
   12   0.0016827   0.0013788  -0.0011843  -0.0027673  -0.0032915   0.0043319
   13   0.0001309   0.0016635  -0.0005778  -0.0013926  -0.0004343   0.0029910
   14   0.0000646  -0.0054203   0.0035131  -0.0019078  -0.0009128   0.0002691
   15  -0.0007485   0.0039065  -0.0012682   0.0008408  -0.0000002   0.0006012
   16  -0.0014910   0.0273436  -0.0124610   0.0018006   0.0006418  -0.0024924
   17   0.0022052  -0.0000739  -0.0002857  -0.0010748  -0.0008968   0.0018372
   18  -0.0005112   0.0117817  -0.0070633  -0.0011489  -0.0020895  -0.0025206
   19   0.3011028   0.0027648   0.1207828   0.0001505  -0.0006226  -0.0000979
   20   0.0027648   0.0563080  -0.0030324   0.0005752   0.0008255   0.0008630
   21   0.1207828  -0.0030324   0.1017311   0.0009019   0.0006639   0.0006062
   22   0.0001505   0.0005752   0.0009019   0.1874997  -0.1532903  -0.0241673
   23  -0.0006226   0.0008255   0.0006639  -0.1532903   0.2053226   0.0438587
   24  -0.0000979   0.0008630   0.0006062  -0.0241673   0.0438587   0.0355066
   25   0.0002506  -0.0010199  -0.0008065   0.0001191   0.0002464   0.0008084
   26   0.0000768   0.0003917   0.0000439  -0.0012263  -0.0008046   0.0008995
   27   0.0000613   0.0001075   0.0002644   0.0003759   0.0007259  -0.0010337
   28  -0.0002650   0.0000732   0.0005919  -0.0001087  -0.0003014  -0.0000867
   29   0.0000305   0.0003623  -0.0002392   0.0012220   0.0000877   0.0008263
   30  -0.0009587  -0.0001787   0.0013041   0.0003843  -0.0000156   0.0010808
   31  -0.0001307   0.0016772  -0.0007666   0.0001960   0.0002396  -0.0001958
   32  -0.0000123  -0.0002657   0.0000356   0.0002100   0.0004352   0.0003732
   33  -0.0001136  -0.0004164   0.0007574  -0.0001539   0.0002122   0.0013429
   34  -0.0145030  -0.0015124   0.0170056  -0.0003428   0.0005765  -0.0096193
   35   0.0008856  -0.0014572  -0.0023514  -0.0019192  -0.0013200   0.0081720
   36  -0.0102029  -0.0043375   0.0132450  -0.0026227  -0.0049256   0.0123929
   37   0.0003957   0.0002026  -0.0009720   0.0004939   0.0005713  -0.0004156
   38   0.0000135   0.0001803  -0.0001427  -0.0000097  -0.0004687   0.0008581
   39   0.0004041  -0.0000467   0.0000163   0.0000733  -0.0005129   0.0001457
           25          26          27          28          29          30
    1  -0.0036959   0.0006302   0.0021492  -0.0024609  -0.0001808  -0.0049881
    2   0.0019872  -0.0017295   0.0026905   0.0004158  -0.0016490   0.0012727
    3  -0.0035082  -0.0026630   0.0025779  -0.0012602   0.0022307  -0.0040396
    4  -0.0036131  -0.0022459   0.0064491  -0.0000775   0.0015537   0.0007224
    5  -0.0173265   0.0029122   0.0004785   0.0003572  -0.0040245  -0.0040783
    6  -0.0179397  -0.0072372   0.0085959   0.0014873  -0.0034546  -0.0037063
    7  -0.1053232  -0.0492880  -0.1196016  -0.0044919   0.0236553   0.0194577
    8  -0.0555237  -0.1147886  -0.1350886   0.0010906   0.0012514   0.0027819
    9  -0.1038300  -0.1259982  -0.2015753   0.0009638  -0.0014334  -0.0007468
   10   0.0084263  -0.0101653  -0.0047894  -0.3161849  -0.0019936   0.0562359
   11   0.0050665  -0.0038877   0.0014905  -0.0027314  -0.0459950   0.0037967
   12   0.0074257  -0.0058192  -0.0023404   0.0545793   0.0041297  -0.0630276
   13  -0.0007423   0.0015060  -0.0002750  -0.0044844  -0.0260275   0.0094808
   14  -0.0007171   0.0007003   0.0004452   0.0016384   0.0072710  -0.0034084
   15   0.0010525  -0.0012725  -0.0002930  -0.0012682   0.0004465  -0.0020265
   16   0.0008455  -0.0013474   0.0007166  -0.0013253  -0.0048668   0.0007648
   17   0.0003503   0.0003457  -0.0003123  -0.0004853  -0.0056750   0.0028885
   18  -0.0002138  -0.0002530   0.0005265   0.0005626   0.0011253   0.0003892
   19   0.0002506   0.0000768   0.0000613  -0.0002650   0.0000305  -0.0009587
   20  -0.0010199   0.0003917   0.0001075   0.0000732   0.0003623  -0.0001787
   21  -0.0008065   0.0000439   0.0002644   0.0005919  -0.0002392   0.0013041
   22   0.0001191  -0.0012263   0.0003759  -0.0001087   0.0012220   0.0003843
   23   0.0002464  -0.0008046   0.0007259  -0.0003014   0.0000877  -0.0000156
   24   0.0008084   0.0008995  -0.0010337  -0.0000867   0.0008263   0.0010808
   25   0.1047584   0.0660967   0.1133932   0.0000621  -0.0009254  -0.0006337
   26   0.0660967   0.1111878   0.1369034   0.0004516   0.0006236   0.0004637
   27   0.1133932   0.1369034   0.2063228   0.0001018   0.0000712   0.0001796
   28   0.0000621   0.0004516   0.0001018   0.3372862   0.0024513  -0.0606752
   29  -0.0009254   0.0006236   0.0000712   0.0024513   0.0486936   0.0000618
   30  -0.0006337   0.0004637   0.0001796  -0.0606752   0.0000618   0.0575565
   31   0.0001944  -0.0001362  -0.0000667   0.0000174   0.0011800  -0.0004084
   32   0.0001719  -0.0003094  -0.0001681  -0.0005516   0.0001783  -0.0000335
   33  -0.0000641   0.0001751  -0.0000148   0.0002958  -0.0001199   0.0000485
   34  -0.0015218  -0.0036780   0.0014275  -0.0081056   0.0040502  -0.0203750
   35   0.0017137   0.0061528  -0.0071321  -0.0023802  -0.0013208  -0.0036406
   36   0.0042608   0.0056733  -0.0132296   0.0050714  -0.0035972   0.0127490
   37   0.0002401  -0.0006742   0.0000582   0.0001384  -0.0001489   0.0009932
   38  -0.0001202  -0.0007944  -0.0002117  -0.0000282   0.0001963   0.0000898
   39   0.0000555  -0.0009159   0.0000196  -0.0003637  -0.0000471   0.0002393
           31          32          33          34          35          36
    1  -0.0059266  -0.0009335  -0.0006414  -0.1685796  -0.0192098   0.0622237
    2  -0.0024802   0.0049372   0.0079468  -0.0681262  -0.0000477   0.0835587
    3  -0.0020699   0.0059534   0.0088502   0.0686393   0.0240781  -0.1060705
    4   0.0008385  -0.0004809  -0.0017707  -0.0145837   0.0113937   0.0188292
    5  -0.0007261   0.0011988   0.0019166   0.0056783   0.0097393   0.0045959
    6  -0.0002335   0.0006328   0.0006620  -0.0295005   0.0817038   0.0436685
    7  -0.0006760  -0.0015678  -0.0006559   0.0407496  -0.0676693  -0.0760874
    8   0.0003915   0.0010432   0.0009473  -0.0123845   0.0055102  -0.0202346
    9   0.0007606   0.0002651  -0.0009907  -0.0005882  -0.0584934  -0.0732747
   10   0.0086918   0.0102978  -0.0049645  -0.1149613  -0.0010840  -0.0381970
   11  -0.0084841  -0.0063153   0.0024794   0.0062689  -0.0407600   0.0236662
   12   0.0059178   0.0093257   0.0013610  -0.0478743   0.0261641  -0.1142399
   13  -0.1166689   0.0965324  -0.0741338   0.0054156   0.0001911  -0.0061752
   14   0.0905343  -0.1998072   0.1102540   0.0158143  -0.0215868   0.0213505
   15  -0.0683823   0.1084067  -0.1130498  -0.0081988   0.0301696  -0.0173790
   16  -0.0203421   0.0021003   0.0001105  -0.0096922  -0.0007121   0.0185258
   17   0.0263183   0.0059141  -0.0029268  -0.0182793  -0.0229590   0.0196778
   18  -0.0172323  -0.0057466  -0.0039534   0.0089441   0.0358857  -0.0234628
   19  -0.0001307  -0.0000123  -0.0001136  -0.0145030   0.0008856  -0.0102029
   20   0.0016772  -0.0002657  -0.0004164  -0.0015124  -0.0014572  -0.0043375
   21  -0.0007666   0.0000356   0.0007574   0.0170056  -0.0023514   0.0132450
   22   0.0001960   0.0002100  -0.0001539  -0.0003428  -0.0019192  -0.0026227
   23   0.0002396   0.0004352   0.0002122   0.0005765  -0.0013200  -0.0049256
   24  -0.0001958   0.0003732   0.0013429  -0.0096193   0.0081720   0.0123929
   25   0.0001944   0.0001719  -0.0000641  -0.0015218   0.0017137   0.0042608
   26  -0.0001362  -0.0003094   0.0001751  -0.0036780   0.0061528   0.0056733
   27  -0.0000667  -0.0001681  -0.0000148   0.0014275  -0.0071321  -0.0132296
   28   0.0000174  -0.0005516   0.0002958  -0.0081056  -0.0023802   0.0050714
   29   0.0011800   0.0001783  -0.0001199   0.0040502  -0.0013208  -0.0035972
   30  -0.0004084  -0.0000335   0.0000485  -0.0203750  -0.0036406   0.0127490
   31   0.1337584  -0.1062332   0.0812902  -0.0007023  -0.0021371   0.0010724
   32  -0.1062332   0.1970405  -0.1185452  -0.0003695  -0.0039184  -0.0004796
   33   0.0812902  -0.1185452   0.1067539   0.0008916  -0.0020470  -0.0013577
   34  -0.0007023  -0.0003695   0.0008916   0.3408410   0.0974198  -0.0008734
   35  -0.0021371  -0.0039184  -0.0020470   0.0974198   0.1726459  -0.3002773
   36   0.0010724  -0.0004796  -0.0013577  -0.0008734  -0.3002773   0.5245453
   37   0.0007503   0.0008364  -0.0000902  -0.0540139  -0.0164921   0.0241753
   38  -0.0001439  -0.0001314   0.0001238  -0.0254580  -0.1006782   0.1753296
   39   0.0003146  -0.0000195  -0.0004094   0.0201214   0.1677684  -0.2575863
           37          38          39
    1   0.0050325   0.0083052  -0.0024223
    2  -0.0085379  -0.0041087  -0.0020362
    3   0.0141886  -0.0034648  -0.0018811
    4  -0.0016149  -0.0003228   0.0005809
    5  -0.0039528   0.0045074   0.0018359
    6   0.0014740  -0.0097200  -0.0067796
    7  -0.0010678   0.0033614   0.0024206
    8   0.0025159  -0.0010384  -0.0006366
    9  -0.0003410   0.0023406   0.0024964
   10   0.0082607  -0.0022967   0.0059520
   11   0.0096227  -0.0020249   0.0033153
   12  -0.0138894  -0.0027247  -0.0026222
   13  -0.0033307  -0.0010658   0.0008697
   14  -0.0020408  -0.0011359   0.0016252
   15  -0.0023626   0.0022828  -0.0006139
   16  -0.0002222  -0.0006899  -0.0022234
   17  -0.0003572  -0.0047952  -0.0011868
   18   0.0029643   0.0043823   0.0006394
   19   0.0003957   0.0000135   0.0004041
   20   0.0002026   0.0001803  -0.0000467
   21  -0.0009720  -0.0001427   0.0000163
   22   0.0004939  -0.0000097   0.0000733
   23   0.0005713  -0.0004687  -0.0005129
   24  -0.0004156   0.0008581   0.0001457
   25   0.0002401  -0.0001202   0.0000555
   26  -0.0006742  -0.0007944  -0.0009159
   27   0.0000582  -0.0002117   0.0000196
   28   0.0001384  -0.0000282  -0.0003637
   29  -0.0001489   0.0001963  -0.0000471
   30   0.0009932   0.0000898   0.0002393
   31   0.0007503  -0.0001439   0.0003146
   32   0.0008364  -0.0001314  -0.0000195
   33  -0.0000902   0.0001238  -0.0004094
   34  -0.0540139  -0.0254580   0.0201214
   35  -0.0164921  -0.1006782   0.1677684
   36   0.0241753   0.1753296  -0.2575863
   37   0.0449378   0.0184551  -0.0257827
   38   0.0184551   0.1102916  -0.1691431
   39  -0.0257827  -0.1691431   0.2663358
 Gradient time:  CPU 256.55 s  wall 257.11 s
 **********************************************************************
 **                                                                  **
 **                       VIBRATIONAL ANALYSIS                       **
 **                       --------------------                       **
 **                                                                  **
 **        VIBRATIONAL FREQUENCIES (CM**-1) AND NORMAL MODES         **
 **     FORCE CONSTANTS (mDYN/ANGSTROM) AND REDUCED MASSES (AMU)     **
 **                  INFRARED INTENSITIES (KM/MOL)                   **
 **                                                                  **
 **********************************************************************
 

 Mode:                 1                      2                      3
 Frequency:      -694.86                 247.67                 427.29
 Force Cnst:      1.1082                 0.0393                 0.2704
 Red. Mass:       3.8956                 1.0864                 2.5134
 IR Active:          YES                    YES                    YES
 IR Intens:       59.436                 20.701                  0.723
 Raman Active:       YES                    YES                    YES
               X      Y      Z        X      Y      Z        X      Y      Z
 C         -0.050 -0.138  0.019   -0.023 -0.032  0.015   -0.009  0.016  0.110
 C          0.069 -0.013 -0.274    0.012 -0.018 -0.052    0.004  0.116 -0.036
 C          0.112 -0.033  0.058    0.020  0.010 -0.028   -0.007  0.163 -0.028
 C          0.012 -0.009  0.011    0.004 -0.019  0.011   -0.018 -0.000  0.134
 C          0.010 -0.002  0.001   -0.000 -0.005  0.012    0.010 -0.142 -0.117
 N         -0.003 -0.030  0.011    0.000 -0.002  0.002    0.003 -0.106 -0.075
 H         -0.040 -0.074  0.005   -0.025 -0.033  0.019   -0.009  0.025  0.109
 H          0.109  0.089 -0.554    0.051  0.052 -0.207    0.032  0.186 -0.235
 H         -0.074 -0.277  0.328   -0.006  0.032 -0.025    0.103  0.523 -0.338
 H         -0.009 -0.031 -0.097    0.001 -0.038 -0.009   -0.016  0.012  0.139
 H          0.004  0.047  0.075   -0.014  0.008  0.043    0.047 -0.346 -0.441
 C         -0.139  0.282  0.209   -0.010 -0.004  0.011    0.000 -0.049  0.088
 H         -0.113 -0.373 -0.209   -0.055  0.811  0.527    0.033 -0.162  0.020
 TransDip  -0.065 -0.051 -0.233   -0.030  0.112  0.089    0.010  0.020 -0.016

 Mode:                 4                      5                      6
 Frequency:       476.86                 555.75                 599.47
 Force Cnst:      0.5290                 0.2765                 0.9118
 Red. Mass:       3.9487                 1.5194                 4.3065
 IR Active:          YES                    YES                    YES
 IR Intens:        1.646                 39.431                 10.320
 Raman Active:       YES                    YES                    YES
               X      Y      Z        X      Y      Z        X      Y      Z
 C          0.009  0.063  0.035   -0.002  0.009  0.014    0.068 -0.058 -0.069
 C         -0.055  0.120 -0.144   -0.014  0.006  0.005   -0.109 -0.192  0.059
 C         -0.152 -0.150  0.111    0.054  0.155 -0.110   -0.009  0.084 -0.163
 C          0.004 -0.009 -0.012    0.010  0.008  0.014    0.084 -0.054 -0.021
 C          0.104 -0.097 -0.199   -0.015 -0.026 -0.013   -0.052 -0.127 -0.108
 N          0.041  0.158  0.231   -0.015 -0.024 -0.009   -0.099  0.111  0.208
 H          0.021 -0.090  0.010    0.014  0.010 -0.019    0.148 -0.102 -0.235
 H         -0.014  0.170 -0.200   -0.111 -0.127  0.237   -0.209 -0.327  0.250
 H         -0.249 -0.370  0.315   -0.324 -0.582  0.628   -0.016  0.405 -0.373
 H          0.015  0.188  0.052    0.002 -0.046 -0.032    0.091 -0.094  0.016
 H          0.153 -0.263 -0.480   -0.002 -0.093 -0.120   -0.098 -0.186 -0.142
 C          0.045 -0.087 -0.041    0.019 -0.053  0.036    0.126  0.239  0.100
 H          0.045  0.068  0.056    0.013 -0.005  0.067    0.150  0.050 -0.014
 TransDip   0.003 -0.023 -0.034   -0.084 -0.177  0.048   -0.023 -0.047 -0.089

 Mode:                 7                      8                      9
 Frequency:       743.87                 784.33                 837.09
 Force Cnst:      2.0580                 2.7973                 0.8672
 Red. Mass:       6.3127                 7.7179                 2.1005
 IR Active:          YES                    YES                    YES
 IR Intens:        4.634                  5.774                  8.086
 Raman Active:       YES                    YES                    YES
               X      Y      Z        X      Y      Z        X      Y      Z
 C          0.066  0.160  0.057   -0.223  0.075  0.125    0.017 -0.029 -0.092
 C         -0.154  0.252  0.000   -0.165 -0.140  0.032   -0.062  0.084  0.119
 C         -0.126 -0.098 -0.206   -0.033 -0.142 -0.226    0.000  0.070  0.048
 C         -0.099 -0.242 -0.060    0.196 -0.163  0.119   -0.042 -0.064 -0.117
 C          0.099 -0.173  0.237    0.111  0.130  0.016    0.039 -0.041 -0.082
 N          0.157 -0.129 -0.026    0.147  0.344 -0.246    0.009  0.007  0.004
 H          0.073 -0.094  0.047   -0.173 -0.053  0.010    0.131 -0.074 -0.333
 H         -0.110  0.239  0.275    0.128  0.165 -0.143    0.084  0.323 -0.348
 H          0.050 -0.368 -0.127   -0.157 -0.063 -0.208    0.069  0.002  0.064
 H         -0.066 -0.096  0.095    0.181 -0.072  0.046   -0.103  0.038 -0.400
 H          0.115 -0.137  0.287   -0.226 -0.145 -0.044   -0.061  0.283  0.478
 C          0.011  0.275 -0.040   -0.044 -0.118  0.241    0.020 -0.068  0.152
 H          0.185  0.180 -0.077    0.083 -0.353  0.110    0.089 -0.095  0.156
 TransDip   0.000 -0.037  0.058   -0.055 -0.051 -0.015   -0.005  0.054 -0.073

 Mode:                10                     11                     12
 Frequency:       854.63                 879.72                 893.16
 Force Cnst:      1.5859                 0.9888                 0.7739
 Red. Mass:       3.6853                 2.1686                 1.6466
 IR Active:          YES                    YES                    YES
 IR Intens:       16.332                  6.172                  2.044
 Raman Active:       YES                    YES                    YES
               X      Y      Z        X      Y      Z        X      Y      Z
 C          0.081 -0.040 -0.061   -0.015 -0.038 -0.083   -0.051 -0.046 -0.036
 C          0.057 -0.061  0.048   -0.013 -0.037  0.093    0.079  0.067 -0.097
 C         -0.001  0.170  0.114    0.045  0.048 -0.010   -0.020  0.027  0.064
 C         -0.048 -0.123  0.055   -0.143 -0.135  0.084   -0.073 -0.095 -0.005
 C          0.062 -0.196  0.047    0.029  0.158 -0.036    0.034  0.044 -0.024
 N          0.081  0.210 -0.059    0.036 -0.001  0.050    0.034  0.040 -0.016
 H         -0.099 -0.026  0.317   -0.053 -0.102 -0.003   -0.080 -0.064  0.023
 H         -0.113 -0.159 -0.250    0.142  0.195 -0.332   -0.224 -0.378  0.691
 H         -0.197  0.185  0.226    0.137 -0.133  0.060   -0.014  0.227 -0.074
 H         -0.062 -0.034 -0.004   -0.105 -0.413  0.272   -0.116 -0.169 -0.203
 H         -0.291 -0.264  0.320    0.332  0.061 -0.493    0.063  0.079 -0.012
 C         -0.151  0.028 -0.169   -0.003  0.040 -0.058   -0.003 -0.020  0.068
 H         -0.359  0.030 -0.197    0.238 -0.011 -0.068    0.302  0.024  0.137
 TransDip  -0.094 -0.079  0.041    0.025  0.010 -0.075   -0.002 -0.022  0.040

 Mode:                13                     14                     15
 Frequency:       914.44                 926.37                 962.09
 Force Cnst:      1.2092                 0.8114                 0.9544
 Red. Mass:       2.4544                 1.6048                 1.7501
 IR Active:          YES                    YES                    YES
 IR Intens:        3.264                 14.093                  1.184
 Raman Active:       YES                    YES                    YES
               X      Y      Z        X      Y      Z        X      Y      Z
 C          0.055  0.062  0.193   -0.034 -0.024  0.035   -0.098  0.102 -0.019
 C         -0.023 -0.071 -0.036    0.015  0.030 -0.002    0.021 -0.122 -0.015
 C         -0.088  0.062  0.072    0.001 -0.012 -0.058    0.034  0.000 -0.022
 C          0.052 -0.127 -0.136    0.006 -0.009  0.113   -0.108  0.073  0.020
 C         -0.030  0.089 -0.045    0.024 -0.012 -0.171    0.038 -0.079  0.010
 N         -0.029 -0.049 -0.027   -0.007 -0.016  0.022    0.033 -0.014  0.027
 H         -0.030  0.256  0.384   -0.086 -0.000  0.141   -0.252  0.221  0.304
 H         -0.127 -0.108 -0.338    0.020  0.000  0.148    0.074 -0.038 -0.193
 H         -0.425  0.233  0.159    0.050 -0.113 -0.020   -0.008 -0.012  0.007
 H          0.060 -0.379 -0.104    0.078 -0.042  0.457   -0.169  0.288 -0.259
 H          0.042  0.252  0.105   -0.072  0.493  0.640    0.000  0.005  0.174
 C          0.097  0.023 -0.029   -0.003  0.017 -0.051    0.047  0.008 -0.010
 H          0.121 -0.028 -0.062   -0.019  0.005 -0.066    0.687 -0.048  0.023
 TransDip   0.004  0.054  0.021   -0.023  0.073  0.093   -0.034  0.003  0.005

 Mode:                16                     17                     18
 Frequency:       980.81                1024.28                1098.29
 Force Cnst:      1.2796                 1.3811                 1.1769
 Red. Mass:       2.2577                 2.2342                 1.6560
 IR Active:          YES                    YES                    YES
 IR Intens:        3.252                  2.009                  1.226
 Raman Active:       YES                    YES                    YES
               X      Y      Z        X      Y      Z        X      Y      Z
 C          0.155 -0.116  0.138    0.128  0.196 -0.029   -0.091  0.056 -0.053
 C         -0.025  0.015 -0.010    0.015 -0.105 -0.067   -0.105  0.028 -0.021
 C          0.005 -0.023 -0.033    0.004 -0.027 -0.034    0.050  0.052  0.083
 C         -0.152  0.047 -0.026   -0.108 -0.022  0.063    0.125 -0.029 -0.004
 C         -0.046  0.019 -0.011    0.032  0.009 -0.027    0.019 -0.004  0.006
 N         -0.023  0.104 -0.075    0.028 -0.021  0.023    0.008 -0.037  0.025
 H          0.124 -0.098  0.223    0.269  0.486 -0.313   -0.146  0.141  0.043
 H         -0.353 -0.254 -0.206   -0.175 -0.293 -0.057   -0.534 -0.318 -0.208
 H          0.564 -0.386 -0.123    0.045  0.008 -0.093    0.615 -0.218 -0.054
 H         -0.141  0.203  0.062   -0.124 -0.057  0.018    0.143 -0.126  0.029
 H         -0.102 -0.012 -0.011    0.217  0.195  0.045   -0.024 -0.041  0.004
 C          0.069 -0.015  0.030   -0.082 -0.053  0.093   -0.014 -0.014 -0.024
 H          0.148 -0.017  0.045   -0.489 -0.027  0.081    0.023  0.023 -0.003
 TransDip   0.025 -0.032  0.041   -0.001  0.033 -0.031   -0.004 -0.023 -0.027

 Mode:                19                     20                     21
 Frequency:      1164.36                1192.15                1220.53
 Force Cnst:      1.2951                 1.4547                 1.3750
 Red. Mass:       1.6214                 1.7373                 1.5666
 IR Active:          YES                    YES                    YES
 IR Intens:       11.878                  1.146                  7.770
 Raman Active:       YES                    YES                    YES
               X      Y      Z        X      Y      Z        X      Y      Z
 C          0.062 -0.058 -0.118   -0.125  0.011  0.043    0.057  0.013  0.056
 C          0.051  0.042  0.040    0.067 -0.050 -0.013    0.017  0.017  0.026
 C         -0.077 -0.004 -0.050   -0.008  0.071  0.039    0.031 -0.014 -0.007
 C          0.055 -0.078 -0.013   -0.063 -0.064 -0.138    0.055 -0.056  0.019
 C          0.007  0.047  0.005    0.025 -0.015  0.031   -0.002  0.048 -0.020
 N         -0.040 -0.020  0.014    0.012  0.009 -0.008   -0.027 -0.024  0.009
 H         -0.252  0.492  0.544    0.062  0.036 -0.366    0.277 -0.076 -0.398
 H         -0.017 -0.007 -0.042    0.079 -0.050  0.018   -0.187 -0.143 -0.124
 H         -0.044 -0.061 -0.037    0.100 -0.001  0.031   -0.171  0.095  0.040
 H          0.080  0.535  0.126    0.105  0.481  0.709    0.066  0.402  0.069
 H          0.053 -0.002 -0.121    0.033 -0.044 -0.018   -0.141 -0.038 -0.006
 C         -0.032 -0.005  0.072    0.071  0.003  0.017   -0.167 -0.002 -0.054
 H         -0.040 -0.012  0.079   -0.156 -0.014 -0.020    0.635  0.023  0.048
 TransDip   0.027  0.106  0.013   -0.001 -0.013  0.032    0.058  0.051 -0.044

 Mode:                22                     23                     24
 Frequency:      1256.78                1284.78                1327.12
 Force Cnst:      1.4725                 1.2163                 1.6340
 Red. Mass:       1.5822                 1.2507                 1.5746
 IR Active:          YES                    YES                    YES
 IR Intens:        4.909                  1.048                  0.201
 Raman Active:       YES                    YES                    YES
               X      Y      Z        X      Y      Z        X      Y      Z
 C          0.026 -0.015 -0.048   -0.016  0.040 -0.019   -0.080 -0.130  0.056
 C          0.004  0.038  0.030   -0.000  0.036  0.027    0.018  0.056  0.044
 C          0.024 -0.045 -0.017    0.078 -0.043 -0.011   -0.005 -0.028 -0.027
 C         -0.018  0.118 -0.113    0.007 -0.015  0.009    0.003  0.018  0.043
 C         -0.002 -0.059  0.021   -0.032 -0.053  0.024    0.052 -0.051  0.033
 N          0.031  0.026 -0.003   -0.045  0.029 -0.030   -0.034  0.044 -0.017
 H         -0.048  0.169  0.113   -0.090 -0.452  0.136    0.112  0.733 -0.378
 H         -0.146 -0.073 -0.102   -0.276 -0.175 -0.169   -0.153 -0.068 -0.111
 H         -0.222  0.123  0.011   -0.236  0.166  0.039   -0.114  0.014  0.005
 H          0.136 -0.559  0.600    0.008  0.223  0.013   -0.048 -0.093 -0.213
 H          0.035 -0.050  0.010    0.593  0.331 -0.069    0.354  0.110 -0.038
 C         -0.075 -0.031  0.066    0.025 -0.005  0.009    0.039  0.024 -0.061
 H          0.304 -0.035  0.123   -0.111 -0.010 -0.009   -0.004  0.025 -0.082
 TransDip  -0.025 -0.051  0.043   -0.020 -0.025  0.007    0.003 -0.005 -0.013

 Mode:                25                     26                     27
 Frequency:      1331.40                1440.95                1647.28
 Force Cnst:      1.6410                 3.6405                11.9661
 Red. Mass:       1.5713                 2.9758                 7.4846
 IR Active:          YES                    YES                    YES
 IR Intens:       19.997                  0.956                 30.641
 Raman Active:       YES                    YES                    YES
               X      Y      Z        X      Y      Z        X      Y      Z
 C          0.053  0.002  0.018   -0.062  0.054 -0.005    0.036  0.052 -0.006
 C         -0.033 -0.070 -0.054    0.285 -0.004  0.090   -0.034 -0.015 -0.013
 C         -0.073  0.076  0.041   -0.262  0.028 -0.073    0.037 -0.016 -0.002
 C          0.065  0.003 -0.018    0.054  0.046  0.015   -0.058  0.025 -0.013
 C         -0.008 -0.075  0.033    0.009 -0.016  0.006    0.566  0.063  0.055
 N         -0.056  0.045 -0.035   -0.015 -0.012  0.005   -0.456 -0.022 -0.059
 H          0.061  0.020  0.014    0.009 -0.434 -0.157   -0.039 -0.320  0.149
 H          0.387  0.249  0.264   -0.130 -0.335 -0.417   -0.009 -0.007  0.047
 H          0.353 -0.184 -0.030    0.179 -0.352 -0.126   -0.041  0.050 -0.000
 H          0.088 -0.059  0.041    0.019 -0.315 -0.176   -0.034 -0.230  0.115
 H          0.570  0.282 -0.039    0.037 -0.004  0.008   -0.151 -0.435  0.183
 C         -0.087 -0.014 -0.004   -0.018  0.029  0.033    0.013 -0.004  0.006
 H          0.287 -0.000  0.050    0.024 -0.030 -0.000   -0.062  0.005  0.001
 TransDip   0.135 -0.042  0.023    0.017  0.026  0.001    0.126  0.125  0.001

 Mode:                28                     29                     30
 Frequency:      3148.77                3181.01                3189.79
 Force Cnst:      6.3659                 6.4977                 6.5482
 Red. Mass:       1.0898                 1.0899                 1.0923
 IR Active:          YES                    YES                    YES
 IR Intens:       19.718                  8.734                 49.108
 Raman Active:       YES                    YES                    YES
               X      Y      Z        X      Y      Z        X      Y      Z
 C          0.000  0.000  0.000   -0.053  0.000 -0.024    0.029  0.002  0.014
 C          0.002 -0.002 -0.000    0.044 -0.045 -0.008    0.023 -0.024 -0.005
 C          0.002  0.001  0.002    0.001  0.005  0.006   -0.000  0.002  0.002
 C         -0.084 -0.001  0.017    0.002  0.000 -0.000    0.009  0.002 -0.002
 C          0.006 -0.006  0.005   -0.001  0.002 -0.001    0.039 -0.051  0.036
 N         -0.000  0.000  0.000   -0.000  0.000  0.000   -0.003 -0.000 -0.000
 H          0.002  0.000  0.000    0.609  0.001  0.285   -0.338 -0.004 -0.160
 H         -0.013  0.014  0.003   -0.491  0.524  0.108   -0.253  0.275  0.056
 H         -0.020 -0.019 -0.031   -0.044 -0.054 -0.079   -0.018 -0.023 -0.033
 H          0.967  0.007 -0.201   -0.014 -0.001  0.004   -0.107 -0.006  0.024
 H         -0.064  0.082 -0.059    0.018 -0.025  0.018   -0.423  0.587 -0.414
 C          0.002  0.001 -0.002    0.000 -0.001  0.002   -0.001  0.001 -0.001
 H         -0.006 -0.016  0.023    0.002  0.016 -0.026    0.001 -0.006  0.010
 TransDip  -0.139 -0.005  0.032   -0.034 -0.064 -0.062    0.160 -0.145  0.062

 Mode:                31                     32                     33
 Frequency:      3191.65                3240.07                3281.27
 Force Cnst:      6.5644                 6.7789                 6.9433
 Red. Mass:       1.0938                 1.0960                 1.0945
 IR Active:          YES                    YES                    YES
 IR Intens:        8.464                  5.326                  0.720
 Raman Active:       YES                    YES                    YES
               X      Y      Z        X      Y      Z        X      Y      Z
 C         -0.050 -0.001 -0.024    0.002  0.001  0.001   -0.007 -0.001  0.000
 C         -0.033  0.035  0.007    0.014 -0.010 -0.001   -0.001  0.001  0.000
 C         -0.002 -0.005 -0.006   -0.041 -0.044 -0.063    0.001  0.001  0.002
 C          0.005  0.001 -0.001   -0.004  0.002  0.002    0.004 -0.000  0.002
 C          0.025 -0.033  0.023   -0.001  0.002 -0.001    0.001 -0.001  0.001
 N         -0.001 -0.000 -0.000    0.000  0.000  0.000   -0.001 -0.000  0.000
 H          0.571  0.005  0.270   -0.015 -0.000 -0.007    0.049  0.001  0.019
 H          0.366 -0.396 -0.082   -0.104  0.109  0.018    0.007 -0.008 -0.004
 H          0.050  0.058  0.085    0.436  0.496  0.728   -0.007 -0.009 -0.010
 H         -0.046 -0.004  0.011    0.037 -0.003 -0.010   -0.030  0.000  0.002
 H         -0.268  0.371 -0.263    0.011 -0.016  0.011   -0.004  0.006 -0.006
 C          0.000 -0.002  0.003   -0.000  0.002 -0.001    0.009  0.046 -0.075
 H          0.003  0.025 -0.039   -0.003 -0.014  0.016   -0.094 -0.535  0.833
 TransDip  -0.092 -0.015  0.008   -0.020 -0.054 -0.046    0.010  0.021 -0.014

 STANDARD THERMODYNAMIC QUANTITIES AT   298.15 K  AND     1.00 ATM

   This Molecule has  1 Imaginary Frequencies
   Zero point vibrational energy:       63.336 kcal/mol

   Atom    1 Element C  Has Mass   12.00000
   Atom    2 Element C  Has Mass   12.00000
   Atom    3 Element C  Has Mass   12.00000
   Atom    4 Element C  Has Mass   12.00000
   Atom    5 Element C  Has Mass   12.00000
   Atom    6 Element N  Has Mass   14.00307
   Atom    7 Element H  Has Mass    1.00783
   Atom    8 Element H  Has Mass    1.00783
   Atom    9 Element H  Has Mass    1.00783
   Atom   10 Element H  Has Mass    1.00783
   Atom   11 Element H  Has Mass    1.00783
   Atom   12 Element C  Has Mass   12.00000
   Atom   13 Element H  Has Mass    1.00783
   Molecular Mass:    92.050050 amu
   Principal axes and moments of inertia in amu*Bohr^2:
                             1           2           3
    Eigenvalues --      379.27607   459.30687   562.59148
          X               0.12561     0.95252    -0.27737
          Y               0.99190    -0.12586     0.01698
          Z               0.01873     0.27726     0.96061
   Rotational Symmetry Number is   1
   The Molecule is an Asymmetric Top
   Translational Enthalpy:        0.889 kcal/mol
   Rotational Enthalpy:           0.889 kcal/mol
   Vibrational Enthalpy:         64.675 kcal/mol
   gas constant (RT):             0.592 kcal/mol
   Translational Entropy:        39.471  cal/mol.K
   Rotational Entropy:           26.085  cal/mol.K
   Vibrational Entropy:           6.311  cal/mol.K

   Total Enthalpy:               67.045 kcal/mol
   Total Entropy:                71.868  cal/mol.K
Archival summary:
1\1\c8-73\FREQ\ProcedureUnspecified\6-31G*\166(2)\hpark21\ThuMar321:58:402022ThuMar321:58:402022\0\\#,FREQ,ProcedureUnspecified,6-31G*,\\0,2\N\C,1,1.28115\H,2,1.0884,1,122.321\C,1,1.46795,2,104.905,3,-176.216,0\H,4,1.08724,1,114.752,2,-163.303,0\C,4,1.49349,1,106.942,2,-26.6761,0\H,6,1.08058,4,131.447,1,-152.277,0\C,4,1.52468,1,113.405,2,60.1299,0\H,8,1.08794,4,120.894,1,129.7,0\C,8,1.3912,4,112.076,1,-50.5446,0\H,10,1.0835,8,129.65,4,157.9,0\C,10,1.53196,8,99.9101,4,-16.4052,0\H,12,1.09045,10,117.863,8,-154.374,0\\\@

 Total job time:  261.19s(wall), 260.09s(cpu) 
 Thu Mar  3 21:58:40 2022

        *************************************************************
        *                                                           *
        *  Thank you very much for using Q-Chem.  Have a nice day.  *
        *                                                           *
        *************************************************************


