
Running Job 1 of 1 qcts2.in
qchem qcts2.in_8409.0 ./qcts2.d/ 1
/home/leeping/opt/qchem/5.0.2-openmp/exe/qcprog.exe_s qcts2.in_8409.0 ./qcts2.d/
Check license passed

                  Welcome to Q-Chem
     A Quantum Leap Into The Future Of Chemistry


 Q-Chem 5.0, Q-Chem, Inc., Pleasanton, CA (2017)

 Yihan Shao,  Zhengting Gan,  E. Epifanovsky,  A. T. B. Gilbert,  M. Wormit,  
 J. Kussmann,  A. W. Lange,  A. Behn,  Jia Deng,  Xintian Feng,  D. Ghosh,  
 M. Goldey,  P. R. Horn,  L. D. Jacobson,  I. Kaliman,  T. Kus,  A. Landau,  
 Jie Liu,  E. I. Proynov,  R. M. Richard,  R. P. Steele,  E. J. Sundstrom,  
 H. L. Woodcock III,  P. M. Zimmerman,  D. Zuev,  B. Albrecht,  E. Alguire,  
 S. A. Baeppler,  D. Barton,  Z. Benda,  Y. A. Bernard,  E. J. Berquist,  
 K. B. Bravaya,  H. Burton,  D. Casanova,  Chun-Min Chang,  Yunqing Chen,  
 A. Chien,  K. D. Closser,  M. P. Coons,  S. Dasgupta,  A. L. Dempwolff,  
 M. Diedenhofen,  Hainam Do,  R. G. Edgar,  Po-Tung Fang,  S. Fatehi,  
 Qingguo Feng,  J. Fosso-Tande,  Qinghui Ge,  A. Ghysels,  G. Gidofalvi,  
 J. Gomes,  J. Gonthier,  A. Gunina,  M. W. D. Hanson-Heine,  
 P. H. P. Harbach,  A. W. Hauser,  J. E. Herr,  E. G. Hohenstein,  
 Z. C. Holden,  Kerwin Hui,  T.-C. Jagau,  Hyunjun Ji,  B. Kaduk,  
 K. Khistyaev,  Jaehoon Kim,  P. Klunzinger,  K. Koh,  D. Kosenkov,  
 L. Koulias,  T. Kowalczyk,  C. M. Krauter,  A. Kunitsa,  Ka Un Lao,  
 A. Laurent,  K. V. Lawler,  Joonho Lee,  D. Lefrancois,  S. Lehtola,  
 D. S. Levine,  Yi-Pei Li,  You-Sheng Lin,  Fenglai Liu,  E. Livshits,  
 A. Luenser,  P. Manohar,  E. Mansoor,  S. F. Manzer,  Shan-Ping Mao,  
 Yuezhi Mao,  N. Mardirossian,  A. V. Marenich,  T. Markovich,  
 L. A. Martinez-Martinez,  S. A. Maurer,  N. J. Mayhall,  S. C. McKenzie,  
 J.-M. Mewes,  A. F. Morrison,  J. W. Mullinax,  K. Nanda,  
 T. S. Nguyen-Beck,  R. Olivares-Amaya,  J. A. Parkhill,  T. M. Perrine,  
 F. Plasser,  S. Prager,  A. Prociuk,  E. Ramos,  D. R. Rehn,  F. Rob,  
 M. Schneider,  N. Sergueev,  S. M. Sharada,  S. Sharma,  D. W. Small,  
 T. Stauch,  T. Stein,  Yu-Chuan Su,  A. J. W. Thom,  A. Tkatchenko,  
 T. Tsuchimochi,  L. Vogt,  O. Vydrov,  M. A. Watson,  J. Wenzel,  
 M. de Wergifosse,  T. A. Wesolowski,  A. White,  J. Witte,  A. Yamada,  
 Jun Yang,  K. Yao,  S. Yeganeh,  S. R. Yost,  Zhi-Qiang You,  A. Zech,  
 Igor Ying Zhang,  Xing Zhang,  Yan Zhao,  Ying Zhu,  B. R. Brooks,  
 G. K. L. Chan,  C. J. Cramer,  M. S. Gordon,  W. J. Hehre,  A. Klamt,  
 M. W. Schmidt,  C. D. Sherrill,  D. G. Truhlar,  A. Aspuru-Guzik,  R. Baer,  
 A. T. Bell,  N. A. Besley,  Jeng-Da Chai,  R. A. DiStasio Jr.,  A. Dreuw,  
 B. D. Dunietz,  T. R. Furlani,  Chao-Ping Hsu,  Yousung Jung,  Jing Kong,  
 D. S. Lambrecht,  WanZhen Liang,  C. Ochsenfeld,  V. A. Rassolov,  
 L. V. Slipchenko,  J. E. Subotnik,  T. Van Voorhis,  J. M. Herbert,  
 A. I. Krylov,  P. M. W. Gill,  M. Head-Gordon

 Contributors to earlier versions of Q-Chem not listed above: 
 R. D. Adamson,  B. Austin,  J. Baker,  G. J. O. Beran,  K. Brandhorst,  
 S. T. Brown,  E. F. C. Byrd,  A. K. Chakraborty,  C.-L. Cheng,  
 Siu Hung Chien,  D. M. Chipman,  D. L. Crittenden,  H. Dachsel,  
 R. J. Doerksen,  A. D. Dutoi,  L. Fusti-Molnar,  W. A. Goddard III,  
 A. Golubeva-Zadorozhnaya,  S. R. Gwaltney,  G. Hawkins,  A. Heyden,  
 S. Hirata,  G. Kedziora,  F. J. Keil,  C. Kelley,  Jihan Kim,  R. A. King,  
 R. Z. Khaliullin,  P. P. Korambath,  W. Kurlancheek,  A. M. Lee,  M. S. Lee,  
 S. V. Levchenko,  Ching Yeh Lin,  D. Liotard,  R. C. Lochan,  I. Lotan,  
 P. E. Maslen,  N. Nair,  D. P. O'Neill,  D. Neuhauser,  E. Neuscamman,  
 C. M. Oana,  R. Olson,  B. Peters,  R. Peverati,  P. A. Pieniazek,  
 Y. M. Rhee,  J. Ritchie,  M. A. Rohrdanz,  E. Rosta,  N. J. Russ,  
 H. F. Schaefer III,  N. E. Schultz,  N. Shenvi,  A. C. Simmonett,  A. Sodt,  
 D. Stuck,  K. S. Thanthiriwatte,  V. Vanovschi,  Tao Wang,  A. Warshel,  
 C. F. Williams,  Q. Wu,  X. Xu,  W. Zhang

 Please cite Q-Chem as follows:
 Y. Shao et al., Mol. Phys. 113, 184-215 (2015)
 DOI: 10.1080/00268976.2014.952696

 Q-Chem 5.0.2 for Intel X86 EM64T Linux

 Parts of Q-Chem use Armadillo 5.200.1 (Boston Tea Smuggler).
 http://arma.sourceforge.net/

 Q-Chem begins on Thu Mar  3 22:02:10 2022  

Host: 
0

     Scratch files written to ./qcts2.d//
 Dec517 15110_ 26548  26544 5633   
Processing $rem in /home/leeping/opt/qchem/5.0.2-openmp/config/preferences.
 MEM_STATIC 2000
 MEM_TOTAL  8000
 SYMMETRY   OFF
 SYM_IGNORE TRUE 

Checking the input file for inconsistencies... 	...done.

--------------------------------------------------------------
User input:
--------------------------------------------------------------
$molecule
0 2
C        1.1657286851    0.2823325485    0.4109159667
C        0.7820168291   -0.9898385484   -0.3434097259
C       -0.5225797753   -0.9189052605   -0.8518903628
C       -1.0786859918    0.1537348898    0.0824779620
C       -0.4735800285    1.4676314806   -0.4185685095
N        0.7994688986    1.5316783232   -0.2711771561
H        2.1478487845    0.2795429957    0.8771361095
H        1.5049176420   -1.7888230565   -0.4900001446
H       -1.0054035143   -1.4996246249   -1.6262397874
H       -2.1442177820    0.1344459790    0.3128756274
H       -1.0282359967    2.2313811441   -0.9614032227
C       -0.0262121504   -0.2091908390    1.1538323739
H       -0.1302629731   -0.6955169421    2.1135303963
$end

$rem
method                b3lyp
basis                 6-31+g(d,p)
unrestricted          true
symmetry              off
sym_ignore            true
incdft                false
incfock               0
scf_convergence       8
thresh                14
jobtype               sp
scf_guess             core
scf_guess_mix         5
scf_algorithm         diis
max_scf_cycles        100
$end

--------------------------------------------------------------
 ----------------------------------------------------------------
             Standard Nuclear Orientation (Angstroms)
    I     Atom           X                Y                Z
 ----------------------------------------------------------------
    1      C       1.1657286851     0.2823325485     0.4109159667
    2      C       0.7820168291    -0.9898385484    -0.3434097259
    3      C      -0.5225797753    -0.9189052605    -0.8518903628
    4      C      -1.0786859918     0.1537348898     0.0824779620
    5      C      -0.4735800285     1.4676314806    -0.4185685095
    6      N       0.7994688986     1.5316783232    -0.2711771561
    7      H       2.1478487845     0.2795429957     0.8771361095
    8      H       1.5049176420    -1.7888230565    -0.4900001446
    9      H      -1.0054035143    -1.4996246249    -1.6262397874
   10      H      -2.1442177820     0.1344459790     0.3128756274
   11      H      -1.0282359967     2.2313811441    -0.9614032227
   12      C      -0.0262121504    -0.2091908390     1.1538323739
   13      H      -0.1302629731    -0.6955169421     2.1135303963
 ----------------------------------------------------------------
 Nuclear Repulsion Energy =   281.0858320836 hartrees
 There are       25 alpha and       24 beta electrons
 Requested basis set is 6-31+G(d,p)
 There are 53 shells and 163 basis functions

 Total QAlloc Memory Limit   8000 MB
 Mega-Array Size      1956 MB
 MEM_STATIC part      2000 MB

                       Distance Matrix (Angstroms)
             C (  1)   C (  2)   C (  3)   C (  4)   C (  5)   N (  6)
   C (  2)  1.527960
   C (  3)  2.426528  1.401983
   C (  4)  2.271961  2.225164  1.527369
   C (  5)  2.186392  2.760676  2.426052  1.530858
   N (  6)  1.469783  2.522612  2.844363  2.356112  1.283152
   H (  7)  1.087166  2.228578  3.399559  3.325332  3.156310  2.169008
   H (  8)  2.283941  1.087405  2.235725  3.282723  3.811043  3.401657
   H (  9)  3.469754  2.258408  1.081652  2.378799  3.247447  3.779227
   H ( 10)  3.314699  3.202745  2.257419  1.090327  2.259076  3.310388
   H ( 11)  3.239681  3.746357  3.192489  2.325693  1.088865  2.075211
   C ( 12)  1.488033  1.871999  2.184719  1.545062  2.341862  2.396461
   H ( 13)  2.352590  2.637316  2.999589  2.397063  3.347925  3.392879
             H (  7)   H (  8)   H (  9)   H ( 10)   H ( 11)   C ( 12)
   H (  8)  2.561359
   H (  9)  4.401742  2.770630
   H ( 10)  4.331429  4.202352  2.779794
   H ( 11)  4.156611  4.775053  3.789846  2.695615
   C ( 12)  2.245431  2.746230  3.217582  2.304613  3.381518
   H ( 13)  2.769333  3.263052  3.924072  2.826165  4.339159  1.080907

 
 A cutoff of  1.0D-14 yielded   1405 shell pairs
 There are     13515 function pairs
 
 -------------------------------------------------------
 OpenMP Integral Computing Module                       
 Release: version 1.0, May 2013, Q-Chem Inc. Pittsburgh 
 -------------------------------------------------------
 Integral Job Info:
 Integral job number is                      11
 Integral operator is                         1
 short-range coefficients                     0
 long-range coefficients              100000000
 Omega coefficients                           0
 if combine SR and LR in K                    0
 Integral screening is                        0
 Integral computing path is                   2
 max size of driver memory is            800000
 size of driver memory is                593474
 size of scratch memory is              2361544
 max col of scratch BK array               1296
 max len of scratch array in speh3          155
 max len of scratch index in speh4           18
 max int batch size is                      520
 min int batch size is                       52
 fixed nKL is                                52
 max L of basis functions is                  2
 order of int derivative is                   0
 number of shells is                         53
 number of basis is                         163
 number of cartesian basis is               163
 number of contracted shell pairs          1405
 number of primitive shell pairs           4832
 maxK2 (contraction) of shell pair           36
 max number of K2 of shell pair               1
 max number of CS2 of shell pair            126
 max number of PS2 of shell pair            702
 mem total for path MDJ                  535308
 -------------------------------------------------------
 Smallest overlap matrix eigenvalue = 2.74E-05

 Scale SEOQF with 1.000000e-01/1.000000e-01/1.000000e-01

 Standard Electronic Orientation quadrupole field applied
 Nucleus-field energy     =     0.0000000025 hartrees
 Guess MOs from core Hamiltonian diagonalization
 Mixing HOMO and LUMO in initial guess
 Adding  50% of the LUMO to the HOMO
 An unrestricted hybrid HF-DFT SCF calculation will be
 performed using Pulay DIIS extrapolation
 Exchange:     0.2000 Hartree-Fock + 0.0800 Slater + 0.7200 B88
 Correlation:  0.1900 VWN1RPA + 0.8100 LYP
 Using SG-1 standard quadrature grid
 SCF converges when DIIS error is below 1.0E-08
 using 4 threads for integral computing
 -------------------------------------------------------
 OpenMP Integral computing Module                
 Release: version 1.0, May 2013, Q-Chem Inc. Pittsburgh 
 -------------------------------------------------------
 -------------------------------------------------------
 OpenMP BLAS3 based DFT computing Module                
 Release: version 1.0, May 2013, Q-Chem Inc. Pittsburgh 
 -------------------------------------------------------
 ---------------------------------------
  Cycle       Energy         DIIS Error
 ---------------------------------------
    1    -235.5798603853      9.87E-02
    2    -211.6583700921      7.25E-02
    3    -254.5409738337      7.68E-02
    4    -280.1646027535      3.76E-02
    5    -282.3168081400      3.18E-02
    6    -285.6726189422      1.67E-02
    7    -286.6372506404      7.09E-03
    8    -286.7679580718      4.69E-03
    9    -286.8443826748      5.83E-04
   10    -286.8464024220      3.59E-04
   11    -286.8471004323      1.45E-04
   12    -286.8473161161      5.59E-05
   13    -286.8474217352      5.09E-05
   14    -286.8474733907      1.66E-05
   15    -286.8474829534      8.85E-06
   16    -286.8474842952      3.99E-06
   17    -286.8474848823      8.15E-07
   18    -286.8474849198      1.69E-07
   19    -286.8474849290      8.38E-08
   20    -286.8474849335      3.79E-08
   21    -286.8474849342      1.54E-08
   22    -286.8474849344      6.18E-09 Convergence criterion met
 ---------------------------------------
 <S^2> = 0.7779
 SCF time:  CPU 110.46 s  wall 29.70 s
 SCF   energy in the final basis set = -286.84748493
 Total energy in the final basis set = -286.84748493
 
 --------------------------------------------------------------
 
                    Orbital Energies (a.u.)
 --------------------------------------------------------------
 
 Alpha MOs
 -- Occupied --
-14.330 -10.235 -10.230 -10.228 -10.225 -10.221 -10.207  -0.973
 -0.850  -0.750  -0.696  -0.601  -0.585  -0.547  -0.522  -0.473
 -0.444  -0.425  -0.408  -0.378  -0.356  -0.296  -0.284  -0.278
 -0.158
 -- Virtual --
 -0.017  -0.010   0.001   0.018   0.028   0.033   0.046   0.048
  0.062   0.071   0.074   0.095   0.100   0.107   0.109   0.118
  0.124   0.129   0.141   0.153   0.165   0.178   0.180   0.185
  0.192   0.196   0.207   0.218   0.225   0.234   0.241   0.251
  0.259   0.267   0.281   0.287   0.309   0.314   0.332   0.368
  0.372   0.383   0.407   0.455   0.629   0.668   0.676   0.695
  0.699   0.716   0.725   0.735   0.745   0.753   0.776   0.793
  0.807   0.814   0.858   0.898   0.917   0.935   0.954   1.001
  1.017   1.034   1.048   1.068   1.083   1.087   1.103   1.141
  1.201   1.216   1.336   1.340   1.385   1.423   1.436   1.486
  1.555   1.616   1.625   1.692   1.723   1.762   1.817   1.869
  1.882   1.909   1.952   1.976   2.044   2.091   2.103   2.129
  2.152   2.212   2.219   2.278   2.306   2.327   2.363   2.400
  2.407   2.438   2.448   2.484   2.506   2.516   2.536   2.554
  2.568   2.602   2.618   2.654   2.686   2.704   2.743   2.780
  2.848   2.858   2.980   3.072   3.082   3.293   3.317   3.326
  3.506   3.599   3.682   4.171   4.412   4.486   4.571   4.619
  4.694   4.831
 
 Beta MOs
 -- Occupied --
-14.329 -10.235 -10.231 -10.230 -10.222 -10.217 -10.197  -0.968
 -0.842  -0.747  -0.684  -0.597  -0.577  -0.541  -0.519  -0.464
 -0.441  -0.419  -0.406  -0.373  -0.351  -0.287  -0.275  -0.265
 -- Virtual --
 -0.055  -0.009  -0.002   0.003   0.019   0.031   0.038   0.047
  0.049   0.063   0.072   0.077   0.096   0.101   0.108   0.109
  0.119   0.128   0.131   0.142   0.153   0.164   0.179   0.181
  0.188   0.195   0.197   0.208   0.223   0.228   0.237   0.242
  0.254   0.260   0.272   0.282   0.288   0.312   0.316   0.334
  0.372   0.376   0.385   0.411   0.457   0.633   0.674   0.679
  0.699   0.711   0.728   0.734   0.746   0.749   0.759   0.783
  0.796   0.809   0.818   0.859   0.903   0.919   0.938   0.956
  1.005   1.021   1.037   1.050   1.070   1.087   1.093   1.109
  1.149   1.207   1.220   1.339   1.346   1.387   1.429   1.441
  1.489   1.563   1.622   1.634   1.698   1.731   1.765   1.828
  1.874   1.889   1.914   1.956   1.980   2.050   2.101   2.108
  2.132   2.161   2.220   2.228   2.284   2.312   2.330   2.367
  2.405   2.411   2.445   2.454   2.487   2.509   2.522   2.543
  2.557   2.572   2.610   2.620   2.663   2.693   2.707   2.746
  2.784   2.853   2.861   2.982   3.075   3.084   3.294   3.320
  3.328   3.507   3.602   3.687   4.173   4.422   4.486   4.584
  4.625   4.696   4.835
 --------------------------------------------------------------
 
          Ground-State Mulliken Net Atomic Charges

     Atom                 Charge (a.u.)    Spin (a.u.)
  --------------------------------------------------------
      1 C                    -0.134764      -0.019306
      2 C                    -0.101256      -0.236847
      3 C                    -0.144604       0.720978
      4 C                     0.007358      -0.101873
      5 C                    -0.071282      -0.001924
      6 N                    -0.179240       0.062492
      7 H                     0.138697       0.004560
      8 H                     0.138968       0.010771
      9 H                     0.138597      -0.026704
     10 H                     0.129369       0.011031
     11 H                     0.132187       0.001600
     12 C                    -0.200861       0.600814
     13 H                     0.146830      -0.025593
  --------------------------------------------------------
  Sum of atomic charges =    -0.000000
  Sum of spin   charges =     1.000000

 -----------------------------------------------------------------
                    Cartesian Multipole Moments
 -----------------------------------------------------------------
    Charge (ESU x 10^10)
                -0.0000
    Dipole Moment (Debye)
         X      -1.2998      Y      -2.0906      Z       0.7678
       Tot       2.5787
    Quadrupole Moments (Debye-Ang)
        XX     -39.0403     XY      -5.0816     YY     -45.0465
        XZ       2.2540     YZ       0.3721     ZZ     -41.3034
    Octopole Moments (Debye-Ang^2)
       XXX      -9.7530    XXY     -10.5847    XYY     -10.5443
       YYY     -26.3545    XXZ       3.5934    XYZ       2.8908
       YYZ      -1.9747    XZZ      -5.2595    YZZ     -10.4990
       ZZZ       8.2315
    Hexadecapole Moments (Debye-Ang^3)
      XXXX    -224.2348   XXXY     -10.1903   XXYY     -94.9369
      XYYY     -27.7719   YYYY    -326.5679   XXXZ      -8.2652
      XXYZ       4.0600   XYYZ       2.1275   YYYZ       2.2073
      XXZZ     -67.7827   XYZZ      -0.3144   YYZZ     -77.2896
      XZZZ     -11.0523   YZZZ      -3.1777   ZZZZ    -173.8206
 -----------------------------------------------------------------
Archival summary:
1\1\c8-73\SP\ProcedureUnspecified\6-31+G**\166(2)\hpark21\ThuMar322:02:402022ThuMar322:02:402022\0\\#,ProcedureUnspecified,6-31+G**,\\0,2\N\C,1,1.28315\H,2,1.08886,1,121.846\C,1,1.46978,2,104.958,3,-175.652,0\H,4,1.08717,1,115.234,2,-162.915,0\C,4,1.48803,1,108.232,2,-24.5587,0\H,6,1.08091,4,131.99,1,-142.65,0\C,4,1.52796,1,114.585,2,58.8234,0\H,8,1.08741,4,120.755,1,131.217,0\C,8,1.40198,4,111.753,1,-44.9832,0\H,10,1.08165,8,130.38,4,161.878,0\C,10,1.52737,8,98.7696,4,-21.8825,0\H,12,1.09033,10,118.207,8,-150.734,0\\\@

 Total job time:  30.53s(wall), 112.29s(cpu) 
 Thu Mar  3 22:02:40 2022

        *************************************************************
        *                                                           *
        *  Thank you very much for using Q-Chem.  Have a nice day.  *
        *                                                           *
        *************************************************************


