13
image # 1 Energy = -286.85166
C 1.12573   0.19223   0.47467   
C 0.85325   -0.97679  -0.48484  
C -0.47024  -0.99127  -0.71203  
C -1.07320  0.16872   0.10573   
C -0.42726  1.45172   -0.45581  
N 0.83392   1.48882   -0.26511  
H 2.10117   0.21681   0.95825   
H 1.61203   -1.62708  -0.90600  
H -1.03442  -1.64935  -1.36390  
H -2.15416  0.16753   0.24634   
H -0.96271  2.23938   -0.98329  
C -0.13774  0.04400   1.31287   
H -0.26638  -0.72473  2.07314   
13
image # 2 Energy = -286.84996
C 1.12829   0.19118   0.47506   
C 0.87557   -0.98115  -0.47783  
C -0.50024  -0.99370  -0.73284  
C -1.07252  0.16806   0.10919   
C -0.43516  1.45081   -0.45502  
N 0.82968   1.48768   -0.26952  
H 2.10261   0.22635   0.94497   
H 1.60447   -1.65354  -0.86318  
H -1.02496  -1.61771  -1.39692  
H -2.15239  0.16432   0.25652   
H -0.97322  2.23696   -0.98352  
C -0.13518  0.04718   1.31637   
H -0.24910  -0.73083  2.07425   
13
image # 3 Energy = -286.85071
C 1.12599   0.20188   0.46678   
C 0.84085   -0.98733  -0.46657  
C -0.47282  -0.97996  -0.72373  
C -1.07487  0.16621   0.10728   
C -0.43726  1.45117   -0.45432  
N 0.82507   1.49102   -0.27311  
H 2.11243   0.23255   0.94139   
H 1.60247   -1.67108  -0.83354  
H -1.02869  -1.60595  -1.43287  
H -2.15411  0.16285   0.26469   
H -0.97906  2.23353   -0.98274  
C -0.12512  0.02670   1.30597   
H -0.23836  -0.72973  2.07613   
13
image # 4 Energy = -286.84977
C 1.13654   0.19457   0.46754   
C 0.83629   -0.98950  -0.46318  
C -0.47539  -0.98277  -0.74124  
C -1.07581  0.16400   0.10942   
C -0.44334  1.45155   -0.45258  
N 0.81758   1.49230   -0.27873  
H 2.11146   0.24336   0.92694   
H 1.59338   -1.69679  -0.78797  
H -1.01971  -1.57363  -1.46676  
H -2.15204  0.16004   0.27550   
H -0.98961  2.23097   -0.98341  
C -0.12402  0.03187   1.30836   
H -0.22038  -0.73737  2.07946   
13
image # 5 Energy = -286.84831
C 1.11731   0.19566   0.46007   
C 0.84321   -0.99111  -0.45905  
C -0.48078  -0.96977  -0.74596  
C -1.07271  0.16113   0.11040   
C -0.45383  1.44795   -0.45052  
N 0.81948   1.48766   -0.28073  
H 2.12068   0.25184   0.91702   
H 1.58693   -1.72685  -0.74682  
H -1.01386  -1.54782  -1.50410  
H -2.14977  0.15591   0.28476   
H -1.00089  2.22890   -0.98397  
C -0.11830  0.03575   1.31411   
H -0.20358  -0.74342  2.07688   
13
image # 6 Energy = -286.84697
C 1.13770   0.20862   0.46083   
C 0.82361   -1.00070  -0.45053  
C -0.47313  -0.97395  -0.75690  
C -1.07364  0.16622   0.11397   
C -0.47376  1.45457   -0.45491  
N 0.82474   1.49404   -0.28381  
H 2.11857   0.25587   0.90823   
H 1.57628   -1.74156  -0.71100  
H -1.00585  -1.52226  -1.52129  
H -2.15288  0.15180   0.29061   
H -1.00419  2.22087   -0.98000  
C -0.11246  0.01758   1.30058   
H -0.19186  -0.74759  2.07532   
13
image # 7 Energy = -286.84535
C 1.13310   0.20821   0.45271   
C 0.83257   -1.00092  -0.43835  
C -0.48006  -0.96013  -0.76124  
C -1.08025  0.16442   0.11057   
C -0.46259  1.44806   -0.44553  
N 0.81013   1.49773   -0.28990  
H 2.12488   0.26393   0.89943   
H 1.56478   -1.76422  -0.66876  
H -1.00456  -1.50268  -1.55422  
H -2.14728  0.14732   0.29786   
H -1.01746  2.22380   -0.98400  
C -0.10396  0.01163   1.29935   
H -0.17684  -0.75577  2.07232   
13
image # 8 Energy = -286.84249
C 1.13396   0.21744   0.44983   
C 0.81831   -1.00719  -0.43740  
C -0.47337  -0.96181  -0.77738  
C -1.09103  0.16844   0.11505   
C -0.47213  1.44392   -0.44038  
N 0.81445   1.50304   -0.29201  
H 2.13040   0.27218   0.88892   
H 1.54759   -1.78122  -0.61832  
H -0.99418  -1.47571  -1.57507  
H -2.14069  0.14337   0.30437   
H -1.02728  2.22339   -0.98549  
C -0.09364  0.00177   1.28456   
H -0.16037  -0.76824  2.07304   
13
image # 9 Energy = -286.83907
C 1.14726   0.22698   0.44523   
C 0.81365   -1.00531  -0.42084  
C -0.48710  -0.94754  -0.78249  
C -1.06742  0.16774   0.10291   
C -0.47718  1.44000   -0.43300  
N 0.81047   1.51114   -0.29333  
H 2.13046   0.27854   0.88170   
H 1.53621   -1.78663  -0.58072  
H -0.99703  -1.47373  -1.59825  
H -2.15231  0.14380   0.31270   
H -1.03063  2.22561   -0.98903  
C -0.08711  -0.03124  1.27158   
H -0.14764  -0.77169  2.07283   
13
image # 10 Energy = -286.83584
C 1.14693   0.24693   0.43059   
C 0.80292   -1.00338  -0.41082  
C -0.49341  -0.94537  -0.79724  
C -1.07450  0.16037   0.10741   
C -0.46445  1.45958   -0.43673  
N 0.79551   1.50788   -0.28781  
H 2.14145   0.28238   0.88338   
H 1.52810   -1.78934  -0.55216  
H -0.99564  -1.47008  -1.60542  
H -2.14642  0.14503   0.31587   
H -1.02943  2.21863   -0.98684  
C -0.07943  -0.06503  1.25420   
H -0.14014  -0.77113  2.07465   
13
image # 11 Energy = -286.83164
C 1.15509   0.24352   0.42584   
C 0.79807   -0.98039  -0.39937  
C -0.49844  -0.93390  -0.82031  
C -1.07804  0.16658   0.09288   
C -0.47567  1.46136   -0.42691  
N 0.80572   1.52761   -0.28017  
H 2.14128   0.28650   0.88441   
H 1.52130   -1.78461  -0.52820  
H -1.01061  -1.50148  -1.59455  
H -2.14482  0.14790   0.31598   
H -1.02227  2.22167   -0.98782  
C -0.06488  -0.10677  1.23581   
H -0.13548  -0.77218  2.07112   
13
image # 12 Energy = -286.82859
C 1.15567   0.26258   0.42302   
C 0.79156   -0.99597  -0.37389  
C -0.50782  -0.93440  -0.81495  
C -1.07763  0.16031   0.10050   
C -0.47360  1.46013   -0.43224  
N 0.79786   1.51699   -0.28595  
H 2.14535   0.28924   0.87760   
H 1.51583   -1.79665  -0.51006  
H -0.99596  -1.46189  -1.62956  
H -2.14531  0.14450   0.32341   
H -1.03150  2.21614   -0.98693  
C -0.05484  -0.12205  1.21538   
H -0.12859  -0.76240  2.08205   
13
image # 13 Energy = -286.82813
C 1.15094   0.25907   0.41733   
C 0.79446   -1.00591  -0.37825  
C -0.51261  -0.94900  -0.79967  
C -1.07676  0.15077   0.11304   
C -0.47525  1.45502   -0.43493  
N 0.78934   1.50157   -0.29837  
H 2.14691   0.28947   0.86227   
H 1.50502   -1.81670  -0.48569  
H -0.96539  -1.40060  -1.68430  
H -2.14525  0.13554   0.33363   
H -1.04331  2.20597   -0.97963  
C -0.05384  -0.10916  1.22249   
H -0.12336  -0.73845  2.10027   
13
image # 14 Energy = -286.82423
C 1.15867   0.27703   0.41214   
C 0.78697   -0.99430  -0.34291  
C -0.52754  -0.94142  -0.81455  
C -1.08069  0.15340   0.10327   
C -0.47386  1.46965   -0.43821  
N 0.79276   1.51316   -0.28804  
H 2.15230   0.29226   0.87356   
H 1.50391   -1.79506  -0.48504  
H -0.98611  -1.43899  -1.66165  
H -2.14471  0.14450   0.32938   
H -1.03130  2.20750   -0.98273  
C -0.03475  -0.16941  1.18775   
H -0.12483  -0.73947  2.09511   
13
image # 15 Energy = -286.82469
C 1.17331   0.29817   0.41403   
C 0.76959   -1.00064  -0.29498  
C -0.53905  -0.92468  -0.83289  
C -1.08411  0.15712   0.09033   
C -0.47697  1.45945   -0.43240  
N 0.79845   1.52851   -0.28502  
H 2.15435   0.29609   0.87756   
H 1.50483   -1.78865  -0.47821  
H -0.99571  -1.44879  -1.65615  
H -2.14585  0.14772   0.33241   
H -1.03267  2.21440   -0.99049  
C -0.01587  -0.21650  1.14938   
H -0.11950  -0.74125  2.09447   
13
image # 16 Energy = -286.82860
C 1.17371   0.31849   0.41363   
C 0.75378   -0.99181  -0.26638  
C -0.54095  -0.90772  -0.85401  
C -1.09917  0.15907   0.08824   
C -0.47245  1.46899   -0.42910  
N 0.80147   1.54008   -0.27560  
H 2.15671   0.29791   0.88889   
H 1.49883   -1.76789  -0.46760  
H -1.01450  -1.48226  -1.63630  
H -2.13836  0.15335   0.33000   
H -1.02318  2.21287   -0.99330  
C 0.01373   -0.28185  1.10879   
H -0.11850  -0.73583  2.08068   
13
image # 17 Energy = -286.82978
C 1.17916   0.32627   0.41238   
C 0.74462   -1.00229  -0.24346  
C -0.55379  -0.91321  -0.84490  
C -1.08434  0.15379   0.08783   
C -0.47520  1.45915   -0.42952  
N 0.79707   1.53644   -0.28211  
H 2.15832   0.30171   0.88358   
H 1.49489   -1.77126  -0.45554  
H -1.00324  -1.45051  -1.66982  
H -2.14369  0.15292   0.33897   
H -1.02884  2.21028   -0.99503  
C 0.01951   -0.29605  1.09531   
H -0.11295  -0.72121  2.09015   
13
image # 18 Energy = -286.83161
C 1.18291   0.32749   0.41188   
C 0.73912   -1.01143  -0.22306  
C -0.56173  -0.92060  -0.84546  
C -1.08475  0.14896   0.08842   
C -0.48200  1.45907   -0.43274  
N 0.79416   1.53736   -0.28743  
H 2.16064   0.30678   0.87320   
H 1.48475   -1.78095  -0.42917  
H -0.99025  -1.41623  -1.70376  
H -2.14344  0.15121   0.34801   
H -1.03476  2.20531   -0.99354  
C 0.03022   -0.31025  1.08907   
H -0.10268  -0.70838  2.09249   
13
image # 19 Energy = -286.83319
C 1.17970   0.33539   0.40278   
C 0.72803   -1.02526  -0.21144  
C -0.56133  -0.92993  -0.84922  
C -1.08222  0.15014   0.09234   
C -0.48427  1.45264   -0.43135  
N 0.78881   1.53503   -0.28982  
H 2.17087   0.31223   0.86332   
H 1.47360   -1.79666  -0.39497  
H -0.97428  -1.37784  -1.73880  
H -2.14470  0.14738   0.35865   
H -1.04462  2.20281   -0.99360  
C 0.03224   -0.31773  1.08693   
H -0.08886  -0.69791  2.09356   
13
image # 20 Energy = -286.83492
C 1.18825   0.33847   0.40338   
C 0.71862   -1.03791  -0.19780  
C -0.56743  -0.92916  -0.85340  
C -1.08660  0.14616   0.09407   
C -0.49048  1.45220   -0.43172  
N 0.78246   1.53563   -0.29248  
H 2.17378   0.31830   0.85020   
H 1.46320   -1.81264  -0.35720  
H -0.96034  -1.34528  -1.77228  
H -2.14066  0.14389   0.36750   
H -1.05177  2.19723   -0.99182  
C 0.03953   -0.32252  1.07278   
H -0.07456  -0.69210  2.09781   
13
image # 21 Energy = -286.83514
C 1.20948   0.33354   0.40913   
C 0.67347   -1.02040  -0.18957  
C -0.56649  -0.93756  -0.86188  
C -1.07930  0.13844   0.09127   
C -0.49435  1.45193   -0.43188  
N 0.77253   1.53927   -0.30293  
H 2.16835   0.32346   0.83666   
H 1.46891   -1.84021  -0.32843  
H -0.94152  -1.30941  -1.78985  
H -2.14265  0.14029   0.37586   
H -1.05754  2.19235   -0.98973  
C 0.04631   -0.33881  1.08464   
H -0.06223  -0.67899  2.08700   
13
image # 22 Energy = -286.83682
C 1.17762   0.33767   0.38944   
C 0.69547   -1.06308  -0.18819  
C -0.56119  -0.93870  -0.84756  
C -1.08574  0.13602   0.10459   
C -0.48585  1.43784   -0.42790  
N 0.76399   1.53269   -0.31175  
H 2.19146   0.32612   0.82670   
H 1.43545   -1.84336  -0.29015  
H -0.91416  -1.25698  -1.82859  
H -2.14032  0.13273   0.38316   
H -1.07406  2.19334   -0.98993  
C 0.04553   -0.32119  1.06217   
H -0.05177  -0.67755  2.11023   
13
image # 23 Energy = -286.83722
C 1.18207   0.33741   0.38714   
C 0.69216   -1.05819  -0.16822  
C -0.57733  -0.94005  -0.85976  
C -1.08557  0.13500   0.10106   
C -0.50345  1.44023   -0.43211  
N 0.76761   1.52903   -0.31508  
H 2.19035   0.33014   0.81150   
H 1.42861   -1.86761  -0.25677  
H -0.89480  -1.22045  -1.85007  
H -2.13843  0.12687   0.39095   
H -1.08060  2.18581   -0.98544  
C 0.05546   -0.32843  1.06481   
H -0.03858  -0.67256  2.10634   
13
image # 24 Energy = -286.83647
C 1.20245   0.35136   0.38082   
C 0.69751   -1.08320  -0.16238  
C -0.57809  -0.93502  -0.85722  
C -1.08838  0.13305   0.09837   
C -0.50192  1.44065   -0.43242  
N 0.75695   1.52908   -0.31992  
H 2.18524   0.33298   0.79881   
H 1.40409   -1.86528  -0.22274  
H -0.88215  -1.19392  -1.87369  
H -2.13574  0.12322   0.39834   
H -1.08749  2.18269   -0.98436  
C 0.05187   -0.35384  1.08438   
H -0.02574  -0.66304  2.08875   
13
image # 25 Energy = -286.83832
C 1.18938   0.34295   0.37762   
C 0.68011   -1.07574  -0.14806  
C -0.57902  -0.93776  -0.86698  
C -1.08543  0.12932   0.10102   
C -0.51510  1.43824   -0.43224  
N 0.76032   1.52810   -0.32166  
H 2.19434   0.33864   0.78721   
H 1.39731   -1.88969  -0.18607  
H -0.86438  -1.15880  -1.89280  
H -2.13400  0.11817   0.40643   
H -1.09550  2.17746   -0.98213  
C 0.06394   -0.34722  1.06085   
H -0.01198  -0.66368  2.09681   
