13   
From optimize.out: Frame 1 / 3, Energy=    -286.7710612984
C        0.0408070000    0.0606610000    0.0000000000
C       -0.1289810000   -0.1678630000    0.0000000000
C       -0.1981930000    1.0671270000    0.0000000000
C       -0.1172420000   -0.0023680000   -0.0000000000
C       -0.0144390000    0.0059640000   -0.0000000000
N       -0.3614650000   -0.0390700000   -0.0000000000
H        0.1397830000    0.0062880000    0.0000000000
H        0.1581210000    0.0716780000    0.0000000000
H        0.1711280000    0.0026070000    0.0000000000
H        0.1525720000   -0.0006100000    0.0000000000
H        0.1232430000   -0.0012770000    0.0000000000
C       -0.1178490000   -0.0025440000   -0.0000000000
H        0.1525140000   -0.0005920000   -0.0000000000
13   
From optimize.out: Frame 2 / 3, Energy=    -286.7710640273
C        0.0410900000    0.0606390000    0.0000000000
C       -0.1291010000   -0.1678740000    0.0000000000
C       -0.1983670000    1.0670290000    0.0000000000
C       -0.1172750000   -0.0023510000   -0.0000000000
C       -0.0144420000    0.0060440000   -0.0000000000
N       -0.3615240000   -0.0389890000   -0.0000000000
H        0.1398410000    0.0062950000    0.0000000000
H        0.1582260000    0.0716080000    0.0000000000
H        0.1711190000    0.0026200000    0.0000000000
H        0.1525960000   -0.0006070000    0.0000000000
H        0.1231760000   -0.0013040000    0.0000000000
C       -0.1178970000   -0.0025160000   -0.0000000000
H        0.1525590000   -0.0005940000   -0.0000000000
