13   
From optimize.out: Frame 1 / 3, Energy=    -286.8584658956
C        0.0763020000    0.5974550000   -0.0000000000
C       -0.2210530000   -0.0531850000    0.0000000000
C       -0.0899960000    0.0951500000   -0.0000000000
C       -0.2210360000   -0.0533930000    0.0000000000
C        0.0766770000    0.5973040000   -0.0000000000
N       -0.3952500000   -0.2054760000   -0.0000000000
H        0.1356170000   -0.0320680000   -0.0000000000
H        0.1422160000    0.0005080000    0.0000000000
H        0.1541910000   -0.0043090000   -0.0000000000
H        0.1420720000    0.0005240000    0.0000000000
H        0.1356090000   -0.0320620000   -0.0000000000
C       -0.0895600000    0.0938000000    0.0000000000
H        0.1542130000   -0.0042470000    0.0000000000
13   
From optimize.out: Frame 2 / 3, Energy=    -286.8584720586
C        0.0763520000    0.5972330000   -0.0000000000
C       -0.2211140000   -0.0532610000    0.0000000000
C       -0.0899630000    0.0947750000   -0.0000000000
C       -0.2210280000   -0.0533420000   -0.0000000000
C        0.0765950000    0.5972790000   -0.0000000000
N       -0.3951600000   -0.2053690000   -0.0000000000
H        0.1356100000   -0.0320550000   -0.0000000000
H        0.1421260000    0.0005140000    0.0000000000
H        0.1542040000   -0.0042940000   -0.0000000000
H        0.1421320000    0.0005190000    0.0000000000
H        0.1355550000   -0.0320590000   -0.0000000000
C       -0.0895170000    0.0943340000    0.0000000000
H        0.1542080000   -0.0042740000    0.0000000000
