13   
From optimize.out: Frame 1 / 2, Energy=    -286.8383370207
C        1.2440743142    0.2527275317    0.2503193254
C        0.5757887268   -1.1281582300   -0.2004073058
C       -0.7355507221   -0.8966105992   -0.7898570614
C       -1.0558106964    0.2139392876    0.2086124757
C       -0.4448641129    1.4714079870   -0.3979024983
N        0.8381818064    1.4624731756   -0.4190815764
H        2.2826029050    0.1720494619    0.5547101703
H        1.2235943286   -1.9933004274   -0.3012312881
H       -1.1404786482   -1.1003669026   -1.7784177914
H       -2.0651052431    0.2854326388    0.6198920614
H       -1.0204750992    2.2493841864   -0.8970717314
C        0.1461730167   -0.3443211364    1.0534239816
H        0.1518694241   -0.6446569734    2.0970112387
13   
From optimize.out: Frame 1 / 2, Energy=    -286.8249819809
C        1.2996058262    0.2660350258    0.3331908980
C        0.6002727092   -1.0020274838   -0.1978148853
C       -0.6447715862   -0.4101298348   -0.9049914339
C       -1.0991204165    0.1891478011    0.3967577251
C       -0.4610978696    1.1018594116   -0.6667973994
N        0.8776952333    1.4291047430   -0.3511848725
H        2.3162468547    0.2171485101    0.7075669742
H        1.1132013688   -1.9340755772   -0.4069191068
H       -1.2159570787   -0.8319764301   -1.7242774415
H       -2.0959177514    0.3279814911    0.8001986054
H       -1.0637964006    1.8218941947   -1.2092389750
C        0.1467154053   -0.4022628063    1.1038276730
H        0.2269237054   -0.7726990451    2.1196822387
