13   
Frame   0 IRC: Energy =  -286.8593670000 ; +0.0000 kcal/mol
C       -0.2899040000    0.1106290000    0.0000000000
C       -0.0509940000   -0.1552240000   -0.0000000000
C       -0.1556200000    0.9792640000   -0.0000000000
C       -0.0241000000   -0.1130310000    0.0000000000
C       -0.0585730000    0.0525630000   -0.0000000000
N       -0.1692530000    0.0376640000   -0.0000000000
H        0.1443470000    0.0030700000    0.0000000000
H        0.1390960000    0.0054560000   -0.0000000000
H        0.1296110000   -0.0201920000   -0.0000000000
H        0.1346000000    0.0247420000    0.0000000000
H        0.1313610000    0.0009730000   -0.0000000000
C       -0.0630040000    0.0740810000    0.0000000000
H        0.1324330000    0.0000070000    0.0000000000
13   
Frame   1 IRC: Energy =  -286.8593610000 ; +0.0038 kcal/mol
C       -0.2899480000    0.1109430000    0.0000000000
C       -0.0511080000   -0.1552450000   -0.0000000000
C       -0.1554270000    0.9788570000   -0.0000000000
C       -0.0239790000   -0.1127730000    0.0000000000
C       -0.0586560000    0.0528080000   -0.0000000000
N       -0.1691080000    0.0373280000   -0.0000000000
H        0.1443410000    0.0030450000    0.0000000000
H        0.1391220000    0.0054570000   -0.0000000000
H        0.1295650000   -0.0200670000   -0.0000000000
H        0.1346470000    0.0247260000    0.0000000000
H        0.1312400000    0.0009760000   -0.0000000000
C       -0.0632030000    0.0739330000    0.0000000000
H        0.1325140000    0.0000120000    0.0000000000
13   
Frame   2 IRC: Energy =  -286.8593530000 ; +0.0088 kcal/mol
C       -0.2900520000    0.1109570000    0.0000000000
C       -0.0509610000   -0.1552010000   -0.0000000000
C       -0.1554050000    0.9786800000   -0.0000000000
C       -0.0236630000   -0.1125810000    0.0000000000
C       -0.0592420000    0.0529120000   -0.0000000000
N       -0.1691430000    0.0372530000   -0.0000000000
H        0.1443250000    0.0030290000    0.0000000000
H        0.1391540000    0.0054480000   -0.0000000000
H        0.1295810000   -0.0200150000   -0.0000000000
H        0.1347130000    0.0246990000    0.0000000000
H        0.1312730000    0.0009580000   -0.0000000000
C       -0.0631590000    0.0738440000    0.0000000000
H        0.1325790000    0.0000170000    0.0000000000
13   
Frame   3 IRC: Energy =  -286.8591340000 ; +0.1462 kcal/mol
C       -0.2905190000    0.1111940000    0.0000000000
C       -0.0499660000   -0.1546960000   -0.0000000000
C       -0.1551740000    0.9766210000   -0.0000000000
C       -0.0244420000   -0.1115670000    0.0000000000
C       -0.0637280000    0.0493090000   -0.0000000000
N       -0.1668550000    0.0431850000   -0.0000000000
H        0.1442450000    0.0029430000    0.0000000000
H        0.1394780000    0.0054360000   -0.0000000000
H        0.1294130000   -0.0193460000   -0.0000000000
H        0.1350400000    0.0252600000    0.0000000000
H        0.1316670000    0.0010720000   -0.0000000000
C       -0.0615290000    0.0709240000    0.0000000000
H        0.1323690000   -0.0003350000    0.0000000000
13   
Frame   4 IRC: Energy =  -286.8591140000 ; +0.1588 kcal/mol
C       -0.2904970000    0.1111540000    0.0000000000
C       -0.0502080000   -0.1547170000   -0.0000000000
C       -0.1549780000    0.9763880000   -0.0000000000
C       -0.0251840000   -0.1116320000    0.0000000000
C       -0.0633380000    0.0492770000   -0.0000000000
N       -0.1669820000    0.0434980000   -0.0000000000
H        0.1442860000    0.0029580000    0.0000000000
H        0.1394620000    0.0054220000   -0.0000000000
H        0.1293790000   -0.0193370000   -0.0000000000
H        0.1349770000    0.0253470000    0.0000000000
H        0.1317160000    0.0010660000   -0.0000000000
C       -0.0609700000    0.0709440000    0.0000000000
H        0.1323370000   -0.0003690000    0.0000000000
13   
Frame   5 IRC: Energy =  -286.8586180000 ; +0.4700 kcal/mol
C       -0.2919020000    0.1112210000    0.0000000000
C       -0.0493810000   -0.1539690000   -0.0000000000
C       -0.1543870000    0.9732230000   -0.0000000000
C       -0.0254700000   -0.1098730000    0.0000000000
C       -0.0684000000    0.0459150000   -0.0000000000
N       -0.1644270000    0.0491320000   -0.0000000000
H        0.1440710000    0.0028600000    0.0000000000
H        0.1398230000    0.0053750000   -0.0000000000
H        0.1293680000   -0.0186670000   -0.0000000000
H        0.1354350000    0.0257100000    0.0000000000
H        0.1319260000    0.0012170000   -0.0000000000
C       -0.0591210000    0.0685220000    0.0000000000
H        0.1324650000   -0.0006660000    0.0000000000
13   
Frame   6 IRC: Energy =  -286.8585480000 ; +0.5139 kcal/mol
C       -0.2919630000    0.1110290000    0.0000000000
C       -0.0497460000   -0.1538530000   -0.0000000000
C       -0.1541700000    0.9727650000   -0.0000000000
C       -0.0266560000   -0.1099260000    0.0000000000
C       -0.0674610000    0.0459310000   -0.0000000000
N       -0.1642520000    0.0496410000   -0.0000000000
H        0.1441460000    0.0028830000    0.0000000000
H        0.1398140000    0.0053590000   -0.0000000000
H        0.1292630000   -0.0186430000   -0.0000000000
H        0.1353450000    0.0258920000    0.0000000000
H        0.1318900000    0.0012550000   -0.0000000000
C       -0.0586760000    0.0683940000    0.0000000000
H        0.1324660000   -0.0007260000    0.0000000000
13   
Frame   7 IRC: Energy =  -286.8577960000 ; +0.9858 kcal/mol
C       -0.2935310000    0.1106230000    0.0000000000
C       -0.0490340000   -0.1530820000   -0.0000000000
C       -0.1539090000    0.9694710000   -0.0000000000
C       -0.0267720000   -0.1083200000    0.0000000000
C       -0.0729780000    0.0418150000   -0.0000000000
N       -0.1623520000    0.0563820000   -0.0000000000
H        0.1439060000    0.0028190000    0.0000000000
H        0.1400840000    0.0052890000   -0.0000000000
H        0.1295430000   -0.0183360000   -0.0000000000
H        0.1357730000    0.0261590000    0.0000000000
H        0.1324080000    0.0013930000   -0.0000000000
C       -0.0557310000    0.0667620000    0.0000000000
H        0.1325910000   -0.0009760000    0.0000000000
13   
Frame   8 IRC: Energy =  -286.8576750000 ; +1.0617 kcal/mol
C       -0.2937340000    0.1107950000    0.0000000000
C       -0.0497860000   -0.1530880000   -0.0000000000
C       -0.1537500000    0.9695510000   -0.0000000000
C       -0.0280990000   -0.1084640000    0.0000000000
C       -0.0712170000    0.0413860000   -0.0000000000
N       -0.1621420000    0.0566900000   -0.0000000000
H        0.1440140000    0.0028390000    0.0000000000
H        0.1400250000    0.0053060000   -0.0000000000
H        0.1294090000   -0.0183790000   -0.0000000000
H        0.1356310000    0.0262910000    0.0000000000
H        0.1322020000    0.0014660000   -0.0000000000
C       -0.0550870000    0.0665970000    0.0000000000
H        0.1325330000   -0.0009900000    0.0000000000
13   
Frame   9 IRC: Energy =  -286.8568010000 ; +1.6102 kcal/mol
C       -0.2951750000    0.1092940000    0.0000000000
C       -0.0484110000   -0.1520500000   -0.0000000000
C       -0.1540530000    0.9660380000   -0.0000000000
C       -0.0277510000   -0.1070240000    0.0000000000
C       -0.0767250000    0.0375770000   -0.0000000000
N       -0.1606620000    0.0638250000   -0.0000000000
H        0.1437410000    0.0027990000    0.0000000000
H        0.1402440000    0.0052040000   -0.0000000000
H        0.1299020000   -0.0183410000   -0.0000000000
H        0.1360830000    0.0264540000    0.0000000000
H        0.1328440000    0.0016130000   -0.0000000000
C       -0.0527990000    0.0658440000    0.0000000000
H        0.1327620000   -0.0012340000    0.0000000000
13   
Frame  10 IRC: Energy =  -286.8564470000 ; +1.8323 kcal/mol
C       -0.2957220000    0.1088070000    0.0000000000
C       -0.0497620000   -0.1517970000   -0.0000000000
C       -0.1534680000    0.9653160000   -0.0000000000
C       -0.0299070000   -0.1070690000    0.0000000000
C       -0.0753360000    0.0362480000   -0.0000000000
N       -0.1606940000    0.0660100000   -0.0000000000
H        0.1438930000    0.0028500000    0.0000000000
H        0.1401590000    0.0051720000   -0.0000000000
H        0.1298340000   -0.0184570000   -0.0000000000
H        0.1359430000    0.0267080000    0.0000000000
H        0.1328970000    0.0017200000   -0.0000000000
C       -0.0505710000    0.0658000000    0.0000000000
H        0.1327340000   -0.0013080000    0.0000000000
13   
Frame  11 IRC: Energy =  -286.8552580000 ; +2.5784 kcal/mol
C       -0.2970900000    0.1044060000    0.0000000000
C       -0.0476080000   -0.1501540000   -0.0000000000
C       -0.1547990000    0.9636840000   -0.0000000000
C       -0.0285910000   -0.1066160000    0.0000000000
C       -0.0803950000    0.0294500000   -0.0000000000
N       -0.1597800000    0.0770120000   -0.0000000000
H        0.1436400000    0.0027980000    0.0000000000
H        0.1402080000    0.0050580000   -0.0000000000
H        0.1309330000   -0.0195430000   -0.0000000000
H        0.1362500000    0.0266010000    0.0000000000
H        0.1334550000    0.0020170000   -0.0000000000
C       -0.0492570000    0.0668380000    0.0000000000
H        0.1330330000   -0.0015520000    0.0000000000
13   
Frame  12 IRC: Energy =  -286.8544970000 ; +3.0560 kcal/mol
C       -0.2971630000    0.1017350000    0.0000000000
C       -0.0474500000   -0.1494690000   -0.0000000000
C       -0.1551510000    0.9624660000   -0.0000000000
C       -0.0298450000   -0.1074220000    0.0000000000
C       -0.0796380000    0.0254990000   -0.0000000000
N       -0.1602700000    0.0838240000   -0.0000000000
H        0.1437910000    0.0028360000    0.0000000000
H        0.1401040000    0.0050420000   -0.0000000000
H        0.1313600000   -0.0205190000   -0.0000000000
H        0.1359710000    0.0268900000    0.0000000000
H        0.1336890000    0.0022600000   -0.0000000000
C       -0.0484070000    0.0685670000    0.0000000000
H        0.1330100000   -0.0017080000    0.0000000000
13   
Frame  13 IRC: Energy =  -286.8534420000 ; +3.7180 kcal/mol
C       -0.2977540000    0.0951840000    0.0000000000
C       -0.0459110000   -0.1472020000   -0.0000000000
C       -0.1564550000    0.9633840000   -0.0000000000
C       -0.0271990000   -0.1077780000    0.0000000000
C       -0.0848390000    0.0169020000   -0.0000000000
N       -0.1596710000    0.0968740000   -0.0000000000
H        0.1435880000    0.0026980000    0.0000000000
H        0.1399870000    0.0048410000   -0.0000000000
H        0.1328430000   -0.0224150000   -0.0000000000
H        0.1360320000    0.0263310000    0.0000000000
H        0.1342030000    0.0025490000   -0.0000000000
C       -0.0481960000    0.0705040000    0.0000000000
H        0.1333720000   -0.0018720000    0.0000000000
13   
Frame  14 IRC: Energy =  -286.8509430000 ; +5.2861 kcal/mol
C       -0.2918790000    0.0820510000    0.0000000000
C       -0.0436490000   -0.1424840000   -0.0000000000
C       -0.1583610000    0.9586990000   -0.0000000000
C       -0.0201360000   -0.1114140000    0.0000000000
C       -0.0952190000   -0.0043750000   -0.0000000000
N       -0.1605290000    0.1335210000   -0.0000000000
H        0.1434700000    0.0024270000    0.0000000000
H        0.1393710000    0.0046060000   -0.0000000000
H        0.1360740000   -0.0280930000   -0.0000000000
H        0.1350660000    0.0261330000    0.0000000000
H        0.1349820000    0.0031400000   -0.0000000000
C       -0.0524230000    0.0779130000    0.0000000000
H        0.1332300000   -0.0021240000    0.0000000000
13   
Frame  15 IRC: Energy =  -286.8472310000 ; +7.6155 kcal/mol
C       -0.2829570000    0.0639630000    0.0000000000
C       -0.0418480000   -0.1311030000   -0.0000000000
C       -0.1577370000    0.9319950000   -0.0000000000
C       -0.0057120000   -0.1093960000    0.0000000000
C       -0.1212130000   -0.0404050000   -0.0000000000
N       -0.1587270000    0.2003850000   -0.0000000000
H        0.1428000000    0.0019180000    0.0000000000
H        0.1383910000    0.0038210000   -0.0000000000
H        0.1396120000   -0.0327520000   -0.0000000000
H        0.1342290000    0.0249980000    0.0000000000
H        0.1366860000    0.0036720000   -0.0000000000
C       -0.0563520000    0.0853730000    0.0000000000
H        0.1328290000   -0.0024680000    0.0000000000
13   
Frame  16 IRC: Energy =  -286.8425910000 ; +10.5271 kcal/mol
C       -0.2756710000    0.0416340000    0.0000000000
C       -0.0381050000   -0.1116900000   -0.0000000000
C       -0.1550530000    0.8709290000   -0.0000000000
C        0.0117190000   -0.0974250000    0.0000000000
C       -0.1543470000   -0.0844130000   -0.0000000000
N       -0.1512990000    0.2949680000   -0.0000000000
H        0.1421760000    0.0013470000    0.0000000000
H        0.1371620000    0.0026580000   -0.0000000000
H        0.1418870000   -0.0343030000   -0.0000000000
H        0.1331330000    0.0226250000    0.0000000000
H        0.1383900000    0.0041640000   -0.0000000000
C       -0.0622380000    0.0924880000    0.0000000000
H        0.1322450000   -0.0029820000    0.0000000000
13   
Frame  17 IRC: Energy =  -286.8384580000 ; +13.1206 kcal/mol
C       -0.2733740000    0.0127330000    0.0000000000
C       -0.0311920000   -0.0780860000   -0.0000000000
C       -0.1491700000    0.7469950000   -0.0000000000
C        0.0303380000   -0.0681990000    0.0000000000
C       -0.1970840000   -0.1296420000   -0.0000000000
N       -0.1348570000    0.4292560000   -0.0000000000
H        0.1413970000    0.0008860000    0.0000000000
H        0.1358140000    0.0010120000   -0.0000000000
H        0.1423410000   -0.0309550000   -0.0000000000
H        0.1318930000    0.0181890000    0.0000000000
H        0.1401580000    0.0043110000   -0.0000000000
C       -0.0676400000    0.0973060000    0.0000000000
H        0.1313750000   -0.0038060000    0.0000000000
13   
Frame  18 IRC: Energy =  -286.8367500000 ; +14.1924 kcal/mol (Transition State)
C       -0.2760760000   -0.0193210000    0.0000000000
C       -0.0238550000   -0.0319300000   -0.0000000000
C       -0.1397670000    0.5609910000   -0.0000000000
C        0.0427130000   -0.0253800000    0.0000000000
C       -0.2390950000   -0.1475310000   -0.0000000000
N       -0.1108100000    0.5765980000   -0.0000000000
H        0.1407920000    0.0007250000    0.0000000000
H        0.1345880000   -0.0007000000   -0.0000000000
H        0.1407400000   -0.0231650000   -0.0000000000
H        0.1306930000    0.0120150000    0.0000000000
H        0.1410730000    0.0035990000   -0.0000000000
C       -0.0715140000    0.0985890000    0.0000000000
H        0.1305170000   -0.0044880000    0.0000000000
13   
Frame  19 IRC: Energy =  -286.8383790000 ; +13.1702 kcal/mol
C       -0.2820650000   -0.0476200000    0.0000000000
C       -0.0184590000    0.0154560000   -0.0000000000
C       -0.1247520000    0.3623440000   -0.0000000000
C        0.0412240000    0.0177040000    0.0000000000
C       -0.2685830000   -0.1309170000   -0.0000000000
N       -0.0876540000    0.6972050000   -0.0000000000
H        0.1406320000    0.0008480000    0.0000000000
H        0.1337040000   -0.0018330000   -0.0000000000
H        0.1376120000   -0.0140780000   -0.0000000000
H        0.1301530000    0.0058870000    0.0000000000
H        0.1410770000    0.0023880000   -0.0000000000
C       -0.0729600000    0.0970570000    0.0000000000
H        0.1300710000   -0.0044400000    0.0000000000
13   
Frame  20 IRC: Energy =  -286.8419130000 ; +10.9526 kcal/mol
C       -0.2884520000   -0.0669750000    0.0000000000
C       -0.0205610000    0.0525660000   -0.0000000000
C       -0.0984560000    0.2090880000   -0.0000000000
C        0.0210960000    0.0501170000    0.0000000000
C       -0.2833160000   -0.1039920000   -0.0000000000
N       -0.0732610000    0.7726900000   -0.0000000000
H        0.1407760000    0.0010360000    0.0000000000
H        0.1333040000   -0.0021300000   -0.0000000000
H        0.1343690000   -0.0071340000   -0.0000000000
H        0.1307650000    0.0014800000    0.0000000000
H        0.1407550000    0.0015220000   -0.0000000000
C       -0.0670400000    0.0954170000    0.0000000000
H        0.1300220000   -0.0036860000    0.0000000000
13   
Frame  21 IRC: Energy =  -286.8445820000 ; +9.2777 kcal/mol
C       -0.2915020000   -0.0775200000    0.0000000000
C       -0.0282500000    0.0761100000   -0.0000000000
C       -0.0664260000    0.1176340000   -0.0000000000
C       -0.0110650000    0.0736680000    0.0000000000
C       -0.2881800000   -0.0853070000   -0.0000000000
N       -0.0688290000    0.8077840000   -0.0000000000
H        0.1411710000    0.0010870000    0.0000000000
H        0.1330650000   -0.0019770000   -0.0000000000
H        0.1317010000   -0.0031930000   -0.0000000000
H        0.1322390000   -0.0011790000    0.0000000000
H        0.1407040000    0.0012110000   -0.0000000000
C       -0.0549950000    0.0944420000    0.0000000000
H        0.1303670000   -0.0027610000    0.0000000000
13   
Frame  22 IRC: Energy =  -286.8450250000 ; +8.9997 kcal/mol
C       -0.2887860000   -0.0794950000    0.0000000000
C       -0.0353720000    0.0824140000   -0.0000000000
C       -0.0519570000    0.0984850000   -0.0000000000
C       -0.0221300000    0.0802760000    0.0000000000
C       -0.2919780000   -0.0814360000   -0.0000000000
N       -0.0690150000    0.8129770000   -0.0000000000
H        0.1412880000    0.0010700000    0.0000000000
H        0.1326870000   -0.0019730000   -0.0000000000
H        0.1313930000   -0.0024660000   -0.0000000000
H        0.1326350000   -0.0017560000    0.0000000000
H        0.1408970000    0.0011610000   -0.0000000000
C       -0.0502910000    0.0932150000    0.0000000000
H        0.1306290000   -0.0024730000    0.0000000000
13   
Frame  23 IRC: Energy =  -286.8452160000 ; +8.8799 kcal/mol
C       -0.2868320000   -0.0797320000    0.0000000000
C       -0.0369700000    0.0844610000   -0.0000000000
C       -0.0487080000    0.0949640000   -0.0000000000
C       -0.0254440000    0.0828500000    0.0000000000
C       -0.2934700000   -0.0812450000   -0.0000000000
N       -0.0692870000    0.8132570000   -0.0000000000
H        0.1413850000    0.0010630000    0.0000000000
H        0.1323710000   -0.0020130000   -0.0000000000
H        0.1313330000   -0.0023590000   -0.0000000000
H        0.1324890000   -0.0019180000    0.0000000000
H        0.1409230000    0.0011390000   -0.0000000000
C       -0.0486510000    0.0919180000    0.0000000000
H        0.1308600000   -0.0023830000    0.0000000000
13   
Frame  24 IRC: Energy =  -286.8452730000 ; +8.8441 kcal/mol
C       -0.2868120000   -0.0798090000    0.0000000000
C       -0.0388670000    0.0850890000   -0.0000000000
C       -0.0457140000    0.0931770000   -0.0000000000
C       -0.0277760000    0.0831840000    0.0000000000
C       -0.2939190000   -0.0807010000   -0.0000000000
N       -0.0693060000    0.8142640000   -0.0000000000
H        0.1413800000    0.0010600000    0.0000000000
H        0.1322390000   -0.0020240000   -0.0000000000
H        0.1315190000   -0.0022970000   -0.0000000000
H        0.1323790000   -0.0019400000    0.0000000000
H        0.1410750000    0.0011190000   -0.0000000000
C       -0.0471280000    0.0912060000    0.0000000000
H        0.1309300000   -0.0023270000    0.0000000000
13   
Frame  25 IRC: Energy =  -286.8453460000 ; +8.7983 kcal/mol
C       -0.2869790000   -0.0798510000    0.0000000000
C       -0.0385560000    0.0856750000   -0.0000000000
C       -0.0455310000    0.0922300000   -0.0000000000
C       -0.0297400000    0.0843630000    0.0000000000
C       -0.2933750000   -0.0807270000   -0.0000000000
N       -0.0694700000    0.8142480000   -0.0000000000
H        0.1414450000    0.0010580000    0.0000000000
H        0.1321380000   -0.0020480000   -0.0000000000
H        0.1314970000   -0.0022680000   -0.0000000000
H        0.1323210000   -0.0019880000    0.0000000000
H        0.1410970000    0.0011070000   -0.0000000000
C       -0.0459470000    0.0904950000    0.0000000000
H        0.1311000000   -0.0022950000    0.0000000000
13   
Frame  26 IRC: Energy =  -286.8453720000 ; +8.7820 kcal/mol
C       -0.2871280000   -0.0798390000    0.0000000000
C       -0.0398890000    0.0859340000   -0.0000000000
C       -0.0433820000    0.0912610000   -0.0000000000
C       -0.0317210000    0.0846630000    0.0000000000
C       -0.2934850000   -0.0804690000   -0.0000000000
N       -0.0694390000    0.8148460000   -0.0000000000
H        0.1414240000    0.0010580000    0.0000000000
H        0.1320380000   -0.0020530000   -0.0000000000
H        0.1316140000   -0.0022320000   -0.0000000000
H        0.1321970000   -0.0019990000    0.0000000000
H        0.1411910000    0.0010970000   -0.0000000000
C       -0.0445680000    0.0899970000    0.0000000000
H        0.1311490000   -0.0022630000    0.0000000000
13   
Frame  27 IRC: Energy =  -286.8454080000 ; +8.7594 kcal/mol
C       -0.2872850000   -0.0798960000    0.0000000000
C       -0.0397190000    0.0864060000   -0.0000000000
C       -0.0433450000    0.0906960000   -0.0000000000
C       -0.0330110000    0.0854960000    0.0000000000
C       -0.2929720000   -0.0804910000   -0.0000000000
N       -0.0695500000    0.8146650000   -0.0000000000
H        0.1414450000    0.0010580000    0.0000000000
H        0.1319880000   -0.0020750000   -0.0000000000
H        0.1316150000   -0.0022170000   -0.0000000000
H        0.1321760000   -0.0020330000    0.0000000000
H        0.1412120000    0.0010890000   -0.0000000000
C       -0.0438340000    0.0895480000    0.0000000000
H        0.1312810000   -0.0022450000    0.0000000000
13   
Frame  28 IRC: Energy =  -286.8454190000 ; +8.7525 kcal/mol
C       -0.2875410000   -0.0798650000    0.0000000000
C       -0.0405870000    0.0865570000   -0.0000000000
C       -0.0418960000    0.0900570000   -0.0000000000
C       -0.0345720000    0.0856950000    0.0000000000
C       -0.2929470000   -0.0803350000   -0.0000000000
N       -0.0695060000    0.8151280000   -0.0000000000
H        0.1414310000    0.0010580000    0.0000000000
H        0.1319230000   -0.0020760000   -0.0000000000
H        0.1316800000   -0.0021930000   -0.0000000000
H        0.1320630000   -0.0020390000    0.0000000000
H        0.1412640000    0.0010830000   -0.0000000000
C       -0.0426300000    0.0891490000    0.0000000000
H        0.1313170000   -0.0022190000    0.0000000000
13   
Frame  29 IRC: Energy =  -286.8454370000 ; +8.7412 kcal/mol
C       -0.2876390000   -0.0799360000    0.0000000000
C       -0.0406640000    0.0869980000   -0.0000000000
C       -0.0417460000    0.0896700000   -0.0000000000
C       -0.0356330000    0.0863450000    0.0000000000
C       -0.2924700000   -0.0803510000   -0.0000000000
N       -0.0695830000    0.8148590000   -0.0000000000
H        0.1414280000    0.0010590000    0.0000000000
H        0.1318940000   -0.0020980000   -0.0000000000
H        0.1317010000   -0.0021850000   -0.0000000000
H        0.1320470000   -0.0020660000    0.0000000000
H        0.1412870000    0.0010780000   -0.0000000000
C       -0.0420420000    0.0888340000    0.0000000000
H        0.1314200000   -0.0022070000    0.0000000000
13   
Frame  30 IRC: Energy =  -286.8454420000 ; +8.7381 kcal/mol
C       -0.2879130000   -0.0798960000    0.0000000000
C       -0.0411240000    0.0870590000   -0.0000000000
C       -0.0408970000    0.0892410000   -0.0000000000
C       -0.0366240000    0.0864190000    0.0000000000
C       -0.2924510000   -0.0802410000   -0.0000000000
N       -0.0695400000    0.8152640000   -0.0000000000
H        0.1414230000    0.0010590000    0.0000000000
H        0.1318550000   -0.0020960000   -0.0000000000
H        0.1317280000   -0.0021680000   -0.0000000000
H        0.1319660000   -0.0020680000    0.0000000000
H        0.1413130000    0.0010760000   -0.0000000000
C       -0.0411790000    0.0885370000    0.0000000000
H        0.1314430000   -0.0021870000    0.0000000000
