13   
Frame   0 IRC: Energy =  -286.8593670000 ; +0.0000 kcal/mol
C        1.2458044807    0.2522059688    0.2545122815
C        0.5763958154   -1.1271830118   -0.2009342833
C       -0.7352018094   -0.8930774235   -0.7888143033
C       -1.0552696931    0.2154987193    0.2121512830
C       -0.4469462702    1.4697737773   -0.4020261845
N        0.8380542032    1.4588163235   -0.4189275106
H        2.2842794435    0.1717543832    0.5556121722
H        1.2221148521   -1.9923640268   -0.3047910022
H       -1.1449988548   -1.0966569778   -1.7747884044
H       -2.0634897396    0.2895127586    0.6238250247
H       -1.0208474823    2.2406054957   -0.9115746688
C        0.1465718999   -0.3415270865    1.0572830721
H        0.1535331544   -0.6473589005    2.0984725241
13   
Frame   1 IRC: Energy =  -286.8577494405 ; +1.0150 kcal/mol
C        1.2474813134    0.2560086797    0.2793756975
C        0.5770325624   -1.1092414311   -0.2043392074
C       -0.7447069374   -0.8646257341   -0.7779130655
C       -1.0555129281    0.2151513057    0.2487077904
C       -0.4479479615    1.4425524825   -0.4186765855
N        0.8366874714    1.4473935913   -0.4197217900
H        2.2831028046    0.1833522112    0.5953636063
H        1.2196322912   -1.9702863706   -0.3441514673
H       -1.1502011538   -0.9879601229   -1.7797954503
H       -2.0556574119    0.3065475651    0.6777894188
H       -1.0255326464    2.1273301765   -1.0355136920
C        0.1499806311   -0.3517858082    1.0746347058
H        0.1656419648   -0.6944365451    2.1042400393
13   
Frame   2 IRC: Energy =  -286.8530937418 ; +3.9365 kcal/mol
C        1.2603689160    0.2623978479    0.3033740784
C        0.5904869597   -1.0744927732   -0.2155441722
C       -0.7353873719   -0.7972892472   -0.7894621029
C       -1.0548386115    0.2197108238    0.2834622456
C       -0.4444309903    1.4142181775   -0.4285539951
N        0.8452306106    1.4400065754   -0.4186849569
H        2.2896331204    0.2003103033    0.6448423347
H        1.1871641274   -1.9621501987   -0.3771193189
H       -1.1810577507   -0.9127089843   -1.7732075183
H       -2.0546423621    0.3110275175    0.7123938173
H       -1.0360076388    1.9928943371   -1.1376229136
C        0.1530579291   -0.3603200989    1.0876833614
H        0.1804230621   -0.7336042803    2.1084391405
13   
Frame   3 IRC: Energy =  -286.8416584916 ; +11.1123 kcal/mol
C        1.2774009735    0.2532893648    0.3096448023
C        0.6079049557   -1.0399495758   -0.2105536576
C       -0.6883816014   -0.6473343628   -0.8394581047
C       -1.0713874843    0.2050727245    0.3242195121
C       -0.4464820671    1.3219133841   -0.4989947188
N        0.8506458412    1.4264611738   -0.4078078554
H        2.3031906120    0.2037465549    0.6634671699
H        1.1562172138   -1.9556867300   -0.3835252427
H       -1.2031688675   -0.8914813219   -1.7563940810
H       -2.0761948879    0.3141396038    0.7408845401
H       -1.0502299858    1.9303238909   -1.1640115940
C        0.1498063075   -0.3771981042    1.1004881586
H        0.1906789904   -0.7432966022    2.1220410711
13   
Frame   4 IRC: Energy =  -286.8392263626 ; +12.6385 kcal/mol (Transition State)
C        1.2932057197    0.2503744028    0.3089664235
C        0.6108284353   -1.0215061770   -0.1990353028
C       -0.6634957262   -0.4988487521   -0.8779788261
C       -1.0899107235    0.1891184313    0.3659321774
C       -0.4656881216    1.1935219328   -0.5946712588
N        0.8678483731    1.4226273866   -0.3806702693
H        2.3121466547    0.2050629593    0.6707692307
H        1.1419599053   -1.9497235909   -0.3845775396
H       -1.2074089153   -0.8770925151   -1.7372601295
H       -2.0903902850    0.3160017110    0.7608359519
H       -1.0562948928    1.9043942416   -1.1645877312
C        0.1479120630   -0.3895343074    1.1048826071
H        0.1992875134   -0.7443957230    2.1273946668
13   
Frame   5 IRC: Energy =  -286.8454420000 ; +8.7381 kcal/mol
C        1.3029313873    0.2630868319    0.3312564017
C        0.6012637494   -1.0027948518   -0.1972134995
C       -0.6449047225   -0.4108752160   -0.9057058722
C       -1.0997528622    0.1899098233    0.3965876043
C       -0.4634224745    1.1032149007   -0.6690041526
N        0.8766210095    1.4242998094   -0.3528808537
H        2.3199620677    0.2138916240    0.7016884426
H        1.1112330884   -1.9363311516   -0.4037339323
H       -1.2148451818   -0.8374420408   -1.7228637233
H       -2.0974041454    0.3275362999    0.7960548094
H       -1.0649896381    1.8292235932   -1.2029024032
C        0.1462920227   -0.4003151561    1.1054444449
H        0.2270156996   -0.7634044661    2.1232727340
