
Running Job 1 of 1 irc_transition.in
qchem irc_transition.in_24879.0 ./irc_transition.d/ 1
/home/leeping/opt/qchem/5.0.2-openmp/exe/qcprog.exe_s irc_transition.in_24879.0 ./irc_transition.d/
Check license passed

                  Welcome to Q-Chem
     A Quantum Leap Into The Future Of Chemistry


 Q-Chem 5.0, Q-Chem, Inc., Pleasanton, CA (2017)

 Yihan Shao,  Zhengting Gan,  E. Epifanovsky,  A. T. B. Gilbert,  M. Wormit,  
 J. Kussmann,  A. W. Lange,  A. Behn,  Jia Deng,  Xintian Feng,  D. Ghosh,  
 M. Goldey,  P. R. Horn,  L. D. Jacobson,  I. Kaliman,  T. Kus,  A. Landau,  
 Jie Liu,  E. I. Proynov,  R. M. Richard,  R. P. Steele,  E. J. Sundstrom,  
 H. L. Woodcock III,  P. M. Zimmerman,  D. Zuev,  B. Albrecht,  E. Alguire,  
 S. A. Baeppler,  D. Barton,  Z. Benda,  Y. A. Bernard,  E. J. Berquist,  
 K. B. Bravaya,  H. Burton,  D. Casanova,  Chun-Min Chang,  Yunqing Chen,  
 A. Chien,  K. D. Closser,  M. P. Coons,  S. Dasgupta,  A. L. Dempwolff,  
 M. Diedenhofen,  Hainam Do,  R. G. Edgar,  Po-Tung Fang,  S. Fatehi,  
 Qingguo Feng,  J. Fosso-Tande,  Qinghui Ge,  A. Ghysels,  G. Gidofalvi,  
 J. Gomes,  J. Gonthier,  A. Gunina,  M. W. D. Hanson-Heine,  
 P. H. P. Harbach,  A. W. Hauser,  J. E. Herr,  E. G. Hohenstein,  
 Z. C. Holden,  Kerwin Hui,  T.-C. Jagau,  Hyunjun Ji,  B. Kaduk,  
 K. Khistyaev,  Jaehoon Kim,  P. Klunzinger,  K. Koh,  D. Kosenkov,  
 L. Koulias,  T. Kowalczyk,  C. M. Krauter,  A. Kunitsa,  Ka Un Lao,  
 A. Laurent,  K. V. Lawler,  Joonho Lee,  D. Lefrancois,  S. Lehtola,  
 D. S. Levine,  Yi-Pei Li,  You-Sheng Lin,  Fenglai Liu,  E. Livshits,  
 A. Luenser,  P. Manohar,  E. Mansoor,  S. F. Manzer,  Shan-Ping Mao,  
 Yuezhi Mao,  N. Mardirossian,  A. V. Marenich,  T. Markovich,  
 L. A. Martinez-Martinez,  S. A. Maurer,  N. J. Mayhall,  S. C. McKenzie,  
 J.-M. Mewes,  A. F. Morrison,  J. W. Mullinax,  K. Nanda,  
 T. S. Nguyen-Beck,  R. Olivares-Amaya,  J. A. Parkhill,  T. M. Perrine,  
 F. Plasser,  S. Prager,  A. Prociuk,  E. Ramos,  D. R. Rehn,  F. Rob,  
 M. Schneider,  N. Sergueev,  S. M. Sharada,  S. Sharma,  D. W. Small,  
 T. Stauch,  T. Stein,  Yu-Chuan Su,  A. J. W. Thom,  A. Tkatchenko,  
 T. Tsuchimochi,  L. Vogt,  O. Vydrov,  M. A. Watson,  J. Wenzel,  
 M. de Wergifosse,  T. A. Wesolowski,  A. White,  J. Witte,  A. Yamada,  
 Jun Yang,  K. Yao,  S. Yeganeh,  S. R. Yost,  Zhi-Qiang You,  A. Zech,  
 Igor Ying Zhang,  Xing Zhang,  Yan Zhao,  Ying Zhu,  B. R. Brooks,  
 G. K. L. Chan,  C. J. Cramer,  M. S. Gordon,  W. J. Hehre,  A. Klamt,  
 M. W. Schmidt,  C. D. Sherrill,  D. G. Truhlar,  A. Aspuru-Guzik,  R. Baer,  
 A. T. Bell,  N. A. Besley,  Jeng-Da Chai,  R. A. DiStasio Jr.,  A. Dreuw,  
 B. D. Dunietz,  T. R. Furlani,  Chao-Ping Hsu,  Yousung Jung,  Jing Kong,  
 D. S. Lambrecht,  WanZhen Liang,  C. Ochsenfeld,  V. A. Rassolov,  
 L. V. Slipchenko,  J. E. Subotnik,  T. Van Voorhis,  J. M. Herbert,  
 A. I. Krylov,  P. M. W. Gill,  M. Head-Gordon

 Contributors to earlier versions of Q-Chem not listed above: 
 R. D. Adamson,  B. Austin,  J. Baker,  G. J. O. Beran,  K. Brandhorst,  
 S. T. Brown,  E. F. C. Byrd,  A. K. Chakraborty,  C.-L. Cheng,  
 Siu Hung Chien,  D. M. Chipman,  D. L. Crittenden,  H. Dachsel,  
 R. J. Doerksen,  A. D. Dutoi,  L. Fusti-Molnar,  W. A. Goddard III,  
 A. Golubeva-Zadorozhnaya,  S. R. Gwaltney,  G. Hawkins,  A. Heyden,  
 S. Hirata,  G. Kedziora,  F. J. Keil,  C. Kelley,  Jihan Kim,  R. A. King,  
 R. Z. Khaliullin,  P. P. Korambath,  W. Kurlancheek,  A. M. Lee,  M. S. Lee,  
 S. V. Levchenko,  Ching Yeh Lin,  D. Liotard,  R. C. Lochan,  I. Lotan,  
 P. E. Maslen,  N. Nair,  D. P. O'Neill,  D. Neuhauser,  E. Neuscamman,  
 C. M. Oana,  R. Olson,  B. Peters,  R. Peverati,  P. A. Pieniazek,  
 Y. M. Rhee,  J. Ritchie,  M. A. Rohrdanz,  E. Rosta,  N. J. Russ,  
 H. F. Schaefer III,  N. E. Schultz,  N. Shenvi,  A. C. Simmonett,  A. Sodt,  
 D. Stuck,  K. S. Thanthiriwatte,  V. Vanovschi,  Tao Wang,  A. Warshel,  
 C. F. Williams,  Q. Wu,  X. Xu,  W. Zhang

 Please cite Q-Chem as follows:
 Y. Shao et al., Mol. Phys. 113, 184-215 (2015)
 DOI: 10.1080/00268976.2014.952696

 Q-Chem 5.0.2 for Intel X86 EM64T Linux

 Parts of Q-Chem use Armadillo 5.200.1 (Boston Tea Smuggler).
 http://arma.sourceforge.net/

 Q-Chem begins on Thu Mar  3 09:59:42 2022  

Host: 
0

     Scratch files written to ./irc_transition.d//
 Dec517 15110_ 26548  26544 5633   
Processing $rem in /home/leeping/opt/qchem/5.0.2-openmp/config/preferences.
 MEM_STATIC 2000
 MEM_TOTAL  8000
 SYMMETRY   OFF
 SYM_IGNORE TRUE 

Checking the input file for inconsistencies... 	...done.

--------------------------------------------------------------
User input:
--------------------------------------------------------------
$molecule
0 2
C        1.2863706972    0.2499780317    0.3085573827
C        0.6118606183   -1.0280428952   -0.2044832089
C       -0.6728283958   -0.5580226344   -0.8629919161
C       -1.0834210191    0.1927783471    0.3485165640
C       -0.4579181605    1.2479576470   -0.5533558311
N        0.8589669430    1.4247191284   -0.3907885441
H        2.3078459469    0.2047243326    0.6683105829
H        1.1483682638   -1.9516392569   -0.3864807331
H       -1.2058037188   -0.8822000330   -1.7470576627
H       -2.0853299112    0.3131586124    0.7524359212
H       -1.0554546829    1.9156679427   -1.1633711254
C        0.1484146538   -0.3862046688    1.1031097035
H        0.1951486813   -0.7467913205    2.1244455634
$end

$rem
method                b3lyp
basis                 6-31+g(d,p)
unrestricted          true
symmetry              off
sym_ignore            true
incdft                false
incfock               0
scf_convergence       8
thresh                14
jobtype               sp
scf_guess             core
scf_guess_mix         5
scf_algorithm         diis
max_scf_cycles        100
$end

--------------------------------------------------------------
 ----------------------------------------------------------------
             Standard Nuclear Orientation (Angstroms)
    I     Atom           X                Y                Z
 ----------------------------------------------------------------
    1      C       1.2863706972     0.2499780317     0.3085573827
    2      C       0.6118606183    -1.0280428952    -0.2044832089
    3      C      -0.6728283958    -0.5580226344    -0.8629919161
    4      C      -1.0834210191     0.1927783471     0.3485165640
    5      C      -0.4579181605     1.2479576470    -0.5533558311
    6      N       0.8589669430     1.4247191284    -0.3907885441
    7      H       2.3078459469     0.2047243326     0.6683105829
    8      H       1.1483682638    -1.9516392569    -0.3864807331
    9      H      -1.2058037188    -0.8822000330    -1.7470576627
   10      H      -2.0853299112     0.3131586124     0.7524359212
   11      H      -1.0554546829     1.9156679427    -1.1633711254
   12      C       0.1484146538    -0.3862046688     1.1031097035
   13      H       0.1951486813    -0.7467913205     2.1244455634
 ----------------------------------------------------------------
 Nuclear Repulsion Energy =   286.3547046323 hartrees
 There are       25 alpha and       24 beta electrons
 Requested basis set is 6-31+G(d,p)
 There are 53 shells and 163 basis functions

 Total QAlloc Memory Limit   8000 MB
 Mega-Array Size      1956 MB
 MEM_STATIC part      2000 MB

                       Distance Matrix (Angstroms)
             C (  1)   C (  2)   C (  3)   C (  4)   C (  5)   N (  6)
   C (  2)  1.533464
   C (  3)  2.421540  1.518216
   C (  4)  2.370819  2.161063  1.483254
   C (  5)  2.186642  2.538960  1.844892  1.522508
   N (  6)  1.432402  2.472208  2.549635  2.416013  1.338603
   H (  7)  1.083920  2.271090  3.436727  3.406333  3.198477  2.170099
   H (  8)  2.312843  1.083510  2.342218  3.181137  3.584051  3.388741
   H (  9)  3.423202  2.388453  1.082001  2.358387  2.553787  3.380033
   H ( 10)  3.401380  3.160594  2.315972  1.086952  2.286353  3.348345
   H ( 11)  3.228814  3.516367  2.521066  2.292365  1.083977  2.122010
   C ( 12)  1.526757  1.528574  2.137643  1.556294  2.404580  2.452766
   H ( 13)  2.341317  2.382574  3.116697  2.381482  3.402373  3.388586
             H (  7)   H (  8)   H (  9)   H ( 10)   H ( 11)   C ( 12)
   H (  8)  2.665873
   H (  9)  4.400130  2.921814
   H ( 10)  4.395319  4.108923  2.906874
   H ( 11)  4.194541  4.518458  2.862055  2.701665
   C ( 12)  2.280656  2.381044  3.194272  2.366790  3.447442
   H ( 13)  2.736640  2.943643  4.119410  2.864697  4.411625  1.084128

 
 A cutoff of  1.0D-14 yielded   1405 shell pairs
 There are     13517 function pairs
 
 -------------------------------------------------------
 OpenMP Integral Computing Module                       
 Release: version 1.0, May 2013, Q-Chem Inc. Pittsburgh 
 -------------------------------------------------------
 Integral Job Info:
 Integral job number is                      11
 Integral operator is                         1
 short-range coefficients                     0
 long-range coefficients              100000000
 Omega coefficients                           0
 if combine SR and LR in K                    0
 Integral screening is                        0
 Integral computing path is                   2
 max size of driver memory is            800000
 size of driver memory is                593474
 size of scratch memory is              2361544
 max col of scratch BK array               1296
 max len of scratch array in speh3          155
 max len of scratch index in speh4           18
 max int batch size is                      520
 min int batch size is                       52
 fixed nKL is                                52
 max L of basis functions is                  2
 order of int derivative is                   0
 number of shells is                         53
 number of basis is                         163
 number of cartesian basis is               163
 number of contracted shell pairs          1405
 number of primitive shell pairs           4889
 maxK2 (contraction) of shell pair           36
 max number of K2 of shell pair               1
 max number of CS2 of shell pair            126
 max number of PS2 of shell pair            702
 mem total for path MDJ                  535308
 -------------------------------------------------------
 Smallest overlap matrix eigenvalue = 1.84E-05

 Scale SEOQF with 1.000000e-01/1.000000e-01/1.000000e-01

 Standard Electronic Orientation quadrupole field applied
 Nucleus-field energy     =     0.0000000017 hartrees
 Guess MOs from core Hamiltonian diagonalization
 Mixing HOMO and LUMO in initial guess
 Adding  50% of the LUMO to the HOMO
 An unrestricted hybrid HF-DFT SCF calculation will be
 performed using Pulay DIIS extrapolation
 Exchange:     0.2000 Hartree-Fock + 0.0800 Slater + 0.7200 B88
 Correlation:  0.1900 VWN1RPA + 0.8100 LYP
 Using SG-1 standard quadrature grid
 SCF converges when DIIS error is below 1.0E-08
 using 4 threads for integral computing
 -------------------------------------------------------
 OpenMP Integral computing Module                
 Release: version 1.0, May 2013, Q-Chem Inc. Pittsburgh 
 -------------------------------------------------------
 -------------------------------------------------------
 OpenMP BLAS3 based DFT computing Module                
 Release: version 1.0, May 2013, Q-Chem Inc. Pittsburgh 
 -------------------------------------------------------
 ---------------------------------------
  Cycle       Energy         DIIS Error
 ---------------------------------------
    1    -237.9995064535      9.74E-02
    2    -212.2394036285      7.18E-02
    3    -265.9811979523      6.83E-02
    4    -272.8040903819      5.75E-02
    5    -277.0518041880      4.78E-02
    6    -284.8818826426      2.22E-02
    7    -286.0687520908      1.35E-02
    8    -286.6407399646      7.02E-03
    9    -286.8037842892      2.93E-03
   10    -286.8300591285      1.26E-03
   11    -286.8359021749      2.68E-04
   12    -286.8363416673      2.53E-04
   13    -286.8366483718      5.46E-05
   14    -286.8367340819      2.26E-05
   15    -286.8367444346      1.52E-05
   16    -286.8367499134      2.51E-06
   17    -286.8367502034      8.66E-07
   18    -286.8367502315      4.39E-07
   19    -286.8367502427      1.75E-07
   20    -286.8367502457      5.13E-08
   21    -286.8367502460      1.76E-08
   22    -286.8367502460      6.27E-09 Convergence criterion met
 ---------------------------------------
 <S^2> = 0.7705
 SCF time:  CPU 112.98 s  wall 34.79 s
 SCF   energy in the final basis set = -286.83675025
 Total energy in the final basis set = -286.83675025
 
 --------------------------------------------------------------
 
                    Orbital Energies (a.u.)
 --------------------------------------------------------------
 
 Alpha MOs
 -- Occupied --
-14.336 -10.230 -10.230 -10.225 -10.220 -10.216 -10.214  -0.990
 -0.853  -0.786  -0.664  -0.603  -0.582  -0.549  -0.537  -0.456
 -0.451  -0.418  -0.414  -0.387  -0.350  -0.293  -0.278  -0.256
 -0.202
 -- Virtual --
  0.001   0.015   0.016   0.020   0.037   0.043   0.058   0.060
  0.071   0.077   0.084   0.092   0.109   0.112   0.117   0.118
  0.125   0.137   0.148   0.160   0.162   0.174   0.180   0.187
  0.192   0.197   0.208   0.216   0.223   0.245   0.250   0.252
  0.263   0.270   0.285   0.295   0.305   0.320   0.338   0.344
  0.361   0.374   0.416   0.454   0.607   0.653   0.677   0.692
  0.710   0.730   0.740   0.746   0.760   0.775   0.785   0.789
  0.800   0.831   0.857   0.892   0.903   0.923   0.945   0.960
  0.979   1.017   1.038   1.053   1.085   1.100   1.138   1.198
  1.239   1.258   1.361   1.416   1.418   1.490   1.536   1.541
  1.581   1.610   1.633   1.674   1.699   1.779   1.813   1.881
  1.910   1.939   1.966   2.000   2.015   2.113   2.145   2.158
  2.186   2.248   2.291   2.331   2.353   2.360   2.374   2.394
  2.416   2.448   2.458   2.477   2.502   2.516   2.551   2.570
  2.598   2.625   2.635   2.674   2.696   2.723   2.766   2.790
  2.868   2.935   2.971   3.066   3.090   3.241   3.280   3.377
  3.482   3.561   3.781   4.166   4.456   4.509   4.540   4.610
  4.801   4.928
 
 Beta MOs
 -- Occupied --
-14.325 -10.232 -10.226 -10.222 -10.220 -10.215 -10.214  -0.980
 -0.837  -0.781  -0.654  -0.601  -0.577  -0.543  -0.532  -0.453
 -0.445  -0.411  -0.403  -0.378  -0.338  -0.287  -0.265  -0.241
 -- Virtual --
 -0.093   0.002   0.016   0.016   0.023   0.038   0.043   0.059
  0.068   0.072   0.082   0.086   0.095   0.111   0.114   0.118
  0.122   0.128   0.139   0.149   0.161   0.163   0.176   0.181
  0.189   0.193   0.198   0.209   0.219   0.226   0.247   0.254
  0.261   0.265   0.272   0.289   0.297   0.306   0.322   0.340
  0.345   0.363   0.380   0.421   0.459   0.609   0.657   0.687
  0.698   0.716   0.734   0.742   0.750   0.762   0.781   0.787
  0.791   0.802   0.837   0.861   0.893   0.907   0.925   0.946
  0.972   0.981   1.022   1.042   1.057   1.103   1.107   1.146
  1.200   1.244   1.261   1.363   1.421   1.428   1.507   1.540
  1.552   1.589   1.615   1.644   1.676   1.705   1.785   1.818
  1.885   1.914   1.943   1.974   2.007   2.020   2.117   2.154
  2.166   2.195   2.252   2.300   2.337   2.356   2.364   2.378
  2.397   2.422   2.453   2.461   2.482   2.504   2.518   2.557
  2.573   2.603   2.633   2.644   2.682   2.704   2.727   2.771
  2.798   2.870   2.939   2.974   3.069   3.093   3.242   3.280
  3.379   3.483   3.562   3.784   4.185   4.465   4.512   4.538
  4.610   4.807   4.932
 --------------------------------------------------------------
 
          Ground-State Mulliken Net Atomic Charges

     Atom                 Charge (a.u.)    Spin (a.u.)
  --------------------------------------------------------
      1 C                    -0.276076      -0.019321
      2 C                    -0.023855      -0.031930
      3 C                    -0.139767       0.560991
      4 C                     0.042713      -0.025380
      5 C                    -0.239095      -0.147531
      6 N                    -0.110810       0.576598
      7 H                     0.140792       0.000725
      8 H                     0.134588      -0.000700
      9 H                     0.140740      -0.023165
     10 H                     0.130693       0.012015
     11 H                     0.141073       0.003599
     12 C                    -0.071514       0.098589
     13 H                     0.130517      -0.004488
  --------------------------------------------------------
  Sum of atomic charges =     0.000000
  Sum of spin   charges =     1.000000

 -----------------------------------------------------------------
                    Cartesian Multipole Moments
 -----------------------------------------------------------------
    Charge (ESU x 10^10)
                 0.0000
    Dipole Moment (Debye)
         X      -1.6435      Y      -2.1527      Z       0.6857
       Tot       2.7938
    Quadrupole Moments (Debye-Ang)
        XX     -39.2546     XY      -4.8464     YY     -44.9446
        XZ       2.7993     YZ       0.8056     ZZ     -40.1217
    Octopole Moments (Debye-Ang^2)
       XXX     -11.1597    XXY      -8.5010    XYY      -9.4694
       YYY     -26.4623    XXZ       4.3605    XYZ       2.4325
       YYZ       0.2095    XZZ      -7.2938    YZZ      -8.9674
       ZZZ       6.8522
    Hexadecapole Moments (Debye-Ang^3)
      XXXX    -234.5076   XXXY      -9.5527   XXYY     -89.9976
      XYYY     -23.8151   YYYY    -272.9417   XXXZ      -9.4005
      XXYZ       8.6174   XYYZ       1.4498   YYYZ      19.0531
      XXZZ     -68.6258   XYZZ      -3.0007   YYZZ     -70.4270
      XZZZ      -9.7972   YZZZ      16.2494   ZZZZ    -167.9756
 -----------------------------------------------------------------
Archival summary:
1\1\c8-90\SP\ProcedureUnspecified\6-31+G**\166(2)\hpark21\ThuMar310:00:192022ThuMar310:00:192022\0\\#,ProcedureUnspecified,6-31+G**,\\0,2\N\C,1,1.3386\H,2,1.08398,1,121.959\C,1,1.4324,2,104.155,3,-172.159,0\H,4,1.08392,1,118.521,2,-172.738,0\C,2,1.52251,1,115.072,3,-170.56,0\H,6,1.08695,2,121.471,1,144.104,0\C,6,1.48325,2,75.7148,1,-89.887,0\H,8,1.082,6,133.053,2,-97.6664,0\C,8,1.51822,6,92.1017,2,97.8875,0\H,10,1.08351,8,127.592,6,149.657,0\C,4,1.52676,1,111.927,2,-24.8237,0\H,12,1.08413,4,126.637,1,-134.609,0\\\@

 Total job time:  37.67s(wall), 114.69s(cpu) 
 Thu Mar  3 10:00:20 2022

        *************************************************************
        *                                                           *
        *  Thank you very much for using Q-Chem.  Have a nice day.  *
        *                                                           *
        *************************************************************


