
Running Job 1 of 1 qcts1.in
qchem qcts1.in_20929.0 ./qcts1.d/ 1
/home/leeping/opt/qchem/5.0.2-openmp/exe/qcprog.exe_s qcts1.in_20929.0 ./qcts1.d/
Check license passed

                  Welcome to Q-Chem
     A Quantum Leap Into The Future Of Chemistry


 Q-Chem 5.0, Q-Chem, Inc., Pleasanton, CA (2017)

 Yihan Shao,  Zhengting Gan,  E. Epifanovsky,  A. T. B. Gilbert,  M. Wormit,  
 J. Kussmann,  A. W. Lange,  A. Behn,  Jia Deng,  Xintian Feng,  D. Ghosh,  
 M. Goldey,  P. R. Horn,  L. D. Jacobson,  I. Kaliman,  T. Kus,  A. Landau,  
 Jie Liu,  E. I. Proynov,  R. M. Richard,  R. P. Steele,  E. J. Sundstrom,  
 H. L. Woodcock III,  P. M. Zimmerman,  D. Zuev,  B. Albrecht,  E. Alguire,  
 S. A. Baeppler,  D. Barton,  Z. Benda,  Y. A. Bernard,  E. J. Berquist,  
 K. B. Bravaya,  H. Burton,  D. Casanova,  Chun-Min Chang,  Yunqing Chen,  
 A. Chien,  K. D. Closser,  M. P. Coons,  S. Dasgupta,  A. L. Dempwolff,  
 M. Diedenhofen,  Hainam Do,  R. G. Edgar,  Po-Tung Fang,  S. Fatehi,  
 Qingguo Feng,  J. Fosso-Tande,  Qinghui Ge,  A. Ghysels,  G. Gidofalvi,  
 J. Gomes,  J. Gonthier,  A. Gunina,  M. W. D. Hanson-Heine,  
 P. H. P. Harbach,  A. W. Hauser,  J. E. Herr,  E. G. Hohenstein,  
 Z. C. Holden,  Kerwin Hui,  T.-C. Jagau,  Hyunjun Ji,  B. Kaduk,  
 K. Khistyaev,  Jaehoon Kim,  P. Klunzinger,  K. Koh,  D. Kosenkov,  
 L. Koulias,  T. Kowalczyk,  C. M. Krauter,  A. Kunitsa,  Ka Un Lao,  
 A. Laurent,  K. V. Lawler,  Joonho Lee,  D. Lefrancois,  S. Lehtola,  
 D. S. Levine,  Yi-Pei Li,  You-Sheng Lin,  Fenglai Liu,  E. Livshits,  
 A. Luenser,  P. Manohar,  E. Mansoor,  S. F. Manzer,  Shan-Ping Mao,  
 Yuezhi Mao,  N. Mardirossian,  A. V. Marenich,  T. Markovich,  
 L. A. Martinez-Martinez,  S. A. Maurer,  N. J. Mayhall,  S. C. McKenzie,  
 J.-M. Mewes,  A. F. Morrison,  J. W. Mullinax,  K. Nanda,  
 T. S. Nguyen-Beck,  R. Olivares-Amaya,  J. A. Parkhill,  T. M. Perrine,  
 F. Plasser,  S. Prager,  A. Prociuk,  E. Ramos,  D. R. Rehn,  F. Rob,  
 M. Schneider,  N. Sergueev,  S. M. Sharada,  S. Sharma,  D. W. Small,  
 T. Stauch,  T. Stein,  Yu-Chuan Su,  A. J. W. Thom,  A. Tkatchenko,  
 T. Tsuchimochi,  L. Vogt,  O. Vydrov,  M. A. Watson,  J. Wenzel,  
 M. de Wergifosse,  T. A. Wesolowski,  A. White,  J. Witte,  A. Yamada,  
 Jun Yang,  K. Yao,  S. Yeganeh,  S. R. Yost,  Zhi-Qiang You,  A. Zech,  
 Igor Ying Zhang,  Xing Zhang,  Yan Zhao,  Ying Zhu,  B. R. Brooks,  
 G. K. L. Chan,  C. J. Cramer,  M. S. Gordon,  W. J. Hehre,  A. Klamt,  
 M. W. Schmidt,  C. D. Sherrill,  D. G. Truhlar,  A. Aspuru-Guzik,  R. Baer,  
 A. T. Bell,  N. A. Besley,  Jeng-Da Chai,  R. A. DiStasio Jr.,  A. Dreuw,  
 B. D. Dunietz,  T. R. Furlani,  Chao-Ping Hsu,  Yousung Jung,  Jing Kong,  
 D. S. Lambrecht,  WanZhen Liang,  C. Ochsenfeld,  V. A. Rassolov,  
 L. V. Slipchenko,  J. E. Subotnik,  T. Van Voorhis,  J. M. Herbert,  
 A. I. Krylov,  P. M. W. Gill,  M. Head-Gordon

 Contributors to earlier versions of Q-Chem not listed above: 
 R. D. Adamson,  B. Austin,  J. Baker,  G. J. O. Beran,  K. Brandhorst,  
 S. T. Brown,  E. F. C. Byrd,  A. K. Chakraborty,  C.-L. Cheng,  
 Siu Hung Chien,  D. M. Chipman,  D. L. Crittenden,  H. Dachsel,  
 R. J. Doerksen,  A. D. Dutoi,  L. Fusti-Molnar,  W. A. Goddard III,  
 A. Golubeva-Zadorozhnaya,  S. R. Gwaltney,  G. Hawkins,  A. Heyden,  
 S. Hirata,  G. Kedziora,  F. J. Keil,  C. Kelley,  Jihan Kim,  R. A. King,  
 R. Z. Khaliullin,  P. P. Korambath,  W. Kurlancheek,  A. M. Lee,  M. S. Lee,  
 S. V. Levchenko,  Ching Yeh Lin,  D. Liotard,  R. C. Lochan,  I. Lotan,  
 P. E. Maslen,  N. Nair,  D. P. O'Neill,  D. Neuhauser,  E. Neuscamman,  
 C. M. Oana,  R. Olson,  B. Peters,  R. Peverati,  P. A. Pieniazek,  
 Y. M. Rhee,  J. Ritchie,  M. A. Rohrdanz,  E. Rosta,  N. J. Russ,  
 H. F. Schaefer III,  N. E. Schultz,  N. Shenvi,  A. C. Simmonett,  A. Sodt,  
 D. Stuck,  K. S. Thanthiriwatte,  V. Vanovschi,  Tao Wang,  A. Warshel,  
 C. F. Williams,  Q. Wu,  X. Xu,  W. Zhang

 Please cite Q-Chem as follows:
 Y. Shao et al., Mol. Phys. 113, 184-215 (2015)
 DOI: 10.1080/00268976.2014.952696

 Q-Chem 5.0.2 for Intel X86 EM64T Linux

 Parts of Q-Chem use Armadillo 5.200.1 (Boston Tea Smuggler).
 http://arma.sourceforge.net/

 Q-Chem begins on Thu Mar  3 08:03:02 2022  

Host: 
0

     Scratch files written to ./qcts1.d//
 Dec517 15110_ 26548  26544 5633   
Processing $rem in /home/leeping/opt/qchem/5.0.2-openmp/config/preferences.
 MEM_STATIC 2000
 MEM_TOTAL  8000
 SYMMETRY   OFF
 SYM_IGNORE TRUE 

Checking the input file for inconsistencies... 	...done.

--------------------------------------------------------------
User input:
--------------------------------------------------------------
$molecule
0 2
C        1.2862847909    0.2552206373    0.3161956429
C        0.6080695616   -1.0238043560   -0.2055948518
C       -0.6708830403   -0.5240082434   -0.8720136088
C       -1.0838340397    0.1926730811    0.3581692647
C       -0.4607105352    1.2136015012   -0.5850682925
N        0.8627246488    1.4247880879   -0.3851873215
H        2.3068565006    0.2088227364    0.6798802270
H        1.1491799612   -1.9445442561   -0.3910674941
H       -1.2145995802   -0.8929637967   -1.7327315279
H       -2.0866761435    0.3155356594    0.7590368338
H       -1.0471376781    1.9185772125   -1.1640851843
C        0.1446943563   -0.3924549750    1.0991307466
H        0.2022511139   -0.7553600558    2.1201822621
$end

$rem
method                b3lyp
basis                 6-31g(d)
unrestricted          true
symmetry              off
sym_ignore            true
incdft                false
incfock               0
scf_convergence       6
thresh                14
jobtype               sp
scf_guess             read
scf_algorithm         diis
max_scf_cycles        100
stability_analysis    true
max_cis_cycles        100
cis_n_roots           4
$end

--------------------------------------------------------------
 ----------------------------------------------------------------
             Standard Nuclear Orientation (Angstroms)
    I     Atom           X                Y                Z
 ----------------------------------------------------------------
    1      C       1.2862847909     0.2552206373     0.3161956429
    2      C       0.6080695616    -1.0238043560    -0.2055948518
    3      C      -0.6708830403    -0.5240082434    -0.8720136088
    4      C      -1.0838340397     0.1926730811     0.3581692647
    5      C      -0.4607105352     1.2136015012    -0.5850682925
    6      N       0.8627246488     1.4247880879    -0.3851873215
    7      H       2.3068565006     0.2088227364     0.6798802270
    8      H       1.1491799612    -1.9445442561    -0.3910674941
    9      H      -1.2145995802    -0.8929637967    -1.7327315279
   10      H      -2.0866761435     0.3155356594     0.7590368338
   11      H      -1.0471376781     1.9185772125    -1.1640851843
   12      C       0.1446943563    -0.3924549750     1.0991307466
   13      H       0.2022511139    -0.7553600558     2.1201822621
 ----------------------------------------------------------------
 Nuclear Repulsion Energy =   286.8084229656 hartrees
 There are       25 alpha and       24 beta electrons
 Requested basis set is 6-31G(d)
 There are 40 shells and 117 basis functions

 Total QAlloc Memory Limit   8000 MB
 Mega-Array Size      1956 MB
 MEM_STATIC part      2000 MB

                       Distance Matrix (Angstroms)
             C (  1)   C (  2)   C (  3)   C (  4)   C (  5)   N (  6)
   C (  2)  1.538878
   C (  3)  2.418583  1.526313
   C (  4)  2.371316  2.158746  1.482400
   C (  5)  2.186953  2.508441  1.773640  1.523245
   N (  6)  1.428016  2.468341  2.527204  2.420698  1.355003
   H (  7)  1.084429  2.278006  3.436910  3.405957  3.204544  2.167593
   H (  8)  2.314732  1.083957  2.358360  3.180472  3.550108  3.381493
   H (  9)  3.430868  2.381468  1.082863  2.359571  2.514577  3.391626
   H ( 10)  3.402442  3.160063  2.317246  1.086960  2.292794  3.352410
   H ( 11)  3.225344  3.509419  2.488593  2.301597  1.084504  2.120869
   C ( 12)  1.528300  1.521719  2.137261  1.549413  2.404674  2.453801
   H ( 13)  2.334688  2.376129  3.125560  2.378544  3.410969  3.386170
             H (  7)   H (  8)   H (  9)   H ( 10)   H ( 11)   C ( 12)
   H (  8)  2.669107
   H (  9)  4.408546  2.914333
   H ( 10)  4.395541  4.111139  2.903429
   H ( 11)  4.191986  4.510552  2.873354  2.710863
   C ( 12)  2.283035  2.374587  3.180823  2.365572  3.447242
   H ( 13)  2.726441  2.935508  4.107474  2.870317  4.415578  1.085154

 
 A cutoff of  1.0D-14 yielded    812 shell pairs
 There are      7084 function pairs
 Smallest overlap matrix eigenvalue = 9.99E-04

 Scale SEOQF with 1.000000e-01/1.000000e-01/1.000000e-01

 Standard Electronic Orientation quadrupole field applied
 Nucleus-field energy     =     0.0000000016 hartrees
 Guess MOs from SCF MO coefficient file
 Reading MOs from coefficient file
 Reading MOs from coefficient file
 An unrestricted hybrid HF-DFT SCF calculation will be
 performed using Pulay DIIS extrapolation
 Exchange:     0.2000 Hartree-Fock + 0.0800 Slater + 0.7200 B88
 Correlation:  0.1900 VWN1RPA + 0.8100 LYP
 Using SG-1 standard quadrature grid
 SCF converges when DIIS error is below 1.0E-06
Using Q-Chem read-in guess as SCF_GUESS READ specified.

 -------------------------------------------------------
 OpenMP BLAS3 based DFT computing Module                
 -------------------------------------------------------
 ---------------------------------------
  Cycle       Energy         DIIS Error
 ---------------------------------------
    1    -286.8166613486      1.48E-09
    2    -286.8166613486      1.82E-09 Convergence criterion met
 ---------------------------------------
 <S^2> = 0.7652
 SCF time:  CPU 3.21 s  wall 4.81 s
 SCF   energy in the final basis set = -286.81666135
 Total energy in the final basis set = -286.81666135
 
 Direct TDDFT/TDA calculation will be performed
 Exchange:     0.2000 Hartree-Fock + 0.0800 Slater + 0.7200 B88
 Correlation:  0.1900 VWN1RPA + 0.8100 LYP
 Using SG-1 standard quadrature grid
 CIS energy converged when residual is below 10e- 6
 ---------------------------------------------------
 Iter    Rts Conv    Rts Left    Ttl Dev     Max Dev
 ---------------------------------------------------
   1         0           4      0.006104    0.002085
   2         0           4      0.001482    0.000447
   3         0           4      0.000565    0.000263
   4         0           4      0.000234    0.000153
   5         0           4      0.000090    0.000069
   6         0           4      0.000029    0.000025
   7         3           1      0.000008    0.000008
   8         3           1      0.000002    0.000002
   9         4           0      0.000001    0.000000    Roots Converged
 ---------------------------------------------------
 
 ---------------------------------------------------
         TDDFT/TDA Excitation Energies              
 ---------------------------------------------------

 Excited state   1: excitation energy (eV) =    2.6959
 Total energy for state  1:                  -286.71758959 au
    <S**2>     :  0.7754
    Trans. Mom.:  0.2718 X   0.1429 Y   0.0666 Z
    Strength   :     0.0065186372
    D( 23) --> S(  1) amplitude = -0.5028 beta
    D( 24) --> S(  1) amplitude =  0.8359 beta

 Excited state   2: excitation energy (eV) =    2.8715
 Total energy for state  2:                  -286.71113711 au
    <S**2>     :  0.7777
    Trans. Mom.:  0.1420 X   0.1009 Y   0.0206 Z
    Strength   :     0.0021649742
    D( 22) --> S(  1) amplitude =  0.1652 beta
    D( 23) --> S(  1) amplitude =  0.8281 beta
    D( 24) --> S(  1) amplitude =  0.5187 beta

 Excited state   3: excitation energy (eV) =    3.8874
 Total energy for state  3:                  -286.67380290 au
    <S**2>     :  0.7859
    Trans. Mom.:  0.1663 X  -0.0926 Y   0.1686 Z
    Strength   :     0.0061601616
    D( 22) --> S(  1) amplitude =  0.9720 beta
    D( 23) --> S(  1) amplitude = -0.2082 beta

 Excited state   4: excitation energy (eV) =    5.2611
 Total energy for state  4:                  -286.62331847 au
    <S**2>     :  0.8002
    Trans. Mom.:  0.1156 X   0.1686 Y  -0.0537 Z
    Strength   :     0.0057576554
    S(  1) --> V(  1) amplitude =  0.3615 alpha
    D( 21) --> S(  1) amplitude =  0.9096 beta
 
 ---------------------------------------------------

 Stability analysis will be performed
 ---------------------------------------------------
 Iter    Rts Conv    Rts Left    Ttl Dev     Max Dev
 ---------------------------------------------------
   1         0           8      0.006259    0.000965
   2         0           8      0.001857    0.000476
   3         0           8      0.000850    0.000311
   4         3           5      0.000409    0.000194
   5         3           5      0.000218    0.000122
   6         4           4      0.000086    0.000059
   7         4           4      0.000033    0.000023
   8         6           2      0.000012    0.000009
   9         7           1      0.000006    0.000003
  10         7           1      0.000004    0.000001
  11         8           0      0.000003    0.000001    Roots Converged
 UKS-> UKS   stable,    smallest eigenvalue:      0.0888510
 UKS->CUKS   stable,    smallest eigenvalue:      0.0975176
 ---------------------------------------------------
  SETman timing summary (seconds)
  CPU time                75.34s
  System time              0.00s
  Wall time               76.63s
 
 --------------------------------------------------------------
 
                    Orbital Energies (a.u.)
 --------------------------------------------------------------
 
 Alpha MOs
 -- Occupied --
-14.326 -10.219 -10.217 -10.215 -10.210 -10.206 -10.204  -0.981
 -0.842  -0.780  -0.653  -0.593  -0.572  -0.542  -0.530  -0.449
 -0.439  -0.411  -0.402  -0.380  -0.341  -0.280  -0.268  -0.246
 -0.196
 -- Virtual --
  0.079   0.093   0.111   0.122   0.148   0.154   0.160   0.170
  0.181   0.202   0.216   0.255   0.261   0.293   0.371   0.392
  0.481   0.513   0.529   0.540   0.550   0.570   0.574   0.602
  0.617   0.644   0.675   0.727   0.731   0.742   0.753   0.788
  0.798   0.803   0.829   0.829   0.848   0.852   0.910   0.944
  0.984   1.008   1.116   1.158   1.197   1.228   1.405   1.458
  1.481   1.499   1.541   1.617   1.631   1.656   1.663   1.703
  1.740   1.833   1.866   1.898   1.962   1.974   1.985   2.023
  2.058   2.133   2.166   2.236   2.279   2.379   2.405   2.479
  2.494   2.514   2.550   2.554   2.600   2.606   2.670   2.698
  2.752   2.789   2.841   2.890   2.939   3.884   4.223   4.317
  4.346   4.453   4.617   4.672
 
 Beta MOs
 -- Occupied --
-14.313 -10.221 -10.216 -10.212 -10.209 -10.205 -10.204  -0.971
 -0.822  -0.775  -0.645  -0.591  -0.567  -0.536  -0.525  -0.447
 -0.434  -0.398  -0.394  -0.371  -0.327  -0.274  -0.254  -0.232
 -- Virtual --
 -0.079   0.089   0.100   0.118   0.127   0.149   0.156   0.164
  0.175   0.183   0.207   0.223   0.260   0.267   0.294   0.375
  0.397   0.483   0.517   0.530   0.543   0.558   0.576   0.578
  0.607   0.619   0.652   0.678   0.732   0.736   0.746   0.782
  0.794   0.801   0.808   0.831   0.838   0.850   0.852   0.912
  0.949   0.994   1.017   1.120   1.162   1.204   1.230   1.407
  1.473   1.495   1.506   1.545   1.623   1.640   1.662   1.679
  1.708   1.745   1.839   1.871   1.903   1.967   1.978   1.990
  2.027   2.070   2.137   2.183   2.242   2.288   2.383   2.419
  2.490   2.503   2.525   2.555   2.567   2.605   2.623   2.674
  2.701   2.755   2.792   2.844   2.896   2.944   3.905   4.232
  4.321   4.344   4.455   4.622   4.676
 --------------------------------------------------------------
 
          Ground-State Mulliken Net Atomic Charges

     Atom                 Charge (a.u.)    Spin (a.u.)
  --------------------------------------------------------
      1 C                    -0.048793      -0.051537
      2 C                    -0.132534       0.031646
      3 C                    -0.118991       0.373440
      4 C                    -0.157184       0.039205
      5 C                    -0.016737      -0.137061
      6 N                    -0.300816       0.670785
      7 H                     0.148293       0.000723
      8 H                     0.144423      -0.002013
      9 H                     0.150045      -0.016783
     10 H                     0.143905       0.006618
     11 H                     0.149393       0.002899
     12 C                    -0.104040       0.086781
     13 H                     0.143036      -0.004702
  --------------------------------------------------------
  Sum of atomic charges =    -0.000000
  Sum of spin   charges =     1.000000

 -----------------------------------------------------------------
                    Cartesian Multipole Moments
 -----------------------------------------------------------------
    Charge (ESU x 10^10)
                -0.0000
    Dipole Moment (Debye)
         X      -1.4201      Y      -1.9402      Z       0.5836
       Tot       2.4742
    Quadrupole Moments (Debye-Ang)
        XX     -38.3955     XY      -4.1808     YY     -43.1909
        XZ       2.5183     YZ       0.6411     ZZ     -39.1069
    Octopole Moments (Debye-Ang^2)
       XXX     -10.3081    XXY      -7.8785    XYY      -8.3726
       YYY     -24.0350    XXZ       3.8439    XYZ       1.9224
       YYZ      -0.0419    XZZ      -6.4097    YZZ      -8.1624
       ZZZ       6.2075
    Hexadecapole Moments (Debye-Ang^3)
      XXXX    -224.7672   XXXY      -6.9129   XXYY     -83.7079
      XYYY     -19.1957   YYYY    -248.8916   XXXZ     -10.5951
      XXYZ       8.2010   XYYZ       0.5780   YYYZ      18.5373
      XXZZ     -65.1842   XYZZ      -1.7563   YYZZ     -65.3374
      XZZZ     -10.9446   YZZZ      15.4108   ZZZZ    -159.0479
 -----------------------------------------------------------------
Archival summary:
1\1\c8-90\SP\ProcedureUnspecified\6-31G*\166(2)\hpark21\ThuMar308:04:252022ThuMar308:04:252022\0\\#,ProcedureUnspecified,6-31G*,\\0,2\N\C,1,1.355\H,2,1.0845,1,120.37\C,1,1.42802,2,103.562,3,-175.785,0\H,4,1.08443,1,118.614,2,-174.663,0\C,2,1.52324,1,114.372,3,-163.549,0\H,6,1.08696,2,122.007,1,142.206,0\C,6,1.4824,2,72.3141,1,-93.3725,0\H,8,1.08286,6,133.194,2,-102.43,0\C,8,1.52631,6,91.6848,2,99.4275,0\H,10,1.08396,8,128.443,6,149.339,0\C,10,1.52172,8,89.0456,6,4.42956,0\H,12,1.08515,10,130.681,8,139.392,0\\\@

 Total job time:  82.89s(wall), 78.73s(cpu) 
 Thu Mar  3 08:04:25 2022

        *************************************************************
        *                                                           *
        *  Thank you very much for using Q-Chem.  Have a nice day.  *
        *                                                           *
        *************************************************************


