13
image # 1 Energy = -286.83834
C 1.24415   0.25269   0.24968   
C 0.57609   -1.12775  -0.20030  
C -0.73542  -0.89687  -0.78987  
C -1.05551  0.21388   0.20838   
C -0.44519  1.47146   -0.39817  
N 0.83797   1.46263   -0.41958  
H 2.28288   0.17263   0.55366   
H 1.22228   -1.99439  -0.29882  
H -1.13955  -1.10048  -1.77878  
H -2.06506  0.28542   0.61924   
H -1.02088  2.25047   -0.89547  
C 0.14616   -0.34368  1.05352   
H 0.15208   -0.64603  2.09651   
13
image # 2 Energy = -286.83715
C 1.24560   0.25225   0.25818   
C 0.58005   -1.11895  -0.20348  
C -0.73281  -0.88310  -0.79417  
C -1.05586  0.21430   0.21502   
C -0.46023  1.46649   -0.40372  
N 0.85221   1.45649   -0.42134  
H 2.28594   0.17577   0.56574   
H 1.21537   -1.99029  -0.30700  
H -1.14590  -1.07960  -1.77940  
H -2.06567  0.28807   0.63207   
H -1.02336  2.22022   -0.92122  
C 0.14719   -0.34589  1.05839   
H 0.15724   -0.65627  2.10008   
13
image # 3 Energy = -286.83737
C 1.25055   0.25415   0.26396   
C 0.58341   -1.11445  -0.20592  
C -0.73025  -0.86752  -0.79605  
C -1.06457  0.21580   0.22638   
C -0.43641  1.44728   -0.40191  
N 0.83910   1.45463   -0.42350  
H 2.28642   0.17787   0.57634   
H 1.20990   -1.98633  -0.31458  
H -1.15172  -1.06100  -1.78117  
H -2.06190  0.28913   0.64142   
H -1.03285  2.20246   -0.95121  
C 0.14656   -0.34775  1.06276   
H 0.16142   -0.66527  2.10191   
13
image # 4 Energy = -286.83671
C 1.24917   0.25642   0.26628   
C 0.59122   -1.11613  -0.20561  
C -0.73220  -0.84908  -0.80169  
C -1.07320  0.21802   0.24149   
C -0.44746  1.43110   -0.41310  
N 0.85353   1.45518   -0.41948  
H 2.28781   0.18067   0.58567   
H 1.20424   -1.98012  -0.32136  
H -1.15483  -1.04331  -1.77959  
H -2.05793  0.29090   0.64950   
H -1.03402  2.17893   -0.97274  
C 0.14826   -0.35011  1.06515   
H 0.16478   -0.67373  2.10296   
13
image # 5 Energy = -286.83620
C 1.25132   0.25449   0.27503   
C 0.58620   -1.09973  -0.20827  
C -0.73269  -0.84028  -0.80287  
C -1.05042  0.21233   0.24371   
C -0.44033  1.44589   -0.42581  
N 0.83405   1.44597   -0.42050  
H 2.28970   0.18323   0.59969   
H 1.20310   -1.98010  -0.33212  
H -1.15956  -1.01639  -1.77825  
H -2.07037  0.29525   0.66797   
H -1.03068  2.13692   -0.99866  
C 0.14925   -0.35386  1.07279   
H 0.16943   -0.68522  2.10372   
13
image # 6 Energy = -286.83372
C 1.27288   0.26763   0.27297   
C 0.58626   -1.09904  -0.21201  
C -0.73824  -0.82376  -0.79887  
C -1.04928  0.20846   0.25613   
C -0.44427  1.42724   -0.42794  
N 0.84450   1.44416   -0.41668  
H 2.28016   0.18571   0.60635   
H 1.20272   -1.97724  -0.34092  
H -1.16297  -0.99601  -1.78043  
H -2.06536  0.29708   0.67548   
H -1.03551  2.11647   -1.02785  
C 0.13485   -0.36101  1.09380   
H 0.17280   -0.69147  2.09556   
13
image # 7 Energy = -286.83467
C 1.25560   0.25666   0.28165   
C 0.58687   -1.08735  -0.20719  
C -0.73030  -0.80795  -0.80216  
C -1.06023  0.20923   0.26646   
C -0.44256  1.41717   -0.44129  
N 0.84144   1.44316   -0.41672  
H 2.29111   0.18729   0.61440   
H 1.20039   -1.97407  -0.34709  
H -1.16709  -0.97963  -1.78096  
H -2.06575  0.29988   0.68473   
H -1.03545  2.09389   -1.04262  
C 0.14884   -0.35886  1.07613   
H 0.17516   -0.70141  2.10920   
13
image # 8 Energy = -286.83307
C 1.26580   0.26075   0.28491   
C 0.58535   -1.07820  -0.20861  
C -0.72296  -0.78564  -0.80342  
C -1.07026  0.20303   0.28719   
C -0.44154  1.41545   -0.45851  
N 0.84064   1.43677   -0.41305  
H 2.28852   0.18941   0.62269   
H 1.19719   -1.97300  -0.35510  
H -1.17408  -0.96108  -1.78206  
H -2.05953  0.30167   0.69069   
H -1.03474  2.05967   -1.06081  
C 0.14511   -0.36229  1.08065   
H 0.17803   -0.70880  2.10906   
13
image # 9 Energy = -286.83106
C 1.25129   0.25971   0.28809   
C 0.59601   -1.08001  -0.21203  
C -0.71607  -0.75903  -0.79356  
C -1.06020  0.20407   0.28314   
C -0.44224  1.39731   -0.45879  
N 0.84258   1.43664   -0.41484  
H 2.29875   0.19150   0.63426   
H 1.18663   -1.96263  -0.36120  
H -1.18384  -0.94407  -1.78900  
H -2.06727  0.30458   0.70435   
H -1.03755  2.03210   -1.08461  
C 0.14800   -0.36621  1.08872   
H 0.18085   -0.71647  2.10834   
13
image # 10 Energy = -286.82995
C 1.26587   0.25810   0.30047   
C 0.59474   -1.06272  -0.21682  
C -0.70949  -0.75394  -0.81592  
C -1.06410  0.21448   0.28735   
C -0.44065  1.38441   -0.44446  
N 0.84423   1.42986   -0.42097  
H 2.29291   0.19542   0.64339   
H 1.17854   -1.95967  -0.37042  
H -1.18748  -0.92037  -1.77334  
H -2.06596  0.30708   0.71541   
H -1.04544  2.00078   -1.11838  
C 0.14840   -0.36784  1.08874   
H 0.18491   -0.72843  2.11748   
13
image # 11 Energy = -286.82792
C 1.27144   0.27295   0.29915   
C 0.58990   -1.05765  -0.21897  
C -0.71100  -0.73256  -0.82004  
C -1.06671  0.22368   0.29807   
C -0.44331  1.36173   -0.45017  
N 0.85763   1.43288   -0.40537  
H 2.29172   0.20056   0.65437   
H 1.17210   -1.96304  -0.38088  
H -1.19145  -0.91189  -1.76410  
H -2.06686  0.30872   0.72135   
H -1.04793  1.97249   -1.14361  
C 0.15445   -0.36934  1.08427   
H 0.18614   -0.74169  2.11838   
13
image # 12 Energy = -286.82521
C 1.27238   0.26062   0.30605   
C 0.60666   -1.04985  -0.21610  
C -0.69110  -0.70052  -0.83967  
C -1.06819  0.21681   0.29377   
C -0.44521  1.36067   -0.46044  
N 0.84979   1.41941   -0.42013  
H 2.29771   0.19643   0.65355   
H 1.16278   -1.95821  -0.37325  
H -1.20145  -0.91993  -1.76798  
H -2.07440  0.30733   0.72633   
H -1.05162  1.97280   -1.12720  
C 0.14816   -0.37367  1.08673   
H 0.19031   -0.73531  2.13096   
13
image # 13 Energy = -286.82278
C 1.27212   0.25285   0.30695   
C 0.60853   -1.03990  -0.21273  
C -0.68765  -0.67557  -0.84692  
C -1.06866  0.20881   0.30296   
C -0.43221  1.35895   -0.47586  
N 0.83347   1.42089   -0.41985  
H 2.30029   0.19674   0.65785   
H 1.16061   -1.95975  -0.37567  
H -1.20497  -0.91750  -1.76285  
H -2.07518  0.30684   0.72785   
H -1.04989  1.95699   -1.12962  
C 0.14849   -0.37786  1.09444   
H 0.19072   -0.73508  2.12642   
13
image # 14 Energy = -286.82086
C 1.27621   0.25459   0.31099   
C 0.61120   -1.03749  -0.21475  
C -0.68059  -0.65005  -0.84543  
C -1.07216  0.20337   0.31549   
C -0.44050  1.33314   -0.48309  
N 0.85319   1.42778   -0.41206  
H 2.30076   0.20271   0.66601   
H 1.14909   -1.95479  -0.38562  
H -1.20909  -0.90312  -1.75576  
H -2.07664  0.31274   0.73819   
H -1.05642  1.93353   -1.15906  
C 0.14624   -0.37974  1.09635   
H 0.19430   -0.74646  2.12237   
13
image # 15 Energy = -286.81745
C 1.28062   0.25155   0.30513   
C 0.60912   -1.03062  -0.20850  
C -0.67272  -0.61138  -0.85888  
C -1.08038  0.19700   0.31972   
C -0.44307  1.29383   -0.51370  
N 0.85276   1.42427   -0.40259  
H 2.30260   0.20000   0.66038   
H 1.15134   -1.95542  -0.37923  
H -1.20606  -0.90915  -1.75006  
H -2.08347  0.31180   0.74006   
H -1.05716  1.94624   -1.14150  
C 0.14722   -0.38341  1.09831   
H 0.19479   -0.73864  2.12541   
13
image # 16 Energy = -286.81486
C 1.27442   0.24681   0.29985   
C 0.60669   -1.02614  -0.20348  
C -0.66679  -0.57343  -0.87072  
C -1.08669  0.19179   0.33160   
C -0.44450  1.26218   -0.55081  
N 0.84916   1.42621   -0.39456  
H 2.31164   0.19753   0.65852   
H 1.15336   -1.95669  -0.37410  
H -1.20400  -0.91588  -1.74627  
H -2.08915  0.31012   0.74019   
H -1.05346  1.95245   -1.12153  
C 0.15028   -0.38876  1.10581   
H 0.19482   -0.73015  2.12116   
13
image # 17 Energy = -286.81441
C 1.29573   0.24935   0.30511   
C 0.61111   -1.04128  -0.20338  
C -0.66753  -0.54013  -0.87701  
C -1.08700  0.18653   0.34512   
C -0.46335  1.22346   -0.57512  
N 0.86614   1.42804   -0.38448  
H 2.30279   0.19639   0.65064   
H 1.15058   -1.94826  -0.36880  
H -1.20191  -0.92277  -1.74440  
H -2.09259  0.30855   0.73821   
H -1.05415  1.96452   -1.10922  
C 0.13954   -0.37927  1.08668   
H 0.19685   -0.72906  2.13350   
13
image # 18 Energy = -286.81678
C 1.27504   0.25282   0.29488   
C 0.61073   -1.03496  -0.19738  
C -0.66153  -0.50644  -0.89077  
C -1.09908  0.18557   0.36281   
C -0.45679  1.18660   -0.59756  
N 0.86834   1.42532   -0.37476  
H 2.31925   0.19493   0.65610   
H 1.14878   -1.94831  -0.36762  
H -1.20144  -0.92376  -1.73902  
H -2.09083  0.30714   0.73814   
H -1.05638  1.96538   -1.10432  
C 0.14193   -0.38020  1.08124   
H 0.19875   -0.72774  2.13615   
13
image # 19 Energy = -286.81910
C 1.28856   0.25311   0.30430   
C 0.60579   -1.02733  -0.19927  
C -0.65633  -0.47608  -0.89813  
C -1.09548  0.18479   0.36266   
C -0.46709  1.16862   -0.62789  
N 0.87337   1.42621   -0.36997  
H 2.31907   0.19496   0.65705   
H 1.14397   -1.94842  -0.36800  
H -1.20364  -0.92305  -1.73587  
H -2.10173  0.30671   0.74486   
H -1.05452  1.95068   -1.09673  
C 0.14300   -0.38970  1.09916   
H 0.20243   -0.72370  2.12668   
13
image # 20 Energy = -286.81863
C 1.29874   0.25898   0.30872   
C 0.59241   -1.01521  -0.20436  
C -0.64591  -0.46685  -0.90653  
C -1.09836  0.18413   0.38229   
C -0.45839  1.14935   -0.63581  
N 0.86969   1.42333   -0.36604  
H 2.31503   0.19912   0.66374   
H 1.14285   -1.95226  -0.37301  
H -1.20417  -0.90986  -1.73282  
H -2.09934  0.31066   0.75369   
H -1.05768  1.93600   -1.11337  
C 0.13600   -0.38852  1.09596   
H 0.20711   -0.73159  2.12709   
13
image # 21 Energy = -286.82218
C 1.29518   0.26729   0.31196   
C 0.59761   -1.02141  -0.21033  
C -0.64788  -0.45603  -0.91789  
C -1.08691  0.18511   0.38799   
C -0.45450  1.13519   -0.64522  
N 0.86919   1.42248   -0.36087  
H 2.31946   0.20348   0.67657   
H 1.13043   -1.94208  -0.37968  
H -1.20227  -0.88743  -1.72458  
H -2.10763  0.31677   0.77002   
H -1.06016  1.90750   -1.13720  
C 0.13301   -0.39175  1.10724   
H 0.21311   -0.74119  2.12213   
13
image # 22 Energy = -286.82381
C 1.29907   0.26193   0.31911   
C 0.60132   -1.01225  -0.20152  
C -0.64724  -0.42990  -0.90574  
C -1.09859  0.18628   0.38586   
C -0.45956  1.11845   -0.65251  
N 0.87249   1.42632   -0.35800  
H 2.31661   0.20854   0.68601   
H 1.12543   -1.94174  -0.38821  
H -1.20873  -0.87336  -1.72982  
H -2.09971  0.32068   0.77896   
H -1.06159  1.88184   -1.16013  
C 0.14181   -0.39726  1.10493   
H 0.21784   -0.75097  2.12144   
13
image # 23 Energy = -286.82333
C 1.30020   0.26241   0.32500   
C 0.60226   -1.00578  -0.19696  
C -0.65069  -0.42694  -0.91948  
C -1.10531  0.18722   0.40349   
C -0.46836  1.11998   -0.66827  
N 0.87672   1.42656   -0.35274  
H 2.31531   0.21350   0.69642   
H 1.11977   -1.94073  -0.39680  
H -1.20646  -0.85063  -1.72196  
H -2.09372  0.32506   0.78769   
H -1.05802  1.84914   -1.17930  
C 0.14534   -0.39892  1.10093   
H 0.22249   -0.76160  2.12211   
13
image # 24 Energy = -286.82498
C 1.30008   0.26563   0.33187   
C 0.60107   -1.00179  -0.19820  
C -0.64456  -0.41030  -0.90465  
C -1.09979  0.18819   0.39721   
C -0.46143  1.10145   -0.66724  
N 0.87731   1.42918   -0.35117  
H 2.31604   0.21802   0.70828   
H 1.11074   -1.93584  -0.40630  
H -1.21362  -0.83160  -1.72590  
H -2.09591  0.32972   0.80121   
H -1.06465  1.82195   -1.20853  
C 0.14629   -0.40247  1.10368   
H 0.22844   -0.77214  2.11974   
