13   
From qcts1.out: Frame 7 / 7, Energy=    -286.8156760706
C        1.2841770215    0.2519816313    0.3068898234
C        0.6101874233   -1.0283083446   -0.2034213852
C       -0.6731870122   -0.5597654441   -0.8622264527
C       -1.0828414681    0.1922614134    0.3477064689
C       -0.4548607346    1.2494469185   -0.5497043465
N        0.8605496073    1.4273102017   -0.3936630247
H        2.3062768165    0.2052593698    0.6675861793
H        1.1482654082   -1.9520512721   -0.3839651619
H       -1.2057987777   -0.8824166913   -1.7475171929
H       -2.0855199889    0.3120003516    0.7521310025
H       -1.0544026154    1.9150041388   -1.1618313486
C        0.1484370629   -0.3867328517    1.1015058891
H        0.1949371733   -0.7479061882    2.1233562455
