13   
From optimize.out: Frame 48 / 49, Energy=    -286.9243472922
C        1.5716783180    0.3989309435   -0.4775925785
C        1.2450735921   -0.9105411304   -0.1791091331
C       -0.0290881275   -1.4371880166    0.2393437652
C       -1.3727347365    0.6809606595    0.2509144424
C       -0.4441272494    1.6245769181   -0.1461701627
N        0.8658173121    1.5538657580   -0.4802257371
H        2.6109892053    0.5554258812   -0.7749337823
H        2.0544341133   -1.6304843322   -0.2739414599
H       -0.0620061770   -2.5095789697    0.4210025955
H       -2.3717034157    1.0600360688    0.4526484073
H       -0.8270440457    2.6455119117   -0.2102187527
C       -1.1823404522   -0.7359821613    0.4290109163
H       -2.0589483362   -1.2955335303    0.7492714800
13   
From optimize.out: Frame 47 / 49, Energy=    -286.9243471871
C        1.5716777691    0.3988923102   -0.4779774929
C        1.2452748508   -0.9104413018   -0.1786136963
C       -0.0290453880   -1.4371897766    0.2393271079
C       -1.3727549051    0.6809949952    0.2511086222
C       -0.4440885059    1.6245752349   -0.1459573888
N        0.8658455418    1.5538097006   -0.4801933434
H        2.6108455544    0.5553151044   -0.7758433149
H        2.0546761868   -1.6303834632   -0.2730838090
H       -0.0619789105   -2.5096332101    0.4206925490
H       -2.3717670681    1.0600863971    0.4526169214
H       -0.8269896397    2.6455169626   -0.2099222923
C       -1.1825098963   -0.7359922562    0.4288995936
H       -2.0591855893   -1.2955506967    0.7489465436
13   
From optimize.out: Frame 46 / 49, Energy=    -286.9243468301
C        1.5718520565    0.3990099770   -0.4778796623
C        1.2453086942   -0.9102929566   -0.1783747354
C       -0.0292513924   -1.4369620139    0.2390068411
C       -1.3725195290    0.6809879672    0.2519806493
C       -0.4441363110    1.6244425687   -0.1462057329
N        0.8660612865    1.5537970497   -0.4800518447
H        2.6110571585    0.5553844347   -0.7756541227
H        2.0545318188   -1.6304393872   -0.2727238344
H       -0.0622640946   -2.5095420771    0.4196937088
H       -2.3715148479    1.0602262097    0.4534147742
H       -0.8274498177    2.6451510927   -0.2112304633
C       -1.1825004282   -0.7360548789    0.4291142620
H       -2.0591745937   -1.2957079861    0.7489101603
13   
From optimize.out: Frame 45 / 49, Energy=    -286.9243457265
C        1.5720626261    0.3993516036   -0.4772344149
C        1.2451980464   -0.9103379614   -0.1783779568
C       -0.0293170624   -1.4370414982    0.2385956842
C       -1.3720728252    0.6812591801    0.2532972321
C       -0.4444655541    1.6242811303   -0.1465704990
N        0.8665423803    1.5538133746   -0.4795762253
H        2.6114319637    0.5554531141   -0.7747290665
H        2.0543275867   -1.6305304699   -0.2729514930
H       -0.0622252264   -2.5098643577    0.4182682242
H       -2.3708971805    1.0608444281    0.4550840104
H       -0.8285757823    2.6445100925   -0.2141565472
C       -1.1826612639   -0.7360145691    0.4294782200
H       -2.0593477085   -1.2957240669    0.7488728318
13   
From optimize.out: Frame 44 / 49, Energy=    -286.9243413018
C        1.5723981118    0.4003432756   -0.4751707618
C        1.2447671329   -0.9108325476   -0.1789705281
C       -0.0293943994   -1.4370913557    0.2374064890
C       -1.3712814714    0.6820097589    0.2558241255
C       -0.4456513857    1.6238314727   -0.1484000919
N        0.8669322215    1.5532624603   -0.4808105025
H        2.6127059917    0.5560787380   -0.7699696697
H        2.0537506636   -1.6310112562   -0.2744216659
H       -0.0625157834   -2.5103213328    0.4152090595
H       -2.3694896226    1.0622573711    0.4598106816
H       -0.8305478614    2.6433691698   -0.2202467233
C       -1.1824442244   -0.7360509236    0.4306029799
H       -2.0592293734   -1.2958448308    0.7491366077
13   
From optimize.out: Frame 43 / 49, Energy=    -286.9243306415
C        1.5722763144    0.4010098449   -0.4740544686
C        1.2449202305   -0.9115218741   -0.1779471905
C       -0.0292943711   -1.4377518470    0.2354830340
C       -1.3704578463    0.6834060537    0.2588632168
C       -0.4473318853    1.6236391878   -0.1506587608
N        0.8655913467    1.5515890001   -0.4876357172
H        2.6136717114    0.5565693102   -0.7656132285
H        2.0550946980   -1.6306699448   -0.2705709406
H       -0.0631658801   -2.5115304697    0.4104484176
H       -2.3672222702    1.0642114550    0.4690101206
H       -0.8319219206    2.6430851083   -0.2242967947
C       -1.1823368164   -0.7360777415    0.4304440453
H       -2.0598233112   -1.2959580830    0.7465282667
13   
From optimize.out: Frame 42 / 49, Energy=    -286.9243217850
C        1.5718690151    0.4010282317   -0.4742259255
C        1.2453097278   -0.9115616617   -0.1762114081
C       -0.0295482303   -1.4380187742    0.2339513364
C       -1.3698947801    0.6842020000    0.2610230331
C       -0.4481195077    1.6234349258   -0.1522512054
N        0.8635871049    1.5501053130   -0.4946349703
H        2.6138992338    0.5568487196   -0.7634688396
H        2.0566184941   -1.6298549121   -0.2653731194
H       -0.0644533674   -2.5120957950    0.4066837556
H       -2.3655687776    1.0653618605    0.4756688415
H       -0.8318550581    2.6432356568   -0.2248338603
C       -1.1819065560   -0.7362530491    0.4297653312
H       -2.0599372986   -1.2964325153    0.7439070310
13   
From optimize.out: Frame 41 / 49, Energy=    -286.9243138365
C        1.5716205490    0.4002835504   -0.4754348628
C        1.2459459499   -0.9112391279   -0.1743829520
C       -0.0300956836   -1.4382622040    0.2320082922
C       -1.3695315414    0.6844652932    0.2630453848
C       -0.4481696282    1.6234127551   -0.1535397456
N        0.8608768208    1.5487137962   -0.5023680258
H        2.6140797336    0.5572722689   -0.7622601700
H        2.0586561054   -1.6286807528   -0.2579237104
H       -0.0660450804   -2.5126315490    0.4023673501
H       -2.3641512279    1.0657356499    0.4820172226
H       -0.8312325835    2.6437304573   -0.2239246406
C       -1.1817472455   -0.7362045754    0.4287203684
H       -2.0602061683   -1.2965955620    0.7416754891
13   
From optimize.out: Frame 40 / 49, Energy=    -286.9243072012
C        1.5715607253    0.3994832174   -0.4757164940
C        1.2463251093   -0.9105956529   -0.1736207100
C       -0.0307832989   -1.4385188096    0.2302709899
C       -1.3692096254    0.6845078501    0.2652866183
C       -0.4478024917    1.6230833159   -0.1550370612
N        0.8586082589    1.5479938516   -0.5066657716
H        2.6143990613    0.5577600778   -0.7598839879
H        2.0596611954   -1.6277276791   -0.2543061326
H       -0.0676554455   -2.5129845947    0.3987289419
H       -2.3631780350    1.0663525486    0.4857625504
H       -0.8309430846    2.6434999252   -0.2249927804
C       -1.1812888317   -0.7360013330    0.4286387166
H       -2.0596935372   -1.2968527174    0.7415351208
13   
From optimize.out: Frame 39 / 49, Energy=    -286.9242997853
C        1.5725109685    0.3988435100   -0.4747926043
C        1.2465265322   -0.9103052406   -0.1745822666
C       -0.0314926320   -1.4387680233    0.2280731296
C       -1.3693313053    0.6840303176    0.2673061315
C       -0.4471980524    1.6230531623   -0.1572162097
N        0.8570308824    1.5478174099   -0.5084043449
H        2.6159702882    0.5589497635   -0.7548791588
H        2.0596637164   -1.6279040637   -0.2544129163
H       -0.0687873391   -2.5133687380    0.3946089263
H       -2.3629934384    1.0663395158    0.4881515543
H       -0.8315375858    2.6430492721   -0.2287914840
C       -1.1812410209   -0.7354678535    0.4299682457
H       -2.0591210138   -1.2962690321    0.7449709974
13   
From optimize.out: Frame 38 / 49, Energy=    -286.9242907018
C        1.5734915549    0.3980523058   -0.4727600801
C        1.2456211948   -0.9102667194   -0.1792142680
C       -0.0325914182   -1.4392670498    0.2254222495
C       -1.3689071808    0.6839857434    0.2696930187
C       -0.4467710365    1.6228012120   -0.1585049324
N        0.8566215606    1.5482269976   -0.5058138371
H        2.6177553546    0.5601159116   -0.7480086016
H        2.0586584373   -1.6282570261   -0.2575577845
H       -0.0699055574   -2.5138094166    0.3926297170
H       -2.3627817877    1.0661564773    0.4896146046
H       -0.8337981143    2.6414642295   -0.2364401139
C       -1.1803546426   -0.7340410183    0.4316338575
H       -2.0570383647   -1.2951616470    0.7493061703
13   
From optimize.out: Frame 37 / 49, Energy=    -286.9242741951
C        1.5752555922    0.3981726213   -0.4674969435
C        1.2454766024   -0.9106962545   -0.1829603029
C       -0.0328292201   -1.4403267187    0.2244354549
C       -1.3688525663    0.6841299970    0.2715848805
C       -0.4465398228    1.6229893401   -0.1614470008
N        0.8572557727    1.5500300948   -0.4995858625
H        2.6200810940    0.5611835658   -0.7394925776
H        2.0566258870   -1.6300097723   -0.2688434399
H       -0.0699677367   -2.5149477753    0.3903172963
H       -2.3632603975    1.0667996646    0.4883783028
H       -0.8372372601    2.6396825520   -0.2470830338
C       -1.1799413811   -0.7334494960    0.4355647982
H       -2.0560665637   -1.2935578190    0.7566284283
13   
From optimize.out: Frame 36 / 49, Energy=    -286.9242551311
C        1.5764598752    0.3984763368   -0.4630779893
C        1.2442968318   -0.9118230226   -0.1888374008
C       -0.0330530656   -1.4407020565    0.2235645468
C       -1.3687151785    0.6845583233    0.2717969647
C       -0.4470594284    1.6231165531   -0.1628125685
N        0.8592917420    1.5514967003   -0.4920077352
H        2.6220495005    0.5621044405   -0.7318959689
H        2.0542457844   -1.6319130666   -0.2792779132
H       -0.0697469288   -2.5153715525    0.3904466001
H       -2.3641331080    1.0661448961    0.4860953768
H       -0.8404533983    2.6381348237   -0.2563378144
C       -1.1789711557   -0.7325045161    0.4389116613
H       -2.0542114705   -1.2917178595    0.7634322407
13   
From optimize.out: Frame 35 / 49, Energy=    -286.9242288653
C        1.5774815631    0.3998042717   -0.4590362951
C        1.2420681683   -0.9129459741   -0.1939749963
C       -0.0342202464   -1.4394004049    0.2231614063
C       -1.3680801345    0.6841830376    0.2703292176
C       -0.4478391525    1.6232535319   -0.1648523097
N        0.8619739525    1.5532348197   -0.4844856474
H        2.6242940721    0.5630535961   -0.7237546420
H        2.0501637508   -1.6342878639   -0.2906594538
H       -0.0716637188   -2.5139728122    0.3909329491
H       -2.3647142425    1.0639603109    0.4821862448
H       -0.8430054247    2.6370712488   -0.2638363891
C       -1.1763979910   -0.7326288087    0.4422622440
H       -2.0500605963   -1.2913249529    0.7717276717
13   
From optimize.out: Frame 34 / 49, Energy=    -286.9241939902
C        1.5773369563    0.3992082704   -0.4572822917
C        1.2442312442   -0.9136592134   -0.1938925384
C       -0.0314379880   -1.4429688026    0.2243030125
C       -1.3690346007    0.6861947663    0.2718233856
C       -0.4484173298    1.6231854064   -0.1654973606
N        0.8614791826    1.5536651798   -0.4823217720
H        2.6237401491    0.5625899473   -0.7236065131
H        2.0529417920   -1.6336400352   -0.2948030837
H       -0.0676377633   -2.5174258733    0.3914411519
H       -2.3648705436    1.0680818518    0.4827584605
H       -0.8438250630    2.6367544838   -0.2666087933
C       -1.1796292888   -0.7323220956    0.4429029922
H       -2.0548767469   -1.2896638856    0.7707833501
13   
From optimize.out: Frame 33 / 49, Energy=    -286.9241249260
C        1.5772989076    0.4011862362   -0.4512664225
C        1.2390183403   -0.9138572547   -0.2029250402
C       -0.0348032005   -1.4380681250    0.2241069962
C       -1.3676162094    0.6852290800    0.2693656341
C       -0.4495042674    1.6218458231   -0.1671350000
N        0.8659677771    1.5552475964   -0.4692637715
H        2.6251538876    0.5628228374   -0.7134122231
H        2.0444641338   -1.6362630742   -0.3109488735
H       -0.0725456792   -2.5119378603    0.3952688945
H       -2.3660311257    1.0639455304    0.4746056614
H       -0.8455405284    2.6340300848   -0.2761872221
C       -1.1717909029   -0.7327109732    0.4473671925
H       -2.0440711329   -1.2914699008    0.7804241744
13   
From optimize.out: Frame 30 / 49, Energy=    -286.9240029743
C        1.5748629386    0.3991623964   -0.4533126132
C        1.2451406093   -0.9161690054   -0.1963282578
C       -0.0286343987   -1.4476983857    0.2293618882
C       -1.3683045379    0.6907578583    0.2755151514
C       -0.4503321056    1.6234424375   -0.1677884896
N        0.8629683049    1.5578372610   -0.4785562854
H        2.6219856797    0.5599166169   -0.7196587137
H        2.0554804267   -1.6325431782   -0.3067363398
H       -0.0635622917   -2.5214690722    0.3967898703
H       -2.3633589298    1.0754368223    0.4817818172
H       -0.8468872597    2.6366364048   -0.2716260998
C       -1.1807777544   -0.7340757209    0.4443194688
H       -2.0585806813   -1.2912344349    0.7662386034
13   
From optimize.out: Frame 29 / 49, Energy=    -286.9234654895
C        1.5818669092    0.4029299001   -0.4370012266
C        1.2451541089   -0.9159857764   -0.1998293455
C       -0.0296668612   -1.4410069040    0.2306840477
C       -1.3639540166    0.6873017597    0.2589570214
C       -0.4541942593    1.6219783785   -0.1753495877
N        0.8684410662    1.5668748589   -0.4590955316
H        2.6236652007    0.5542350441   -0.7313631388
H        2.0586050258   -1.6295038258   -0.3061871185
H       -0.0877697509   -2.5148001789    0.3918035203
H       -2.3579591989    1.0517727528    0.5001703941
H       -0.8533545207    2.6334163580   -0.2842050584
C       -1.1742397669   -0.7397900364    0.4341707515
H       -2.0565939364   -1.2774223307    0.7772452718
13   
From optimize.out: Frame 28 / 49, Energy=    -286.9233617322
C        1.5798754831    0.4113693364   -0.4245096372
C        1.2238220892   -0.9270154387   -0.2534067953
C       -0.0270386124   -1.4438140607    0.2101470138
C       -1.3772423578    0.6875217144    0.2459274112
C       -0.4627761940    1.6160667451   -0.1775433145
N        0.8859233603    1.5529664705   -0.4134520909
H        2.6361566889    0.5716768927   -0.6576458682
H        2.0273964081   -1.6469915861   -0.3863256403
H       -0.0518323674   -2.5171885539    0.3958922593
H       -2.3848913431    1.0595282908    0.4206128130
H       -0.8447562855    2.6299082607   -0.3069082522
C       -1.1701280487   -0.7251956996    0.4865177862
H       -2.0345088207   -1.2688323716    0.8606943151
13   
From optimize.out: Frame 27 / 49, Energy=    -286.9231589514
C        1.5800413120    0.4146777142   -0.4148974579
C        1.2138648535   -0.9285692281   -0.2758788405
C       -0.0286866497   -1.4369544713    0.2100646892
C       -1.3790731880    0.6853815642    0.2395372930
C       -0.4645020226    1.6133257553   -0.1810482680
N        0.8935419408    1.5527654115   -0.3848408875
H        2.6416217426    0.5755301160   -0.6223018017
H        2.0086530934   -1.6536507896   -0.4304966917
H       -0.0537755016   -2.5099037287    0.3982828829
H       -2.3911714757    1.0531005605    0.3973591229
H       -0.8450151768    2.6245611018   -0.3311645552
C       -1.1603996806   -0.7215202165    0.5022685777
H       -2.0150992474   -1.2687437891    0.8931159368
13   
From optimize.out: Frame 26 / 49, Energy=    -286.9229292683
C        1.5822100833    0.4163415115   -0.4240628449
C        1.2125473836   -0.9339843307   -0.2938436637
C       -0.0253497764   -1.4346419460    0.2091434808
C       -1.3851090975    0.6881416937    0.2349218309
C       -0.4708908804    1.6119178481   -0.1910496203
N        0.8938127452    1.5517174329   -0.3816868047
H        2.6506852135    0.5745724926   -0.5984628523
H        2.0074656765   -1.6586736760   -0.4473667306
H       -0.0492649812   -2.5012521041    0.4269589445
H       -2.3954839870    1.0549103029    0.4011705106
H       -0.8411647284    2.6295230639   -0.3212709685
C       -1.1687637165   -0.7240005059    0.4861163196
H       -2.0106939346   -1.2745717829    0.8994323986
13   
From optimize.out: Frame 24 / 49, Energy=    -286.9223264797
C        1.5848758619    0.4217460102   -0.3965670605
C        1.2006082082   -0.9317964342   -0.3041045193
C       -0.0322988101   -1.4330379788    0.1940109643
C       -1.3788277385    0.6795022729    0.2282248955
C       -0.4679370341    1.6081028404   -0.1789401268
N        0.8994740734    1.5488358961   -0.3466028886
H        2.6476961510    0.5791139274   -0.6036569346
H        1.9931346484   -1.6583036297   -0.4690010155
H       -0.0437959712   -2.5035073442    0.4031888536
H       -2.3988562339    1.0435598280    0.3508601272
H       -0.8435009263    2.6177195070   -0.3438017079
C       -1.1549086177   -0.7188881733    0.5258207836
H       -2.0056636112   -1.2530467217    0.9405686290
13   
From optimize.out: Frame 22 / 49, Energy=    -286.9215117358
C        1.5831470967    0.4187075825   -0.4170880647
C        1.1898942574   -0.9346912887   -0.3581413914
C       -0.0279858342   -1.4201794265    0.1988463133
C       -1.3922067812    0.6845200353    0.2166013612
C       -0.4749161971    1.6068475390   -0.2016120404
N        0.9040127601    1.5434848530   -0.3319057460
H        2.6641858101    0.5706933952   -0.5068316861
H        1.9642834287   -1.6729799379   -0.5399572242
H       -0.0304605875   -2.4785788229    0.4633353900
H       -2.4106115233    1.0426183111    0.3479524589
H       -0.8443344391    2.6234704772   -0.3411059293
C       -1.1550436311   -0.7158642293    0.5049869238
H       -1.9699643595   -1.2680484879    0.9649196350
13   
From optimize.out: Frame 21 / 49, Energy=    -286.9209091593
C        1.5871400504    0.4305241238   -0.3800286087
C        1.1896151850   -0.9390347786   -0.3610833120
C       -0.0174488252   -1.4220961434    0.1945645675
C       -1.3881468657    0.6799931705    0.2223279359
C       -0.4676863537    1.6034238833   -0.1751722858
N        0.9106615681    1.5464082008   -0.2817102206
H        2.6627455700    0.5739112713   -0.5288652892
H        1.9661037486   -1.6640735374   -0.5845177917
H       -0.0167850627   -2.4803316265    0.4508333648
H       -2.4090409731    1.0409679722    0.3122113651
H       -0.8416515893    2.6044155291   -0.3958969817
C       -1.1678641614   -0.7264865063    0.5370729924
H       -2.0076422909   -1.2476215587    0.9902642639
13   
From optimize.out: Frame 20 / 49, Energy=    -286.9188256180
C        1.5874907414    0.4448663446   -0.3776235946
C        1.1603400399   -0.9362963373   -0.3576711866
C       -0.0433025723   -1.4243593107    0.1677775952
C       -1.3917167927    0.6849136692    0.1973070328
C       -0.4626200180    1.6135152792   -0.1619848734
N        0.9165436932    1.5518705614   -0.2749875705
H        2.6722376604    0.5517472167   -0.4716089742
H        1.9544782468   -1.6408790160   -0.5968392033
H       -0.0667327596   -2.4987928063    0.3621968023
H       -2.4329163619    1.0017556244    0.2524214222
H       -0.8375136419    2.6013899692   -0.4281159518
C       -1.1438384332   -0.7066935835    0.5725005958
H       -1.9124498024   -1.2430376109    1.1166279060
13   
From optimize.out: Frame 19 / 49, Energy=    -286.9138660921
C        1.6119812710    0.4533668361   -0.3540322905
C        1.1739915636   -0.9378987569   -0.3187082870
C       -0.0373125543   -1.4195329896    0.1882408443
C       -1.3885958262    0.6776800975    0.1880003259
C       -0.4687363630    1.6050515812   -0.1496099143
N        0.9087172979    1.5587982844   -0.2576025696
H        2.6955523038    0.5591068616   -0.4686140369
H        1.9395695263   -1.6440647884   -0.6450886120
H       -0.1297859895   -2.5133104366    0.2449135105
H       -2.4400929238    0.9781239189    0.1415533609
H       -0.8638525091    2.5757924867   -0.4421887111
C       -1.1256863681   -0.6828131161    0.6532186265
H       -1.8757494287   -1.2102999787    1.2199177531
13   
From optimize.out: Frame 18 / 49, Energy=    -286.9024051667
C        1.6202387371    0.4616832837   -0.3365309760
C        1.1838588971   -0.9393808534   -0.2761013020
C        0.0173385999   -1.4700709571    0.2370330478
C       -1.3830718198    0.6980343308    0.2097356047
C       -0.4575969243    1.6258141886   -0.0945587845
N        0.9244607613    1.5651653581   -0.2330887745
H        2.6984396625    0.5463090131   -0.5080117715
H        1.9299081317   -1.6201082973   -0.6949230293
H       -0.0645894083   -2.5658290427    0.1902280583
H       -2.4297136863    1.0009431537    0.0926383250
H       -0.9005203748    2.5347303077   -0.4930080522
C       -1.1797452851   -0.6685921305    0.6770286671
H       -1.9590072911   -1.1686983549    1.2295589871
13   
From optimize.out: Frame 17 / 49, Energy=    -286.8967347451
C        1.6113319854    0.4830279240   -0.3060385088
C        1.1180448324   -0.9058870787   -0.2558573911
C       -0.0328864532   -1.4255221417    0.1476336655
C       -1.3144989522    0.6402261317    0.1929276752
C       -0.4260225024    1.6282135286   -0.1507715764
N        0.9569172385    1.5703088314   -0.2632127923
H        2.6958752620    0.5483418176   -0.4281094071
H        1.8787243901   -1.5854997474   -0.6448170606
H       -0.1991669563   -2.4880475661    0.0228383758
H       -2.3744222990    0.8616166966    0.0805856209
H       -0.9117121192    2.5178372779   -0.5467496274
C       -1.1181781541   -0.6737365379    0.7706988506
H       -1.8840062722   -1.1708791361    1.3808721755
13   
From optimize.out: Frame 16 / 49, Energy=    -286.8868440690
C        1.6182981157    0.4682520604   -0.2626261462
C        1.1025986200   -0.8918322120   -0.2573473950
C       -0.0636740927   -1.3767625255    0.1708049276
C       -1.2951106985    0.6212163086    0.2030686464
C       -0.4226222213    1.6389856276   -0.1238361369
N        0.9608386973    1.5724566741   -0.2191424400
H        2.6976606442    0.5490961700   -0.4086362312
H        1.8003552890   -1.6007098362   -0.7009132931
H       -0.3228492339   -2.4001877108   -0.0641838118
H       -2.3440674091    0.7712340841   -0.0415386243
H       -0.9496437693    2.4708311455   -0.5957531955
C       -1.0206328240   -0.6317815496    0.8561027100
H       -1.7611511173   -1.1907982362    1.4440009898
13   
From optimize.out: Frame 15 / 49, Energy=    -286.8815122361
C        1.6518615758    0.4575149419   -0.2537275502
C        1.1690184465   -0.8932247243   -0.2598244104
C       -0.0149683476   -1.4054023497    0.1952753462
C       -1.3381135802    0.5901243230    0.1607755661
C       -0.4170849623    1.5835369331   -0.1225134278
N        0.9671230221    1.5637023329   -0.1921259728
H        2.7193439239    0.5939145863   -0.4342760152
H        1.8215487055   -1.6192237682   -0.7398861812
H       -0.2766494120   -2.4143801458   -0.1199414805
H       -2.3743676217    0.7882933483   -0.1007318625
H       -0.9590314557    2.4290706938   -0.5594683795
C       -1.0923787145   -0.5824656888    0.9181528976
H       -1.8563015798   -1.0914604825    1.5082914702
13   
From optimize.out: Frame 14 / 49, Energy=    -286.8709725316
C        1.6597003099    0.4581356288   -0.2088600250
C        1.1693743875   -0.8601708347   -0.2879932991
C       -0.0597873444   -1.3499203057    0.1724416353
C       -1.3176023343    0.5101748930    0.1348359096
C       -0.3898593974    1.5220895481   -0.1625870913
N        0.9647397558    1.5750474309   -0.1802989466
H        2.7252475164    0.6225427965   -0.3646709308
H        1.7797091996   -1.6099321504   -0.7852430301
H       -0.3742030773   -2.3258046565   -0.2028390110
H       -2.3524774582    0.7001222430   -0.1384699367
H       -0.9418717026    2.3641392287   -0.5916341448
C       -1.0435861219   -0.5558493584    1.0183281567
H       -1.8193837330   -1.0505744632    1.5969907137
13   
From optimize.out: Frame 13 / 49, Energy=    -286.8612059029
C        1.6653815674    0.4304627756   -0.1933927611
C        1.1922780605   -0.8696069968   -0.3160483399
C       -0.0802704007   -1.3057930345    0.1469575111
C       -1.3182905635    0.4570076746    0.0842975856
C       -0.4077956729    1.5005767054   -0.1966593636
N        0.9252604701    1.5593510471   -0.1669952300
H        2.7302956694    0.6281169059   -0.3069652641
H        1.7873833707   -1.6279851309   -0.8185506852
H       -0.4300914441   -2.2713549517   -0.2349285553
H       -2.3590386394    0.6540415834   -0.1777497369
H       -0.9325530435    2.3876468971   -0.5664214702
C       -1.0027776350   -0.5225654141    1.0835914024
H       -1.7697817392   -1.0198980612    1.6628649073
13   
From optimize.out: Frame 12 / 49, Energy=    -286.8527226640
C        1.6706795387    0.4180063929   -0.1601975238
C        1.1814573150   -0.8645306321   -0.3248468815
C       -0.1418085193   -1.2184319648    0.0965943954
C       -1.2898164156    0.3952805826    0.0514679914
C       -0.4151732804    1.4839217016   -0.2387281827
N        0.9060596785    1.5556265097   -0.2074421330
H        2.7382437343    0.6170518611   -0.2413040637
H        1.7672199723   -1.6402845314   -0.8127854535
H       -0.5418524211   -2.1701202226   -0.2781005460
H       -2.3456103999    0.5814555346   -0.1657310465
H       -0.9370773489    2.3930797854   -0.5551959578
C       -0.9262670138   -0.5119652862    1.1261904955
H       -1.6660548396   -1.0390897309    1.7100789062
13   
From optimize.out: Frame 11 / 49, Energy=    -286.8446404044
C        1.6677303271    0.4140650957   -0.1300391392
C        1.1636034642   -0.8556018472   -0.3548009602
C       -0.1617538206   -1.1892573727    0.0948024981
C       -1.2714876956    0.3610012148    0.0276732001
C       -0.4128416008    1.4729430492   -0.2794152630
N        0.8931612139    1.5522245778   -0.2298051968
H        2.7387555063    0.6070822535   -0.1775916200
H        1.7446637271   -1.6232111032   -0.8614469273
H       -0.5755814887   -2.1411162172   -0.2677598017
H       -2.3290295775    0.5569956420   -0.1857627206
H       -0.9261054767    2.4048820062   -0.5338763276
C       -0.9039656588   -0.4954543168    1.1670137530
H       -1.6271489199   -1.0645529822    1.7310085052
13   
From optimize.out: Frame 10 / 49, Energy=    -286.8351603142
C        1.6446585118    0.4014358779   -0.1455794924
C        1.1470598163   -0.8666687275   -0.3628676416
C       -0.2025858059   -1.1360348416    0.0377164669
C       -1.2647598571    0.3567082968    0.0008093265
C       -0.4205926244    1.4810484411   -0.3008997846
N        0.8529146793    1.5249437234   -0.2774046417
H        2.7161124093    0.5937721901   -0.1264142310
H        1.7658025054   -1.6438359805   -0.8017123424
H       -0.6114378564   -2.0994276040   -0.2690877761
H       -2.3206938522    0.6143847564   -0.1531663818
H       -0.9208146978    2.4301506304   -0.4986566084
C       -0.8605823713   -0.5066308380    1.1633817115
H       -1.5250808571   -1.1498459244    1.7338813950
13   
From optimize.out: Frame 9 / 49, Energy=    -286.8244051559
C        1.6475170597    0.3903248789   -0.1243293926
C        1.1522919145   -0.8596968000   -0.3631102021
C       -0.1863364249   -1.1121496799    0.0589170557
C       -1.2643060629    0.3379678559   -0.0146898206
C       -0.4195356559    1.4699238162   -0.3339574592
N        0.8540844893    1.4951922249   -0.3123614964
H        2.7177566471    0.5856329459   -0.1084601791
H        1.7718787541   -1.6076574960   -0.8447266058
H       -0.6310589062   -2.0537029656   -0.2456431729
H       -2.3156608027    0.6231208995   -0.1435409867
H       -0.8973782566    2.4417319441   -0.4631115103
C       -0.8879269073   -0.5081915219    1.1811807050
H       -1.5413258482   -1.2024961019    1.7138330650
13   
From optimize.out: Frame 8 / 49, Energy=    -286.8153023409
C        1.6067780621    0.3812196411   -0.1038443332
C        1.0873515784   -0.8759241769   -0.3451750138
C       -0.2744186825   -1.0656132475   -0.0528234511
C       -1.2249621734    0.3251843946    0.0098282437
C       -0.4500795264    1.4952933292   -0.3933810974
N        0.8534766094    1.5055296915   -0.3631896524
H        2.6775089920    0.5492720784   -0.0100582253
H        1.7331069897   -1.6454844132   -0.7540628623
H       -0.7712948909   -1.9905700154   -0.3301897951
H       -2.3052037345    0.4921047998   -0.0678054981
H       -0.9226081944    2.4729543462   -0.5166086224
C       -0.7308735865   -0.4206091712    1.2136653679
H       -1.2787814430   -1.2233572565    1.7136449395
13   
From optimize.out: Frame 7 / 49, Energy=    -286.7978380619
C        1.6108093049    0.3746241130   -0.1415738640
C        1.1346858627   -0.9161957749   -0.3770671162
C       -0.1952885737   -1.0723971111   -0.0430422342
C       -1.2653147277    0.3317434762    0.0016134520
C       -0.4537550092    1.5291913151   -0.3766090919
N        0.8363967401    1.4997617521   -0.3632116797
H        2.6759273678    0.5621217850   -0.0424150948
H        1.7942405949   -1.6782721123   -0.7817663544
H       -0.7909373918   -1.9544872875   -0.2095392985
H       -2.3483258038    0.4763113964   -0.0914841824
H       -0.8639000577    2.5354615950   -0.4535738177
C       -0.8035496437   -0.4051781707    1.2380650517
H       -1.3309886629   -1.2826849764    1.6406042300
13   
From optimize.out: Frame 6 / 49, Energy=    -286.7730711688
C        1.5499480302    0.3924149531   -0.1638962782
C        1.0679187975   -0.9255423904   -0.3410825141
C       -0.2660301038   -1.0384275286   -0.0955664885
C       -1.2520288281    0.3373335546    0.0311999670
C       -0.4431551387    1.5548736318   -0.4313727064
N        0.8222908545    1.5247517428   -0.4287010354
H        2.6102612888    0.5649731050   -0.0149410224
H        1.7488035637   -1.7170489553   -0.6492879407
H       -0.9230838934   -1.8781747401   -0.2001022099
H       -2.3442721388    0.4283969102    0.0274144926
H       -0.8079129312    2.5746839565   -0.4599197428
C       -0.6615045564   -0.4377783160    1.1751694437
H       -1.1012349443   -1.3804559235    1.5510860352
13   