13   
From optimize.out: Frame 1 / 1, Energy=    -286.9243472835
C        1.5716783180    0.3989309435   -0.4775925785
C        1.2450735921   -0.9105411304   -0.1791091331
C       -0.0290881275   -1.4371880166    0.2393437652
C       -1.3727347365    0.6809606595    0.2509144424
C       -0.4441272494    1.6245769181   -0.1461701627
N        0.8658173121    1.5538657580   -0.4802257371
H        2.6109892053    0.5554258812   -0.7749337823
H        2.0544341133   -1.6304843322   -0.2739414599
H       -0.0620061770   -2.5095789697    0.4210025955
H       -2.3717034157    1.0600360688    0.4526484073
H       -0.8270440457    2.6455119117   -0.2102187527
C       -1.1823404522   -0.7359821613    0.4290109163
H       -2.0589483362   -1.2955335303    0.7492714800
13   
From optimize.out: Frame 48 / 49, Energy=    -286.9243472922
C        1.5813872785    0.4049680823   -0.4339778829
C        1.2400000674   -0.9186456749   -0.2127707065
C       -0.0290358350   -1.4416738137    0.2257352620
C       -1.3671585580    0.6873517930    0.2558085024
C       -0.4562645838    1.6205500909   -0.1758830556
N        0.8726642222    1.5635231688   -0.4480574626
H        2.6266827693    0.5584432328   -0.7135509705
H        2.0510589031   -1.6337269686   -0.3255588129
H       -0.0791128546   -2.5153655879    0.3927920714
H       -2.3644575659    1.0536326397    0.4809676908
H       -0.8512830205    2.6325636205   -0.2897093308
C       -1.1732355036   -0.7362682400    0.4468063074
H       -2.0512453190   -1.2753523429    0.7973983877
13   
From optimize.out: Frame 47 / 49, Energy=    -286.9243471871
C        1.5800226510    0.4126040727   -0.4210923017
C        1.2202580841   -0.9276397529   -0.2615738219
C       -0.0276138705   -1.4414202401    0.2098783512
C       -1.3779161361    0.6867419881    0.2435624677
C       -0.4634711695    1.6150526177   -0.1787942044
N        0.8885822095    1.5528315494   -0.4032153734
H        2.6381778035    0.5730192675   -0.6452161281
H        2.0208365891   -1.6493551888   -0.4019515541
H       -0.0522993610   -2.5145528623    0.3970528318
H       -2.3871638087    1.0572396770    0.4121332301
H       -0.8447837547    2.6280543290   -0.3151771538
C       -1.1668489783   -0.7239420709    0.4920127111
H       -2.0277802586   -1.2686333862    0.8723809454
13   
From optimize.out: Frame 46 / 49, Energy=    -286.9243468301
C        1.5836606256    0.4194265824   -0.4099336417
C        1.2003407848   -0.9332504643   -0.3182035398
C       -0.0291908485   -1.4294691858    0.1993692222
C       -1.3845701463    0.6832597217    0.2263380793
C       -0.4708501615    1.6086881866   -0.1890450861
N        0.8994333007    1.5479158511   -0.3510104187
H        2.6535606221    0.5753496665   -0.5723754639
H        1.9878663972   -1.6629386306   -0.4854316769
H       -0.0410661378   -2.4952193544    0.4278638588
H       -2.4016323786    1.0461655432    0.3628013603
H       -0.8431625265    2.6225113834   -0.3372171285
C       -1.1584866492   -0.7192574557    0.5092413686
H       -1.9959028820   -1.2631818441    0.9376030665
13   
From optimize.out: Frame 45 / 49, Energy=    -286.9243457265
C        1.5859328763    0.4278529674   -0.3910481305
C        1.1880673230   -0.9372169411   -0.3568303291
C       -0.0231763388   -1.4223472838    0.1936737998
C       -1.3890266975    0.6815978756    0.2191550835
C       -0.4693188174    1.6054059887   -0.1817094294
N        0.9086430609    1.5461500697   -0.2987392750
H        2.6630319521    0.5716141171   -0.5225441094
H        1.9662166610   -1.6644496886   -0.5666583383
H       -0.0259030797   -2.4825484533    0.4448700976
H       -2.4107342350    1.0385725931    0.3197105725
H       -0.8421826447    2.6102122673   -0.3802554312
C       -1.1617484648   -0.7216028748    0.5302524179
H       -1.9898015953   -1.2532406373    0.9901230716
13   
From optimize.out: Frame 44 / 49, Energy=    -286.9243413018
C        1.5873894084    0.4407221251   -0.3783185293
C        1.1687991640   -0.9370876165   -0.3586571285
C       -0.0358320695   -1.4237053630    0.1755177557
C       -1.3906852536    0.6834918792    0.2045368833
C       -0.4640839479    1.6105993459   -0.1657954081
N        0.9148440389    1.5502921991   -0.2769300965
H        2.6694948979    0.5581515739   -0.4881533250
H        1.9578374637   -1.6475811291   -0.5932789016
H       -0.0523002516   -2.4934584037    0.3878085516
H       -2.4260175105    1.0130861272    0.2696978709
H       -0.8387093118    2.6022642120   -0.4188062024
C       -1.1507807255   -0.7124127965    0.5622637041
H       -1.9399559024   -1.2443621537    1.0801148258
13   
From optimize.out: Frame 42 / 49, Energy=    -286.9243217850
C        1.5998889962    0.4488698306   -0.3657241601
C        1.1678725158   -0.9371657854   -0.3380065245
C       -0.0397231688   -1.4218668209    0.1787080758
C       -1.3900605932    0.6811457553    0.1931203360
C       -0.4658250771    1.6090152098   -0.1559944292
N        0.9124552078    1.5552646092   -0.2663229758
H        2.6838475107    0.5559426001   -0.4712992311
H        1.9471713935   -1.6429818581   -0.6210200697
H       -0.0976190755   -2.5057574125    0.3046561260
H       -2.4360481912    0.9906118648    0.1975220974
H       -0.8509428199    2.5884873925   -0.4345651045
C       -1.1351501455   -0.6950143249    0.6126411752
H       -1.8958665527   -1.2265510606    1.1662846845
13   
From optimize.out: Frame 42 / 49, Energy=    -286.9243217850
C        1.6150355075    0.4566835780   -0.3471373767
C        1.1778737318   -0.9384885392   -0.3016475925
C       -0.0147741850   -1.4405294013    0.2081378954
C       -1.3863551573    0.6862151925    0.1971380919
C       -0.4640331619    1.6137740739   -0.1270010097
N        0.9153521940    1.5613313328   -0.2477118255
H        2.6964006297    0.5536985066   -0.4849707200
H        1.9357913435   -1.6340984982   -0.6650034531
H       -0.1018534064   -2.5348388812    0.2240180506
H       -2.4356886874    0.9879237751    0.1229515424
H       -0.8786421595    2.5591723925   -0.4630202223
C       -1.1483389952   -0.6772806828    0.6618749885
H       -1.9107676537   -1.1935628486    1.2223716310
13   
From optimize.out: Frame 41 / 49, Energy=    -286.9243138365
C        1.6179586016    0.4671475286   -0.3287248801
C        1.1670104442   -0.9308064204   -0.2709188447
C        0.0044809464   -1.4586664249    0.2141467348
C       -1.3655171112    0.6832353859    0.2054327614
C       -0.4495138472    1.6264284216   -0.1089493039
N        0.9327696453    1.5664820913   -0.2408005470
H        2.6977831740    0.5468294127   -0.4875567026
H        1.9168050532   -1.6112484810   -0.6820958614
H       -0.0990413676   -2.5459169228    0.1473761665
H       -2.4155590472    0.9652754699    0.0895528231
H       -0.9033854703    2.5304056787   -0.5067659382
C       -1.1639840506   -0.6699091028    0.7010083085
H       -1.9398069706   -1.1692566366    1.2682952837
13   
From optimize.out: Frame 40 / 49, Energy=    -286.9243072012
C        1.6140829660    0.4764530501   -0.3148348234
C        1.1377538868   -0.9158600601   -0.2619774381
C       -0.0180214009   -1.4385089168    0.1748138415
C       -1.3350037199    0.6574873956    0.1980912751
C       -0.4355150257    1.6275893757   -0.1335668466
N        0.9471634739    1.5687772330   -0.2537189653
H        2.6966652784    0.5477356253   -0.4520307637
H        1.8934387955   -1.5960794958   -0.6604493069
H       -0.1597169057   -2.5106970538    0.0725245867
H       -2.3908195356    0.9028069914    0.0830922797
H       -0.9086869188    2.5224983058   -0.5309922483
C       -1.1358472980   -0.6717969916    0.7432340691
H       -1.9054935960   -1.1704054588    1.3358143403
13   
From optimize.out: Frame 39 / 49, Energy=    -286.9242997853
C        1.6126532233    0.4802254455   -0.2978046609
C        1.1151152116   -0.9032213488   -0.2561399941
C       -0.0387258207   -1.4162741018    0.1520284654
C       -1.3108216602    0.6366206151    0.1948510724
C       -0.4253775848    1.6302566292   -0.1456628401
N        0.9576610058    1.5707162041   -0.2548541462
H        2.6962138882    0.5484848926   -0.4244160083
H        1.8638604385   -1.5883845837   -0.6554566069
H       -0.2226252754   -2.4713835414    0.0063332282
H       -2.3686650093    0.8444741907    0.0574228075
H       -0.9189064624    2.5089218142   -0.5560439367
C       -1.0996771244   -0.6657791043    0.7868970564
H       -1.8607048300   -1.1746571115    1.3928455633
13   
From optimize.out: Frame 38 / 49, Energy=    -286.9242907018
C        1.6178271488    0.4719166301   -0.2743914693
C        1.1098529870   -0.8958296950   -0.2570393361
C       -0.0529044029   -1.3916805276    0.1653947554
C       -1.3024365207    0.6251691011    0.1983638345
C       -0.4233303211    1.6335239998   -0.1313211189
N        0.9600175812    1.5714691647   -0.2302931664
H        2.6981167220    0.5508610819   -0.4152202485
H        1.8232371320   -1.5972665626   -0.6869218956
H       -0.2861747762   -2.4254187587   -0.0422716493
H       -2.3539043555    0.7972980398   -0.0099475700
H       -0.9394348920    2.4821539374   -0.5804297853
C       -1.0511139940   -0.6413566231    0.8349212172
H       -1.7997523087   -1.1808397879    1.4291564323
13   
From optimize.out: Frame 37 / 49, Energy=    -286.9242741951
C        1.6332873270    0.4634569368   -0.2586520942
C        1.1322612593   -0.8924540985   -0.2584536131
C       -0.0419224407   -1.3895528747    0.1817332489
C       -1.3143154908    0.6073308409    0.1841808466
C       -0.4201493194    1.6142226207   -0.1232454241
N        0.9636452337    1.5685470453   -0.2070770709
H        2.7073442483    0.5691117676   -0.4200867830
H        1.8098201235   -1.6089780313   -0.7183183178
H       -0.3022167101   -2.4065259550   -0.0890848045
H       -2.3575992764    0.7788526346   -0.0679739188
H       -0.9538362457    2.4521812140   -0.5795486454
C       -1.0526740470   -0.6097574241    0.8838138985
H       -1.8036446617   -1.1464346763    1.4727126777
13   
From optimize.out: Frame 36 / 49, Energy=    -286.9242551311
C        1.6510915750    0.4585280650   -0.2434434954
C        1.1637796400   -0.8850111247   -0.2665303444
C       -0.0298596663   -1.3895064196    0.1877162812
C       -1.3296377061    0.5730208748    0.1578088040
C       -0.4108556431    1.5729216843   -0.1324420676
N        0.9660349271    1.5671851540   -0.1913934032
H        2.7190522390    0.5973378469   -0.4151589109
H        1.8095938487   -1.6154616827   -0.7478785877
H       -0.3042657380   -2.3915310856   -0.1357896623
H       -2.3665723547    0.7653135235   -0.1052353853
H       -0.9540726007    2.4165038232   -0.5702622214
C       -1.0746658800   -0.5798962057    0.9377314924
H       -1.8396226410   -1.0894044534    1.5248775008
13   
From optimize.out: Frame 35 / 49, Energy=    -286.9242288653
C        1.6582273955    0.4576424640   -0.2175190260
C        1.1696107099   -0.8668288235   -0.2828025875
C       -0.0512050896   -1.3602930692    0.1766125057
C       -1.3216646947    0.5252615229    0.1392850816
C       -0.3954794826    1.5339438846   -0.1551244896
N        0.9646821133    1.5725954115   -0.1824579140
H        2.7241485210    0.6169603219   -0.3776526902
H        1.7880796877   -1.6120099423   -0.7767262017
H       -0.3556741781   -2.3425786763   -0.1868876086
H       -2.3568909343    0.7169284078   -0.1315385854
H       -0.9451378051    2.3772848225   -0.5849404221
C       -1.0526814449   -0.5606632650    0.9994067356
H       -1.8260147980   -1.0582430588    1.5803452023
13   
From optimize.out: Frame 34 / 49, Energy=    -286.9241939902
C        1.6629766728    0.4421767836   -0.1999401038
C        1.1825828619   -0.8656126389   -0.3041725506
C       -0.0715998569   -1.3244722507    0.1577450231
C       -1.3179992339    0.4795135296    0.1056906212
C       -0.4002031896    1.5096831611   -0.1822364608
N        0.9419721791    1.5659953770   -0.1726267361
H        2.7281587699    0.6257573674   -0.3313922589
H        1.7841348693   -1.6203432460   -0.8044514474
H       -0.4064337182   -2.2944036873   -0.2213449477
H       -2.3562612702    0.6735476753   -0.1611224708
H       -0.9364976620    2.3776960253   -0.5770940767
C       -1.0200519991   -0.5366546151    1.0559652600
H       -1.7907784231   -1.0328834811    1.6349801486
13   
From optimize.out: Frame 33 / 49, Energy=    -286.9241249260
C        1.6670782202    0.4270890725   -0.1818967797
C        1.1873293302   -0.8673416456   -0.3180655819
C       -0.1019340264   -1.2756857453    0.1296027809
C       -1.3078296202    0.4366798790    0.0744432255
C       -0.4097273587    1.4954000464   -0.2106063252
N        0.9199235344    1.5586613539   -0.1823846575
H        2.7329903869    0.6238236585   -0.2853913316
H        1.7796667089   -1.6317148731   -0.8150067595
H       -0.4686319156   -2.2366088701   -0.2493648936
H       -2.3538372146    0.6294310210   -0.1716581523
H       -0.9346110993    2.3886266365   -0.5633929295
C       -0.9765026803   -0.5201129556    1.0963917583
H       -1.7339142656   -1.0282475782    1.6773296460
13   
From optimize.out: Frame 30 / 49, Energy=    -286.9240029743
C        1.6692930584    0.4186265069   -0.1570792791
C        1.1784934599   -0.8630059735   -0.3310037415
C       -0.1388600676   -1.2224089815    0.1025345682
C       -1.2889719175    0.3947737181    0.0498480660
C       -0.4136734441    1.4833651470   -0.2432787616
N        0.9053593907    1.5552722385   -0.2077503209
H        2.7373618648    0.6160326335   -0.2341510454
H        1.7642973488   -1.6345834884   -0.8253265921
H       -0.5358922778   -2.1758948135   -0.2701257509
H       -2.3432856050    0.5847066614   -0.1721145967
H       -0.9338415008    2.3952567691   -0.5514421078
C       -0.9305388556   -0.5092994556    1.1307070043
H       -1.6697414541   -1.0428409619    1.7091825574
13   
From optimize.out: Frame 29 / 49, Energy=    -286.9234654895
C        1.6607754093    0.4104366758   -0.1371911348
C        1.1598245598   -0.8597318721   -0.3550125351
C       -0.1729321365   -1.1749308270    0.0771715350
C       -1.2708004950    0.3622962607    0.0211380598
C       -0.4154331497    1.4763086319   -0.2829793982
N        0.8816242157    1.5439943115   -0.2429043562
H        2.7316683687    0.6037046422   -0.1665527357
H        1.7529747463   -1.6309413104   -0.8391188252
H       -0.5841530726   -2.1303666065   -0.2689668909
H       -2.3277077416    0.5767360056   -0.1740792230
H       -0.9253008681    2.4118411505   -0.5245503689
C       -0.8921740771   -0.5002004699    1.1627496938
H       -1.5983657593   -1.0891465923    1.7302961795
13   
From optimize.out: Frame 28 / 49, Energy=    -286.9233617322
C        1.6451087317    0.3977927244   -0.1385771385
C        1.1479926925   -0.8646307747   -0.3627421592
C       -0.1984042088   -1.1278983721    0.0432081598
C       -1.2641704629    0.3505926475   -0.0038518588
C       -0.4206011665    1.4777907029   -0.3121045197
N        0.8532805346    1.5155810994   -0.2891173214
H        2.7161812776    0.5907677638   -0.1195811768
H        1.7673001976   -1.6327363585   -0.8143926463
H       -0.6192750112   -2.0841449542   -0.2625736474
H       -2.3189719865    0.6156870756   -0.1492432819
H       -0.9136325607    2.4341936839   -0.4879359580
C       -0.8675193764   -0.5061379383    1.1694201279
H       -1.5272886610   -1.1668572996    1.7274914204
13   
From optimize.out: Frame 27 / 49, Energy=    -286.9231589514
C        1.6341448199    0.3873361597   -0.1176053409
C        1.1309757850   -0.8650233026   -0.3572231245
C       -0.2152486992   -1.0968744800    0.0222391564
C       -1.2513917558    0.3337717902   -0.0066419683
C       -0.4295614294    1.4782511495   -0.3534627781
N        0.8538849578    1.4985854130   -0.3290454192
H        2.7045456864    0.5736977912   -0.0761605497
H        1.7591522424   -1.6200738694   -0.8149669801
H       -0.6770902110   -2.0329800956   -0.2733949040
H       -2.3122283563    0.5801159458   -0.1186814374
H       -0.9056597755    2.4519804399   -0.4806714959
C       -0.8363754507   -0.4794433380    1.1918435276
H       -1.4551478135   -1.2093436038    1.7137713144
13   
From optimize.out: Frame 26 / 49, Energy=    -286.9229292683
C        1.6182375503    0.3837808569   -0.1096065834
C        1.1056186703   -0.8713595719   -0.3502200097
C       -0.2496419906   -1.0787034983   -0.0213919213
C       -1.2360292311    0.3287802593    0.0029315481
C       -0.4414878294    1.4881571292   -0.3766657995
N        0.8536476002    1.5026218616   -0.3488921810
H        2.6888302702    0.5595000407   -0.0377377484
H        1.7440131141   -1.6348440652   -0.7795657013
H       -0.7318478573   -2.0083287070   -0.3064076435
H       -2.3081452072    0.5289583684   -0.0891091625
H       -0.9155112556    2.4641717848   -0.5015603993
C       -0.7750511750   -0.4452452440    1.2045277447
H       -1.3526326589   -1.2174892144    1.7136978574
13   
From optimize.out: Frame 24 / 49, Energy=    -286.9223264797
C        1.6087537578    0.3796283242   -0.1145194995
C        1.1015943564   -0.8864934083   -0.3542119630
C       -0.2510522724   -1.0684609800   -0.0477504135
C       -1.2367571764    0.3272399941    0.0070694506
C       -0.4504145756    1.5039361368   -0.3875456334
N        0.8488580983    1.5037416187   -0.3620945557
H        2.6779519596    0.5535443030   -0.0209643283
H        1.7505249562   -1.6535562761   -0.7635394435
H       -0.7735836228   -1.9821528087   -0.2956405736
H       -2.3171240046    0.4906601306   -0.0758672563
H       -0.9061413120    2.4892285586   -0.4983561037
C       -0.7539838944   -0.4183218897    1.2195783153
H       -1.2986262701   -1.2389937032    1.6938420045
13   
From optimize.out: Frame 22 / 49, Energy=    -286.9215117358
C        1.6013954962    0.3778117206   -0.1418725056
C        1.1209065044   -0.9143520084   -0.3691273120
C       -0.2122193390   -1.0667780889   -0.0516734841
C       -1.2600843263    0.3320506955    0.0066929832
C       -0.4518762633    1.5302999818   -0.3861371628
N        0.8356640505    1.5039579632   -0.3729906163
H        2.6662475003    0.5615139242   -0.0357089333
H        1.7825367438   -1.6814257387   -0.7597523405
H       -0.8090930672   -1.9459928462   -0.2178356670
H       -2.3442514240    0.4704259675   -0.0718220535
H       -0.8602612891    2.5362909572   -0.4595924305
C       -0.7764890288   -0.4112882927    1.2267088715
H       -1.2924755577   -1.2925142351    1.6331106510
13   
From optimize.out: Frame 21 / 49, Energy=    -286.9209091593
C        1.5771688468    0.3844578211   -0.1539123542
C        1.0977810383   -0.9213620227   -0.3571769890
C       -0.2343902437   -1.0536207657   -0.0720744880
C       -1.2579710802    0.3348333359    0.0179671009
C       -0.4478960373    1.5433869576   -0.4068791296
N        0.8285998535    1.5135747184   -0.3994102630
H        2.6396311025    0.5636978235   -0.0272290773
H        1.7691257325   -1.6997056226   -0.7085402424
H       -0.8639800427   -1.9123062937   -0.2043230426
H       -2.3460851812    0.4498271456   -0.0257641345
H       -0.8329537361    2.5571413612   -0.4570814640
C       -0.7250356490   -0.4231975735    1.2033001363
H       -1.2039946035   -1.3367268850    1.5911239473
13   
From optimize.out: Frame 20 / 49, Energy=    -286.9188256180
C        1.5507589527    0.3918037859   -0.1616414255
C        1.0690789837   -0.9253455221   -0.3422728558
C       -0.2647523787   -1.0398449867   -0.0975610745
C       -1.2513534496    0.3360691983    0.0306512251
C       -0.4435686034    1.5531164591   -0.4308876965
N        0.8225874008    1.5239823448   -0.4264935861
H        2.6107346793    0.5645750049   -0.0120634260
H        1.7498914002   -1.7157881634   -0.6522728812
H       -0.9195813372   -1.8807040432   -0.2062546665
H       -2.3432508164    0.4266073906    0.0237010914
H       -0.8105539017    2.5719869139   -0.4628144236
C       -0.6646581443   -0.4332236255    1.1793503309
H       -1.1053327853   -1.3732347566    1.5585593884
13   
From optimize.out: Frame 19 / 49, Energy=    -286.9138660921
C        1.5323651705    0.3922390390   -0.1425330660
C        1.0524742165   -0.9272148878   -0.3407870910
C       -0.2817052846   -1.0423227139   -0.1490246265
C       -1.2360791452    0.3220421660    0.0375519146
C       -0.4439608312    1.5421884878   -0.4506703049
N        0.8197586728    1.5257703542   -0.4286545135
H        2.5855848537    0.5606802323    0.0390839856
H        1.7425313796   -1.7176786810   -0.6283461823
H       -0.9365123623   -1.8776185011   -0.2830066655
H       -2.3278221063    0.3800569350    0.0315118260
H       -0.8186632827    2.5551197107   -0.5040836605
C       -0.6383840888   -0.3886527482    1.2044960116
H       -1.0495871919   -1.3246093929    1.6144623721
13   
From optimize.out: Frame 18 / 49, Energy=    -286.9024051667
C        1.5146976678    0.3920622782   -0.1210670123
C        1.0369552862   -0.9288954366   -0.3404902457
C       -0.2974559249   -1.0462366503   -0.2027401093
C       -1.2200526814    0.3066771654    0.0439344402
C       -0.4447704022    1.5294422783   -0.4700608009
N        0.8172143013    1.5267938692   -0.4286077676
H        2.5607896275    0.5563666940    0.0933690672
H        1.7362290016   -1.7183114381   -0.6073036113
H       -0.9500054753   -1.8770595845   -0.3663102187
H       -2.3112928842    0.3314842536    0.0356288838
H       -0.8294653858    2.5354612837   -0.5484601810
C       -0.6151523205   -0.3392906926    1.2339637561
H       -0.9976908100   -1.2684940202    1.6781437995
13   
From optimize.out: Frame 17 / 49, Energy=    -286.8967347451
C        1.4970342813    0.3918855585   -0.0996059598
C        1.0214399714   -0.9305755939   -0.3401934695
C       -0.3132028956   -1.0501496749   -0.2564430774
C       -1.2040299514    0.2913157445    0.0503154787
C       -0.4455797846    1.5166990383   -0.4894467794
N        0.8146705226    1.5278171457   -0.4285610326
H        2.5360001781    0.5520541606    0.1476415015
H        1.7299280918   -1.7189440477   -0.5862659428
H       -0.9634954446   -1.8765007980   -0.4495943640
H       -2.2947675130    0.2829228886    0.0397449823
H       -0.8402649723    2.5158074366   -0.5928263627
C       -0.5919259648   -0.2899401372    1.2634246353
H       -0.9458065189   -1.2123917211    1.7418103904
13   
From optimize.out: Frame 16 / 49, Energy=    -286.8868440690
C        1.4793760054    0.3917088900   -0.0781511168
C        1.0059291457   -0.9322552650   -0.3398967793
C       -0.3289453102   -1.0540615673   -0.3101305072
C       -1.1880118574    0.2759587683    0.0566946711
C       -0.4463889328    1.5039594854   -0.5088271487
N        0.8121274799    1.5288401262   -0.4285143111
H        2.5112179013    0.5477428749    0.2018982327
H        1.7236290052   -1.7195764744   -0.5652343613
H       -0.9769815107   -1.8759421732   -0.5328544120
H       -2.2782469233    0.2343755743    0.0438598899
H       -0.8510614341    2.4961592762   -0.6371797076
C       -0.5687063293   -0.2406038608    1.2928769902
H       -0.8939372398   -1.1563056546    1.8054585601
13   
From optimize.out: Frame 15 / 49, Energy=    -286.8815122361
C        1.4617237704    0.3915322819   -0.0567036134
C        0.9904236263   -0.9339343615   -0.3396001905
C       -0.3446823393   -1.0579721215   -0.3637995708
C       -1.1719992432    0.2606070456    0.0630716811
C       -0.4471978042    1.4912242907   -0.5282008882
N        0.8095853072    1.5298627567   -0.4284676056
H        2.4864441023    0.5434330642    0.2561364029
H        1.7173320734   -1.7202086847   -0.5442099745
H       -0.9904629633   -1.8753837395   -0.6160859772
H       -2.2617319852    0.1858448678    0.0479733898
H       -0.8618542024    2.4765178373   -0.6815178794
C       -0.5454946372   -0.1912844622    1.3223192697
H       -0.8420857050   -1.1002387748    1.8690849561
13   
From optimize.out: Frame 14 / 49, Energy=    -286.8709725316
C        1.4453486965    0.3910664695   -0.0356258480
C        0.9771136308   -0.9355622754   -0.3398693868
C       -0.3559670436   -1.0611323171   -0.4190689391
C       -1.1569152428    0.2450244322    0.0714972188
C       -0.4479248752    1.4762442363   -0.5471632725
N        0.8076439304    1.5300221834   -0.4280248378
H        2.4615483753    0.5393716419    0.3103653201
H        1.7121881883   -1.7212704092   -0.5226962081
H       -0.9982928659   -1.8740467128   -0.7012900555
H       -2.2449569662    0.1364403360    0.0539236337
H       -0.8725488541    2.4532125543   -0.7275088686
C       -0.5283094295   -0.1401327458    1.3523278140
H       -0.7989275439   -1.0392373933    1.9331334298
13   
From optimize.out: Frame 13 / 49, Energy=    -286.8612059029
C        1.4348199230    0.3895182106   -0.0171855018
C        0.9729954988   -0.9368996972   -0.3422933661
C       -0.3495199303   -1.0612313547   -0.4772803897
C       -1.1462658419    0.2294573949    0.0872935945
C       -0.4482961076    1.4535193170   -0.5634509443
N        0.8081194944    1.5268611373   -0.4260883829
H        2.4376248604    0.5364979444    0.3614222299
H        1.7117649070   -1.7239183428   -0.5005495010
H       -0.9839905401   -1.8698003332   -0.7891326338
H       -2.2281545163    0.0865412861    0.0665754796
H       -0.8822485688    2.4172006965   -0.7771800254
C       -0.5352357955   -0.0849107867    1.3827729063
H       -0.7916133831   -0.9628354722    1.9950965347
13   
From optimize.out: Frame 12 / 49, Energy=    -286.8527226640
C        1.4247291333    0.3878923211    0.0010437062
C        0.9695536780   -0.9382145502   -0.3448725331
C       -0.3417824063   -1.0611064206   -0.5356493822
C       -1.1359513013    0.2139069063    0.1036133898
C       -0.4486409486    1.4302504827   -0.5795268814
N        0.8087713474    1.5234603821   -0.4240446061
H        2.4137961287    0.5337139542    0.4121966182
H        1.7116872796   -1.7266796606   -0.4783784277
H       -0.9680837613   -1.8653453854   -0.8770812201
H       -2.2113666929    0.0366554651    0.0797049141
H       -0.8918659184    2.3802952083   -0.8270711571
C       -0.5439186726   -0.0294458197    1.4132197874
H       -0.7869278655   -0.8853828832    2.0568457919
13   
From optimize.out: Frame 11 / 49, Energy=    -286.8446404044
C        1.4146489690    0.3862681437    0.0192537192
C        0.9661154813   -0.9395280188   -0.3474489842
C       -0.3340530297   -1.0609816180   -0.5939569131
C       -1.1256476217    0.1983727922    0.1199160006
C       -0.4489854266    1.4070061501   -0.5955858909
N        0.8094225139    1.5200632077   -0.4220029814
H        2.3899924883    0.5309328955    0.4629175420
H        1.7116097341   -1.7294380708   -0.4562307001
H       -0.9521937320   -1.8608951286   -0.9649371981
H       -2.1945965468   -0.0131778269    0.0928205235
H       -0.9014731411    2.3434285809   -0.8769097542
C       -0.5525924069    0.0259607435    1.4436346084
H       -0.7822472817   -0.8080118505    2.1185300282
13   
From optimize.out: Frame 10 / 49, Energy=    -286.8351603142
C        1.4045803719    0.3846458300    0.0374428358
C        0.9626812300   -0.9408399801   -0.3500224788
C       -0.3263325228   -1.0608569587   -0.6521975350
C       -1.1153557658    0.1828565038    0.1361999038
C       -0.4493295092    1.3837884908   -0.6116264723
N        0.8100729332    1.5166699317   -0.4199636995
H        2.3662161630    0.5281550281    0.5135802624
H        1.7115322774   -1.7321933156   -0.4341083874
H       -0.9363219369   -1.8564499786   -1.0526923597
H       -2.1778456448   -0.0629539343    0.1059210826
H       -0.9110693394    2.3066042588   -0.9266911605
C       -0.5612561878    0.0813037266    1.4740145279
H       -0.7775720690   -0.7307296026    2.1801434807
13   
From optimize.out: Frame 9 / 49, Energy=    -286.8244051559
C        1.3942367747    0.3830427531    0.0555984395
C        0.9565787238   -0.9420801444   -0.3521263348
C       -0.3214049705   -1.0591823130   -0.7078713991
C       -1.1027513639    0.1657175926    0.1507985392
C       -0.4510370149    1.3616314133   -0.6275031231
N        0.8104311669    1.5144614693   -0.4168118423
H        2.3426364722    0.5244998493    0.5635639563
H        1.7075447028   -1.7359974859   -0.4124719699
H       -0.9257099319   -1.8495453671   -1.1368284670
H       -2.1571732888   -0.1186908134    0.1192056536
H       -0.9232129225    2.2708253782   -0.9748605145
C       -0.5658330179    0.1378257373    1.5010612780
H       -0.7643053301   -0.6525080693    2.2382457841
13   
From optimize.out: Frame 8 / 49, Energy=    -286.8153023409
C        1.3896527766    0.3830704104    0.0574849687
C        0.9239717986   -0.9413796200   -0.3467874158
C       -0.3541107835   -1.0404765215   -0.6842553417
C       -1.0735700512    0.1441975972    0.1325278953
C       -0.4675208169    1.3714962500   -0.6275464717
N        0.8069898355    1.5283208943   -0.4031393371
H        2.3420132779    0.5135711961    0.5617562785
H        1.6603858426   -1.7489926520   -0.4155450439
H       -0.9871348906   -1.8193288154   -1.1042404745
H       -2.1077779762   -0.1968357030    0.1230743253
H       -0.9551383703    2.2787941034   -0.9616912088
C       -0.5176426890    0.1590123119    1.4646950309
H       -0.6601179533   -0.6314494515    2.2036667948
13   
From optimize.out: Frame 7 / 49, Energy=    -286.7978380619
C        1.3850553150    0.3830981489    0.0593770388
C        0.8912691047   -0.9406770380   -0.3414328160
C       -0.3869126558   -1.0217157898   -0.6605699223
C       -1.0443030311    0.1226143961    0.1142035892
C       -0.4840530330    1.3813900604   -0.6275899477
N        0.8035383966    1.5422210254   -0.3894266747
H        2.3413882532    0.5026104446    0.5599432914
H        1.6130884736   -1.7620259857   -0.4186271438
H       -1.0487402585   -1.7890235157   -1.0715567689
H       -2.0582375863   -0.2752101093    0.1269543595
H       -0.9871575852    2.2867862333   -0.9484832241
C       -0.4693108220    0.1802611130    1.4282219737
H       -0.5556245713   -0.6103289832    2.1689862447
13   