13   
From optimize.out: Frame 48 / 49, Energy=    -286.9243472922
C        1.5716783180    0.3989309435   -0.4775925785
C        1.2450735921   -0.9105411304   -0.1791091331
C       -0.0290881275   -1.4371880166    0.2393437652
C       -1.3727347365    0.6809606595    0.2509144424
C       -0.4441272494    1.6245769181   -0.1461701627
N        0.8658173121    1.5538657580   -0.4802257371
H        2.6109892053    0.5554258812   -0.7749337823
H        2.0544341133   -1.6304843322   -0.2739414599
H       -0.0620061770   -2.5095789697    0.4210025955
H       -2.3717034157    1.0600360688    0.4526484073
H       -0.8270440457    2.6455119117   -0.2102187527
C       -1.1823404522   -0.7359821613    0.4290109163
H       -2.0589483362   -1.2955335303    0.7492714800
13   
From optimize.out: Frame 47 / 49, Energy=    -286.9243471871
C        1.5773340104    0.3993614129   -0.4568165176
C        1.2438276391   -0.9136745466   -0.1945918730
C       -0.0316985370   -1.4425893714    0.2242878361
C       -1.3689247828    0.6861199987    0.2716330961
C       -0.4485014851    1.6230816902   -0.1656241536
N        0.8618267086    1.5537876972   -0.4813107663
H        2.6238496067    0.5626079786   -0.7228172280
H        2.0522854158   -1.6338431220   -0.2960531592
H       -0.0680177550   -2.5170009681    0.3917375119
H       -2.3649604008    1.0677616002    0.4821272363
H       -0.8439578816    2.6365435493   -0.2673503959
C       -1.1790224078   -0.7323522042    0.4432486295
H       -2.0540401305   -1.2898037149    0.7715297836
13   
From optimize.out: Frame 46 / 49, Energy=    -286.9243468301
C        1.5813936089    0.4049356927   -0.4340323628
C        1.2400841487   -0.9186071854   -0.2125630454
C       -0.0290422079   -1.4416740782    0.2258030310
C       -1.3671122436    0.6873540361    0.2558602867
C       -0.4562339193    1.6205733664   -0.1758709686
N        0.8725960659    1.5635692659   -0.4482474998
H        2.6266340404    0.5583804312   -0.7138428274
H        2.0511877042   -1.6336601247   -0.3252335624
H       -0.0792285482   -2.5153678216    0.3927752869
H       -2.3643601352    1.0536160040    0.4812620219
H       -0.8513109866    2.6325825920   -0.2896009042
C       -1.1732625389   -0.7363214147    0.4466120199
H       -2.0513449886   -1.2753807636    0.7970785241
13   
From optimize.out: Frame 45 / 49, Energy=    -286.9243457265
C        1.5799286962    0.4124309669   -0.4214251702
C        1.2206268965   -0.9275140366   -0.2606178845
C       -0.0275674536   -1.4416128765    0.2101205966
C       -1.3778298558    0.6868349583    0.2438768764
C       -0.4633299978    1.6151871847   -0.1786680244
N        0.8883680984    1.5529019523   -0.4042709978
H        2.6379103784    0.5729133594   -0.6463042563
H        2.0213818370   -1.6491284682   -0.4004997569
H       -0.0524559027   -2.5148509152    0.3966593902
H       -2.3869065845    1.0574656865    0.4131509006
H       -0.8448393615    2.6281924027   -0.3146918946
C       -1.1670062977   -0.7240162682    0.4915720819
H       -2.0282804529   -1.2688039462    0.8710981392
13   
From optimize.out: Frame 44 / 49, Energy=    -286.9243413018
C        1.5837932342    0.4195511317   -0.4077336663
C        1.2054569539   -0.9326849841   -0.2999373739
C       -0.0294766640   -1.4336893830    0.2001565917
C       -1.3813787281    0.6830109201    0.2309446593
C       -0.4691366521    1.6096521938   -0.1838580422
N        0.8971748911    1.5500061477   -0.3608511914
H        2.6489100710    0.5772695570   -0.6015475105
H        1.9989547749   -1.6584539132   -0.4602148857
H       -0.0460170491   -2.5025914446    0.4128423784
H       -2.3974866948    1.0481694902    0.3712922128
H       -0.8425521481    2.6225131752   -0.3346515094
C       -1.1605354594   -0.7209643971    0.5096959808
H       -2.0077065294   -1.2617884935    0.9238623564
13   
From optimize.out: Frame 43 / 49, Energy=    -286.9243306415
C        1.5834363153    0.4192159047   -0.4136549463
C        1.1916866776   -0.9342069859   -0.3491011426
C       -0.0287073855   -1.4223306337    0.1980373702
C       -1.3899684970    0.6836805748    0.2185459527
C       -0.4737485987    1.6070575481   -0.1978190796
N        0.9032534479    1.5443800707   -0.3343645454
H        2.6614271267    0.5721021315   -0.5230303353
H        1.9691101737   -1.6705246241   -0.5280864080
H       -0.0326915676   -2.4827493092    0.4532730079
H       -2.4086448895    1.0427758248    0.3484389053
H       -0.8441949943    2.6225083526   -0.3415569271
C       -1.1550210437   -0.7163701285    0.5084723823
H       -1.9759367650   -1.2655387257    0.9608457657
13   
From optimize.out: Frame 42 / 49, Energy=    -286.9243217850
C        1.5871802552    0.4321683794   -0.3797528872
C        1.1862589529   -0.9387208316   -0.3606921308
C       -0.0204128131   -1.4223556029    0.1914935906
C       -1.3885561379    0.6805572782    0.2194594289
C       -0.4671055266    1.6045808055   -0.1736604225
N        0.9113359209    1.5470344299   -0.2809395063
H        2.6638337852    0.5713702861   -0.5223011720
H        1.9647709496   -1.6614144148   -0.5859303728
H       -0.0225112876   -2.4824480978    0.4406716773
H       -2.4117781532    1.0364724952    0.3053567816
H       -0.8411771967    2.6040686655   -0.3995907070
C       -1.1651097457   -0.7242173581    0.5411345696
H       -1.9967290030   -1.2470960346    1.0047511507
13   
From optimize.out: Frame 42 / 49, Energy=    -286.9243217850
C        1.5874584215    0.4435445534   -0.3778452428
C        1.1630380620   -0.9365487143   -0.3579856510
C       -0.0409198691   -1.4241507353    0.1702463052
C       -1.3913877852    0.6844601919    0.1996129804
C       -0.4630869357    1.6125852476   -0.1632002364
N        0.9160015915    1.5513671457   -0.2756071356
H        2.6713628613    0.5537898747   -0.4768857646
H        1.9555496629   -1.6430166427   -0.5957036516
H       -0.0621295376   -2.4970914084    0.3703656228
H       -2.4307159859    1.0053694675    0.2579317139
H       -0.8378949986    2.6016688073   -0.4251466243
C       -1.1460526646   -0.7085177160    0.5692355579
H       -1.9212228226   -1.2434600714    1.1049821260
13   
From optimize.out: Frame 41 / 49, Energy=    -286.9243138365
C        1.6035769422    0.4504497523   -0.3621280352
C        1.1693068183   -0.9373488602   -0.3320790480
C       -0.0393681276   -1.4211892212    0.1812185432
C       -1.3896668373    0.6801624168    0.1911940757
C       -0.4666374384    1.6079560386   -0.1538565854
N        0.9114030544    1.5564209221   -0.2635685191
H        2.6875514997    0.5565812782   -0.4696417990
H        1.9446856994   -1.6429715381   -0.6285310324
H       -0.1081482347   -2.5083284726    0.2851612046
H       -2.4376301684    0.9862335280    0.1795995630
H       -0.8548138928    2.5845766846   -0.4373594118
C       -1.1319155483   -0.6910080920    0.6255189043
H       -1.8883437666   -1.2215344367    1.1844721402
13   
From optimize.out: Frame 40 / 49, Energy=    -286.9243072012
C        1.6155552310    0.4569663242   -0.3464574489
C        1.1782622993   -0.9385402314   -0.3002673200
C       -0.0136586832   -1.4414066094    0.2093588702
C       -1.3862049502    0.6864897268    0.1974076932
C       -0.4639150404    1.6140379612   -0.1257829275
N        0.9155313142    1.5615540531   -0.2469926171
H        2.6968019976    0.5535677533   -0.4856659903
H        1.9353879242   -1.6336960458   -0.6666577243
H       -0.1015678933   -2.5360413077    0.2212447947
H       -2.4356006281    0.9880004393    0.1203821712
H       -0.8797229327    2.5580201358   -0.4641841138
C       -1.1490839097   -0.6766580519    0.6635239831
H       -1.9117847288   -1.1922941477    1.2240906294
13   
From optimize.out: Frame 39 / 49, Energy=    -286.9242997853
C        1.6190634544    0.4644997972   -0.3325073690
C        1.1751744595   -0.9349612115   -0.2734300343
C        0.0107111967   -1.4641925569    0.2252364301
C       -1.3740233467    0.6904063002    0.2075177290
C       -0.4534305489    1.6261307915   -0.1019762946
N        0.9287435275    1.5658440606   -0.2370637630
H        2.6981012793    0.5465772501   -0.4974683245
H        1.9231542256   -1.6155415562   -0.6883113397
H       -0.0823474716   -2.5555654556    0.1681402984
H       -2.4224177594    0.9825584522    0.0910479209
H       -0.9019971717    2.5325012027   -0.5000994750
C       -1.1716212479   -0.6692709563    0.6893888347
H       -1.9491105969   -1.1689861180    1.2495253873
13   
From optimize.out: Frame 38 / 49, Energy=    -286.9242907018
C        1.6150747306    0.4740585992   -0.3188518820
C        1.1457008489   -0.9199616445   -0.2643641736
C       -0.0117811636   -1.4442421946    0.1852005716
C       -1.3433142573    0.6645179683    0.1999906089
C       -0.4392905286    1.6272052914   -0.1271501528
N        0.9432785600    1.5681474699   -0.2505542468
H        2.6969528600    0.5474876039   -0.4616855297
H        1.9002325344   -1.6000427578   -0.6658723092
H       -0.1426155352   -2.5207324612    0.0931779277
H       -2.3976565351    0.9201636776    0.0856503405
H       -0.9070091873    2.5249359720   -0.5241666446
C       -1.1440495479   -0.6715747839    0.7313372924
H       -1.9155227789   -1.1699627404    1.3172881976
13   
From optimize.out: Frame 37 / 49, Energy=    -286.9242741951
C        1.6115601729    0.4825439153   -0.3046164628
C        1.1175388654   -0.9054266875   -0.2559061987
C       -0.0338949548   -1.4239249373    0.1483926797
C       -1.3138638568    0.6396034325    0.1932598600
C       -0.4259111204    1.6285663871   -0.1498892601
N        0.9570456926    1.5703791876   -0.2617691927
H        2.6959337452    0.5483665277   -0.4274715300
H        1.8761572765   -1.5859979798   -0.6466545883
H       -0.2032183803   -2.4851695667    0.0199878156
H       -2.3734279728    0.8586560599    0.0765852329
H       -0.9129546351    2.5162975119   -0.5483548229
C       -1.1149828904   -0.6723622306    0.7734963997
H       -1.8799819420   -1.1715316202    1.3829400675
13   
From optimize.out: Frame 36 / 49, Energy=    -286.9242551311
C        1.6152603989    0.4746953634   -0.2815569523
C        1.1093342417   -0.8979611103   -0.2566976498
C       -0.0502485429   -1.3980251056    0.1607006475
C       -1.3035653241    0.6295059121    0.1986464784
C       -0.4241049801    1.6342882441   -0.1355818598
N        0.9591286688    1.5715200655   -0.2383601753
H        2.6968820935    0.5487672200   -0.4171278888
H        1.8345296617   -1.5940771808   -0.6764514385
H       -0.2689151682   -2.4385007117   -0.0262360922
H       -2.3573042499    0.8106471824    0.0117160310
H       -0.9331029346    2.4913290849   -0.5743842353
C       -1.0631693647   -0.6500768392    0.8188606940
H       -1.8147245000   -1.1821121247    1.4164724410
13   
From optimize.out: Frame 35 / 49, Energy=    -286.9242288653
C        1.6224344415    0.4669288291   -0.2615294925
C        1.1107841302   -0.8920038238   -0.2576526598
C       -0.0576716474   -1.3802920676    0.1738206365
C       -1.3004103289    0.6173845647    0.1978564913
C       -0.4219398152    1.6321521883   -0.1236731276
N        0.9616131709    1.5713777982   -0.2158129587
H        2.7003328690    0.5546195450   -0.4117960515
H        1.8029671436   -1.6029914739   -0.7057162712
H       -0.3171556160   -2.4019367717   -0.0710553288
H       -2.3478015758    0.7733364501   -0.0488335373
H       -0.9508006980    2.4656846309   -0.5912814926
C       -1.0294747128   -0.6257039143    0.8637497105
H       -1.7728773611   -1.1785559550    1.4519240816
13   
From optimize.out: Frame 34 / 49, Energy=    -286.9241939902
C        1.6455365192    0.4595383591   -0.2554044966
C        1.1565015855   -0.8929623044   -0.2593576152
C       -0.0241469780   -1.4000051556    0.1906638794
C       -1.3300096582    0.5959836286    0.1687457255
C       -0.4181284625    1.5939862769   -0.1227626932
N        0.9659387368    1.5653520944   -0.1972172442
H        2.7152576953    0.5854685256   -0.4294441807
H        1.8175547919   -1.6157348053   -0.7325417143
H       -0.2853557995   -2.4117055719   -0.1094339103
H       -2.3686575263    0.7850785185   -0.0895768569
H       -0.9572623399    2.4369404790   -0.5663062775
C       -1.0788581532   -0.5917592959    0.9064594980
H       -1.8383704111   -1.1101807490    1.4961758860
13   
From optimize.out: Frame 33 / 49, Energy=    -286.9241249260
C        1.6552060660    0.4577797654   -0.2345842809
C        1.1691703130   -0.8791218848   -0.2718430055
C       -0.0340909116   -1.3817302684    0.1855330688
C       -1.3293622104    0.5560129372    0.1497080997
C       -0.4054688476    1.5573196673   -0.1396113383
N        0.9661061728    1.5685428554   -0.1870798298
H        2.7218627627    0.6061291565   -0.4045781688
H        1.8036973771   -1.6152593877   -0.7592382263
H       -0.3182718566   -2.3765883480   -0.1553107088
H       -2.3650279202    0.7506740858   -0.1168332657
H       -0.9517100407    2.4013669033   -0.5731922901
C       -1.0715607681   -0.5711095113    0.9608938767
H       -1.8405501364   -1.0740159707    1.5461360692
13   
From optimize.out: Frame 30 / 49, Energy=    -286.9240029743
C        1.6598163818    0.4575702541   -0.2085440186
C        1.1698423247   -0.8603636218   -0.2885664821
C       -0.0602058268   -1.3490187564    0.1719209778
C       -1.3176163953    0.5090886516    0.1338033782
C       -0.3902258474    1.5216500265   -0.1632832103
N        0.9639331679    1.5747267434   -0.1800271429
H        2.7253506535    0.6226566793   -0.3634919658
H        1.7798659880   -1.6103009847   -0.7859235275
H       -0.3753449135   -2.3246922130   -0.2034946216
H       -2.3526115075    0.6991807847   -0.1392724490
H       -0.9416813163    2.3646195059   -0.5911190332
C       -1.0427523776   -0.5551693454    1.0196615279
H       -1.8183703315   -1.0499477241    1.5983365670
13   
From optimize.out: Frame 29 / 49, Energy=    -286.9234654895
C        1.6646260065    0.4341430393   -0.1954497810
C        1.1892320589   -0.8683520642   -0.3123172483
C       -0.0775463213   -1.3116616015    0.1503466917
C       -1.3181990346    0.4640784809    0.0910187704
C       -0.4054102946    1.5034377379   -0.1921280294
N        0.9305108930    1.5614385381   -0.1687645158
H        2.7296243062    0.6273755948   -0.3146396470
H        1.7863627686   -1.6255842317   -0.8141210388
H       -0.4226587473   -2.2785963182   -0.2306609077
H       -2.3581660558    0.6601699352   -0.1725258440
H       -0.9337923491    2.3845205690   -0.5697745502
C       -1.0082048308   -0.5269919072    1.0749119232
H       -1.7763783997   -1.0239777724    1.6541041770
13   
From optimize.out: Frame 29 / 49, Energy=    -286.9234654895
C        1.6682494969    0.4237198121   -0.1754233170
C        1.1864205099   -0.8668590287   -0.3208112190
C       -0.1135825827   -1.2585022184    0.1196946485
C       -1.3028767677    0.4235931964    0.0665260736
C       -0.4117893634    1.4915609192   -0.2194323081
N        0.9148665829    1.5573348582   -0.1888901891
H        2.7345981634    0.6221271098   -0.2714211509
H        1.7764683994   -1.6346431158   -0.8154298155
H       -0.4905905638   -2.2165539634   -0.2582986752
H       -2.3517695846    0.6147488699   -0.1712437076
H       -0.9350021675    2.3905878607   -0.5603448088
C       -0.9613604485   -0.5168272895    1.1066513979
H       -1.7136316743   -1.0302870105    1.6884230712
13   
From optimize.out: Frame 28 / 49, Energy=    -286.9233617322
C        1.6696908320    0.4166850951   -0.1500870944
C        1.1754719116   -0.8615373070   -0.3348888185
C       -0.1484950698   -1.2086513463    0.0959936719
C       -1.2836718150    0.3837886167    0.0434909210
C       -0.4143915979    1.4802411699   -0.2523682984
N        0.9017355405    1.5544860311   -0.2149392248
H        2.7384153030    0.6137096060   -0.2199448240
H        1.7596581175   -1.6345607603   -0.8290989398
H       -0.5531599020   -2.1603967924   -0.2746338694
H       -2.3400517721    0.5732554927   -0.1724465529
H       -0.9333990902    2.3970364138   -0.5480486712
C       -0.9187906096   -0.5064300762    1.1398762638
H       -1.6530118481   -1.0476261432    1.7170954369
13   
From optimize.out: Frame 27 / 49, Energy=    -286.9231589514
C        1.6596115595    0.4096209857   -0.1355076520
C        1.1577819008   -0.8594961845   -0.3576395540
C       -0.1761222350   -1.1705288349    0.0747144287
C       -1.2691202288    0.3594905749    0.0182200407
C       -0.4155691174    1.4757952649   -0.2869754761
N        0.8789988144    1.5426246865   -0.2465550203
H        2.7307876008    0.6023985600   -0.1595827496
H        1.7521022762   -1.6304688150   -0.8404268553
H       -0.5881990273   -2.1264463631   -0.2682271042
H       -2.3260963095    0.5771903637   -0.1742923573
H       -0.9242436984    2.4137738115   -0.5214828200
C       -0.8886994638   -0.4993872357    1.1657356697
H       -1.5912320716   -1.0945668140    1.7320194497
13   
From optimize.out: Frame 26 / 49, Energy=    -286.9229292683
C        1.6454392450    0.3984012162   -0.1397756161
C        1.1484888190   -0.8647645386   -0.3629338903
C       -0.1981477375   -1.1295112711    0.0435068206
C       -1.2646359158    0.3515898643   -0.0034238363
C       -0.4203039427    1.4780100579   -0.3099285730
N        0.8532341805    1.5168179255   -0.2869521385
H        2.7165614873    0.5915491809   -0.1215105789
H        1.7674620645   -1.6339548293   -0.8134604973
H       -0.6167968028   -2.0869391853   -0.2626845320
H       -2.3193192141    0.6167707919   -0.1505374717
H       -0.9144136829    2.4333137455   -0.4889484491
C       -0.8680507741   -0.5070570956    1.1682430137
H       -1.5295177266   -1.1642258624    1.7284057489
13   
From optimize.out: Frame 24 / 49, Energy=    -286.9223264797
C        1.6401591985    0.3886803839   -0.1206295906
C        1.1405630549   -0.8626276229   -0.3598709318
C       -0.2022449418   -1.1037447452    0.0387356277
C       -1.2572001718    0.3356590378   -0.0102616185
C       -0.4250521775    1.4745057983   -0.3446899492
N        0.8539747003    1.4970592724   -0.3215415583
H        2.7104875270    0.5790658177   -0.0906878242
H        1.7648761944   -1.6144894071   -0.8283518473
H       -0.6563868961   -2.0423005375   -0.2609131195
H       -2.3137721539    0.5994581109   -0.1298624170
H       -0.9019350301    2.4473710151   -0.4727736117
C       -0.8595615421   -0.4923732931    1.1870477527
H       -1.4939077617   -1.2062638304    1.7137990877
13   
From optimize.out: Frame 22 / 49, Energy=    -286.9215117358
C        1.6242518660    0.3851250671   -0.1126308015
C        1.1152058400   -0.8689639173   -0.3528677893
C       -0.2366383692   -1.0855736918   -0.0048956224
C       -1.2418375864    0.3306674872   -0.0006880643
C       -0.4369786247    1.4844118171   -0.3678930624
N        0.8537373417    1.5010957369   -0.3413883985
H        2.6947720488    0.5648680111   -0.0522648711
H        1.7497370063   -1.6292596612   -0.7929504287
H       -0.7111447587   -2.0176490516   -0.2939259894
H       -2.3096889887    0.5483003314   -0.1002900252
H       -0.9117865491    2.4595624082   -0.4936625977
C       -0.7982370241   -0.4581750640    1.1997320200
H       -1.3913922020   -1.2144094732    1.7137256305
13   
From optimize.out: Frame 21 / 49, Energy=    -286.9209091593
C        1.6083445335    0.3815697502   -0.1046320124
C        1.0898486251   -0.8753002116   -0.3458646468
C       -0.2710317966   -1.0674026384   -0.0485268724
C       -1.2264750009    0.3256759365    0.0088854899
C       -0.4489050718    1.4943178360   -0.3910961755
N        0.8534999832    1.5051322015   -0.3612352387
H        2.6790565706    0.5506702046   -0.0138419180
H        1.7345978182   -1.6440299154   -0.7575490100
H       -0.7659026213   -1.9929975656   -0.3269388594
H       -2.3056058234    0.4971425519   -0.0707176334
H       -0.9216380681    2.4717538012   -0.5145515837
C       -0.7369125062   -0.4239768350    1.2124162872
H       -1.2888766423   -1.2225551160    1.7136521732
13   
From optimize.out: Frame 20 / 49, Energy=    -286.9188256180
C        1.6092817802    0.3771233007   -0.1272773321
C        1.1167498828   -0.9009359990   -0.3649825117
C       -0.2252726764   -1.0698265590   -0.0467485480
C       -1.2500242757    0.3292580989    0.0047262136
C       -0.4523622896    1.5163466381   -0.3829643660
N        0.8428686704    1.5019473486   -0.3632033330
H        2.6765266793    0.5572527544   -0.0301543800
H        1.7710757551   -1.6658481468   -0.7712689045
H       -0.7834944251   -1.9681598103   -0.2552563704
H       -2.3319859229    0.4822958571   -0.0825118189
H       -0.8861458353    2.5117762521   -0.4774590630
C       -0.7760111202   -0.4110253092    1.2288194859
H       -1.3112062227   -1.2602044254    1.6682809281
13   
From optimize.out: Frame 19 / 49, Energy=    -286.9138660921
C        1.5992699815    0.3779972638   -0.1458062032
C        1.1220267989   -0.9179678972   -0.3702444204
C       -0.2087011978   -1.0659564639   -0.0530008551
C       -1.2627957155    0.3328033574    0.0072230678
C       -0.4517452692    1.5340606932   -0.3869922964
N        0.8337222582    1.5044998649   -0.3756284892
H        2.6634770515    0.5626623965   -0.0372059990
H        1.7856257146   -1.6856242181   -0.7566483911
H       -0.8159924245   -1.9400183962   -0.2077500225
H       -2.3475572272    0.4672267896   -0.0689409433
H       -0.8532848748    2.5428981714   -0.4547770078
C       -0.7766178350   -0.4113591721    1.2261400178
H       -1.2874272606   -1.3012223893    1.6236315424
13   
From optimize.out: Frame 18 / 49, Energy=    -286.9024051667
C        1.5736257409    0.3854935344   -0.1552118780
C        1.0938941203   -0.9219061462   -0.3550821058
C       -0.2385085396   -1.0516431891   -0.0751322452
C       -1.2571976270    0.3351587684    0.0196895123
C       -0.4472789542    1.5448820819   -0.4100672536
N        0.8277786639    1.5150295381   -0.4032227978
H        2.6358082795    0.5638638162   -0.0256296440
H        1.7664805658   -1.7019630592   -0.7008278660
H       -0.8716730965   -1.9078636749   -0.2037736521
H       -2.3458491927    0.4470377512   -0.0188423175
H       -0.8296943840    2.5594247341   -0.4574508990
C       -0.7167663381   -0.4250954268    1.1996385994
H       -1.1906192384   -1.3424187281    1.5859125472
13   
From optimize.out: Frame 17 / 49, Energy=    -286.8967347451
C        1.5485933486    0.3924013997   -0.1622503372
C        1.0667288609   -0.9256712489   -0.3410597530
C       -0.2672378072   -1.0387276354   -0.0996852016
C       -1.2507999756    0.3361554207    0.0316893564
C       -0.4432172138    1.5538962976   -0.4328595011
N        0.8220957611    1.5248302223   -0.4286974511
H        2.6083600786    0.5646423582   -0.0107786344
H        1.7483203197   -1.7170974729   -0.6476744709
H       -0.9241184975   -1.8781318844   -0.2064896315
H       -2.3430047366    0.4246725289    0.0277301741
H       -0.8087411982    2.5731766179   -0.4633223773
C       -0.6597232266   -0.4339934083    1.1774289260
H       -1.0972557134   -1.3761531953    1.5559689016
13   
From optimize.out: Frame 16 / 49, Energy=    -286.8868440690
C        1.5309278251    0.3922246586   -0.1407866882
C        1.0512116689   -0.9273516094   -0.3407629410
C       -0.2829866831   -1.0426411334   -0.1533946670
C       -1.2347753071    0.3207921414    0.0380711670
C       -0.4440266941    1.5411515158   -0.4522478249
N        0.8195516746    1.5258536226   -0.4286507104
H        2.5835676301    0.5603293030    0.0435003660
H        1.7420186476   -1.7177301591   -0.6266342571
H       -0.9376100989   -1.8775730303   -0.2897838530
H       -2.3264773661    0.3761052888    0.0318467706
H       -0.8195420913    2.5535203930   -0.5076939267
C       -0.6364940608   -0.3846368822    1.2068933695
H       -1.0453651450   -1.3200441087    1.6196431952
13   
From optimize.out: Frame 16 / 49, Energy=    -286.8868440690
C        1.5132623015    0.3920479176   -0.1193230393
C        1.0356944770   -0.9290319699   -0.3404661290
C       -0.2987355589   -1.0465546315   -0.2071041324
C       -1.2187506386    0.3054288620    0.0444529776
C       -0.4448361744    1.5284067341   -0.4716361488
N        0.8170075882    1.5268770229   -0.4286039698
H        2.5587751815    0.5560162479    0.0977793664
H        1.7357169756   -1.7183628453   -0.6055940433
H       -0.9511017003   -1.8770141762   -0.3730780744
H       -2.3099499956    0.3275380486    0.0359633671
H       -0.8303429844    2.5338641681   -0.5520654760
C       -0.6132648950   -0.3352803562    1.2363578130
H       -0.9934745766   -1.2639350220    1.6833174889
13   
From optimize.out: Frame 15 / 49, Energy=    -286.8815122361
C        1.4955967780    0.3918711765   -0.0978593903
C        1.0201772851   -0.9307123305   -0.3401693170
C       -0.3144844348   -1.0504681295   -0.2608135978
C       -1.2027259701    0.2900655826    0.0508347882
C       -0.4456456547    1.5156619524   -0.4910244727
N        0.8144635017    1.5279004232   -0.4285572291
H        2.5339827330    0.5517031927    0.1520583669
H        1.7294153035   -1.7189955316   -0.5845538296
H       -0.9645933017   -1.8764553221   -0.4563722958
H       -2.2934226251    0.2789708084    0.0400799637
H       -0.8411438774    2.5142079433   -0.5964370254
C       -0.5900357292   -0.2859238301    1.2658222564
H       -0.9415840082   -1.2078259354    1.7469917825
13   
From optimize.out: Frame 14 / 49, Energy=    -286.8709725316
C        1.4779312545    0.3916944355   -0.0763957413
C        1.0046600932   -0.9323926910   -0.3398725049
C       -0.3302333107   -1.0543816275   -0.3145230632
C       -1.1867013016    0.2747023032    0.0572165988
C       -0.4464551350    1.5029171707   -0.5104127966
N        0.8119194153    1.5289238236   -0.4285104885
H        2.5091902844    0.5473901375    0.2063373673
H        1.7231136315   -1.7196282178   -0.5635136158
H       -0.9780849031   -1.8758964681   -0.5396665173
H       -2.2768952547    0.2304035683    0.0441965602
H       -0.8519447705    2.4945517184   -0.6408085747
C       -0.5668065634   -0.2365673041    1.2952866999
H       -0.8896934398   -1.1517168488    1.8106660761
13   
From optimize.out: Frame 13 / 49, Energy=    -286.8612059029
C        1.4602657310    0.3915176944   -0.0549320924
C        0.9891429013   -0.9340730515   -0.3395756929
C       -0.3459821865   -1.0582951255   -0.3682325286
C       -1.1706766331    0.2593390239    0.0635984094
C       -0.4472646153    1.4901723889   -0.5298011205
N        0.8093753288    1.5299472239   -0.4284637478
H        2.4843978358    0.5430770824    0.2606163678
H        1.7168119594   -1.7202609040   -0.5424734021
H       -0.9915765045   -1.8753376140   -0.6229607387
H       -2.2603678842    0.1818363281    0.0483131567
H       -0.8627456636    2.4748954936   -0.6851801240
C       -0.5435773976   -0.1872107780    1.3247511433
H       -0.8378028714   -1.0956077622    1.8743403697
13   
From optimize.out: Frame 12 / 49, Energy=    -286.8527226640
C        1.4442163269    0.3910322165   -0.0341602884
C        0.9762004748   -0.9356753241   -0.3398916815
C       -0.3567250057   -1.0613476916   -0.4229279905
C       -1.1558705996    0.2439377949    0.0720968267
C       -0.4479749963    1.4751869339   -0.5484812538
N        0.8075124980    1.5300278736   -0.4279915196
H        2.4598138460    0.5390903576    0.3141418212
H        1.7118371925   -1.7213470419   -0.5211948982
H       -0.9988027127   -1.8739487190   -0.7072361255
H       -2.2437871054    0.1329942732    0.0543495316
H       -0.8732930258    2.4515665771   -0.7307220931
C       -0.5271504203   -0.1365589974    1.3544211913
H       -0.7959764723   -1.0349582527    1.9375964796
13   
From optimize.out: Frame 11 / 49, Energy=    -286.8446404044
C        1.4341315069    0.3894072888   -0.0159418646
C        0.9727606901   -0.9369893994   -0.3424693226
C       -0.3489920592   -1.0612228314   -0.4812624523
C       -1.1455621610    0.2283965059    0.0884069673
C       -0.4483196334    1.4519318653   -0.5645476805
N        0.8081639653    1.5266291302   -0.4259489519
H        2.4359992113    0.5363080144    0.3648861717
H        1.7117596111   -1.7241067261   -0.4990369411
H       -0.9829053442   -1.8694964068   -0.7951326821
H       -2.2270092136    0.0831379643    0.0674711988
H       -0.8829046858    2.4146829219   -0.7805837095
C       -0.5358281607   -0.0811268432    1.3848500603
H       -0.7912937267   -0.9575514842    1.9993092065
13   
From optimize.out: Frame 10 / 49, Energy=    -286.8351603142
C        1.4240466868    0.3877823612    0.0022765591
C        0.9693209054   -0.9383034746   -0.3450469638
C       -0.3412591126   -1.0610979712   -0.5395969141
C       -1.1352537224    0.2128552169    0.1047171079
C       -0.4486642704    1.4286767967   -0.5806141072
N        0.8088154326    1.5232303868   -0.4239063842
H        2.4121845765    0.5335256712    0.4156305222
H        1.7116820297   -1.7268664103   -0.4768789839
H       -0.9670079758   -1.8650440945   -0.8830292387
H       -2.2102313218    0.0332816555    0.0805928661
H       -0.8925163459    2.3777992668   -0.8304453259
C       -0.5445059011   -0.0256946889    1.4152789292
H       -0.7866109810   -0.8801447156    2.0610219333
13   
From optimize.out: Frame 9 / 49, Energy=    -286.8244051559
C        1.4139618667    0.3861574336    0.0204949829
C        0.9658811208   -0.9396175498   -0.3476246049
C       -0.3335261661   -1.0609731110   -0.5979313759
C       -1.1249452838    0.1973139280    0.1210272485
C       -0.4490089075    1.4054217281   -0.5966805339
N        0.8094668999    1.5198316434   -0.4218638165
H        2.3883699417    0.5307433280    0.4663748728
H        1.7116044482   -1.7296260945   -0.4547210268
H       -0.9511106073   -1.8605917822   -0.9709257953
H       -2.1934534300   -0.0165746534    0.0937145333
H       -0.9021280059    2.3409156116   -0.8803069423
C       -0.5531836415    0.0297374653    1.4457077982
H       -0.7819282354   -0.8027379471    2.1227346601
13   