
Running Job 1 of 1 irc_product.in
qchem irc_product.in_21915.0 ./irc_product.d/ 1
/home/leeping/opt/qchem/5.0.2-openmp/exe/qcprog.exe_s irc_product.in_21915.0 ./irc_product.d/
Check license passed

                  Welcome to Q-Chem
     A Quantum Leap Into The Future Of Chemistry


 Q-Chem 5.0, Q-Chem, Inc., Pleasanton, CA (2017)

 Yihan Shao,  Zhengting Gan,  E. Epifanovsky,  A. T. B. Gilbert,  M. Wormit,  
 J. Kussmann,  A. W. Lange,  A. Behn,  Jia Deng,  Xintian Feng,  D. Ghosh,  
 M. Goldey,  P. R. Horn,  L. D. Jacobson,  I. Kaliman,  T. Kus,  A. Landau,  
 Jie Liu,  E. I. Proynov,  R. M. Richard,  R. P. Steele,  E. J. Sundstrom,  
 H. L. Woodcock III,  P. M. Zimmerman,  D. Zuev,  B. Albrecht,  E. Alguire,  
 S. A. Baeppler,  D. Barton,  Z. Benda,  Y. A. Bernard,  E. J. Berquist,  
 K. B. Bravaya,  H. Burton,  D. Casanova,  Chun-Min Chang,  Yunqing Chen,  
 A. Chien,  K. D. Closser,  M. P. Coons,  S. Dasgupta,  A. L. Dempwolff,  
 M. Diedenhofen,  Hainam Do,  R. G. Edgar,  Po-Tung Fang,  S. Fatehi,  
 Qingguo Feng,  J. Fosso-Tande,  Qinghui Ge,  A. Ghysels,  G. Gidofalvi,  
 J. Gomes,  J. Gonthier,  A. Gunina,  M. W. D. Hanson-Heine,  
 P. H. P. Harbach,  A. W. Hauser,  J. E. Herr,  E. G. Hohenstein,  
 Z. C. Holden,  Kerwin Hui,  T.-C. Jagau,  Hyunjun Ji,  B. Kaduk,  
 K. Khistyaev,  Jaehoon Kim,  P. Klunzinger,  K. Koh,  D. Kosenkov,  
 L. Koulias,  T. Kowalczyk,  C. M. Krauter,  A. Kunitsa,  Ka Un Lao,  
 A. Laurent,  K. V. Lawler,  Joonho Lee,  D. Lefrancois,  S. Lehtola,  
 D. S. Levine,  Yi-Pei Li,  You-Sheng Lin,  Fenglai Liu,  E. Livshits,  
 A. Luenser,  P. Manohar,  E. Mansoor,  S. F. Manzer,  Shan-Ping Mao,  
 Yuezhi Mao,  N. Mardirossian,  A. V. Marenich,  T. Markovich,  
 L. A. Martinez-Martinez,  S. A. Maurer,  N. J. Mayhall,  S. C. McKenzie,  
 J.-M. Mewes,  A. F. Morrison,  J. W. Mullinax,  K. Nanda,  
 T. S. Nguyen-Beck,  R. Olivares-Amaya,  J. A. Parkhill,  T. M. Perrine,  
 F. Plasser,  S. Prager,  A. Prociuk,  E. Ramos,  D. R. Rehn,  F. Rob,  
 M. Schneider,  N. Sergueev,  S. M. Sharada,  S. Sharma,  D. W. Small,  
 T. Stauch,  T. Stein,  Yu-Chuan Su,  A. J. W. Thom,  A. Tkatchenko,  
 T. Tsuchimochi,  L. Vogt,  O. Vydrov,  M. A. Watson,  J. Wenzel,  
 M. de Wergifosse,  T. A. Wesolowski,  A. White,  J. Witte,  A. Yamada,  
 Jun Yang,  K. Yao,  S. Yeganeh,  S. R. Yost,  Zhi-Qiang You,  A. Zech,  
 Igor Ying Zhang,  Xing Zhang,  Yan Zhao,  Ying Zhu,  B. R. Brooks,  
 G. K. L. Chan,  C. J. Cramer,  M. S. Gordon,  W. J. Hehre,  A. Klamt,  
 M. W. Schmidt,  C. D. Sherrill,  D. G. Truhlar,  A. Aspuru-Guzik,  R. Baer,  
 A. T. Bell,  N. A. Besley,  Jeng-Da Chai,  R. A. DiStasio Jr.,  A. Dreuw,  
 B. D. Dunietz,  T. R. Furlani,  Chao-Ping Hsu,  Yousung Jung,  Jing Kong,  
 D. S. Lambrecht,  WanZhen Liang,  C. Ochsenfeld,  V. A. Rassolov,  
 L. V. Slipchenko,  J. E. Subotnik,  T. Van Voorhis,  J. M. Herbert,  
 A. I. Krylov,  P. M. W. Gill,  M. Head-Gordon

 Contributors to earlier versions of Q-Chem not listed above: 
 R. D. Adamson,  B. Austin,  J. Baker,  G. J. O. Beran,  K. Brandhorst,  
 S. T. Brown,  E. F. C. Byrd,  A. K. Chakraborty,  C.-L. Cheng,  
 Siu Hung Chien,  D. M. Chipman,  D. L. Crittenden,  H. Dachsel,  
 R. J. Doerksen,  A. D. Dutoi,  L. Fusti-Molnar,  W. A. Goddard III,  
 A. Golubeva-Zadorozhnaya,  S. R. Gwaltney,  G. Hawkins,  A. Heyden,  
 S. Hirata,  G. Kedziora,  F. J. Keil,  C. Kelley,  Jihan Kim,  R. A. King,  
 R. Z. Khaliullin,  P. P. Korambath,  W. Kurlancheek,  A. M. Lee,  M. S. Lee,  
 S. V. Levchenko,  Ching Yeh Lin,  D. Liotard,  R. C. Lochan,  I. Lotan,  
 P. E. Maslen,  N. Nair,  D. P. O'Neill,  D. Neuhauser,  E. Neuscamman,  
 C. M. Oana,  R. Olson,  B. Peters,  R. Peverati,  P. A. Pieniazek,  
 Y. M. Rhee,  J. Ritchie,  M. A. Rohrdanz,  E. Rosta,  N. J. Russ,  
 H. F. Schaefer III,  N. E. Schultz,  N. Shenvi,  A. C. Simmonett,  A. Sodt,  
 D. Stuck,  K. S. Thanthiriwatte,  V. Vanovschi,  Tao Wang,  A. Warshel,  
 C. F. Williams,  Q. Wu,  X. Xu,  W. Zhang

 Please cite Q-Chem as follows:
 Y. Shao et al., Mol. Phys. 113, 184-215 (2015)
 DOI: 10.1080/00268976.2014.952696

 Q-Chem 5.0.2 for Intel X86 EM64T Linux

 Parts of Q-Chem use Armadillo 5.200.1 (Boston Tea Smuggler).
 http://arma.sourceforge.net/

 Q-Chem begins on Fri Mar  4 00:43:24 2022  

Host: 
0

     Scratch files written to ./irc_product.d//
 Dec517 15110_ 26548  26544 5633   
Processing $rem in /home/leeping/opt/qchem/5.0.2-openmp/config/preferences.
 MEM_STATIC 2000
 MEM_TOTAL  8000
 SYMMETRY   OFF
 SYM_IGNORE TRUE 

Checking the input file for inconsistencies... 	...done.

--------------------------------------------------------------
User input:
--------------------------------------------------------------
$molecule
0 2
C        1.1921562776    0.3473297423    0.3862301082
C        0.6895085021   -1.0654228600   -0.1619850445
C       -0.5726658635   -0.9313814153   -0.8727470668
C       -1.0834212480    0.1350959609    0.0922735442
C       -0.5118158617    1.4488935158   -0.4288711788
N        0.7640886679    1.5377815011   -0.3047743081
H        2.1943850376    0.3406009617    0.8003429146
H        1.4084564521   -1.8761584130   -0.2061662775
H       -0.9039500061   -1.2294807272   -1.8626967420
H       -2.1329233808    0.1247318747    0.3919017352
H       -1.0864934924    2.1947849615   -0.9738844555
C        0.0629944951   -0.3455149695    1.0561239523
H       -0.0203195799   -0.6812601331    2.0842528188
$end

$rem
method                b3lyp
basis                 6-31+g(d,p)
unrestricted          true
symmetry              off
sym_ignore            true
incdft                false
incfock               0
scf_convergence       8
thresh                14
jobtype               sp
scf_guess             core
scf_guess_mix         5
scf_algorithm         diis
max_scf_cycles        100
$end

--------------------------------------------------------------
 ----------------------------------------------------------------
             Standard Nuclear Orientation (Angstroms)
    I     Atom           X                Y                Z
 ----------------------------------------------------------------
    1      C       1.1921562776     0.3473297423     0.3862301082
    2      C       0.6895085021    -1.0654228600    -0.1619850445
    3      C      -0.5726658635    -0.9313814153    -0.8727470668
    4      C      -1.0834212480     0.1350959609     0.0922735442
    5      C      -0.5118158617     1.4488935158    -0.4288711788
    6      N       0.7640886679     1.5377815011    -0.3047743081
    7      H       2.1943850376     0.3406009617     0.8003429146
    8      H       1.4084564521    -1.8761584130    -0.2061662775
    9      H      -0.9039500061    -1.2294807272    -1.8626967420
   10      H      -2.1329233808     0.1247318747     0.3919017352
   11      H      -1.0864934924     2.1947849615    -0.9738844555
   12      C       0.0629944951    -0.3455149695     1.0561239523
   13      H      -0.0203195799    -0.6812601331     2.0842528188
 ----------------------------------------------------------------
 Nuclear Repulsion Energy =   282.0187465194 hartrees
 There are       25 alpha and       24 beta electrons
 Requested basis set is 6-31+G(d,p)
 There are 53 shells and 163 basis functions

 Total QAlloc Memory Limit   8000 MB
 Mega-Array Size      1956 MB
 MEM_STATIC part      2000 MB

                       Distance Matrix (Angstroms)
             C (  1)   C (  2)   C (  3)   C (  4)   C (  5)   N (  6)
   C (  2)  1.596579
   C (  3)  2.516888  1.454728
   C (  4)  2.304280  2.156194  1.526273
   C (  5)  2.186631  2.799321  2.422073  1.524595
   N (  6)  1.441494  2.608184  2.864659  2.353395  1.285003
   H (  7)  1.084434  2.273243  3.474729  3.359704  3.172192  2.168011
   H (  8)  2.311194  1.084495  2.293857  3.216157  3.846169  3.475618
   H (  9)  3.455093  2.336332  1.085639  2.390855  3.063219  3.587090
   H ( 10)  3.332527  3.112777  2.269166  1.091485  2.248346  3.297688
   H ( 11)  3.233457  3.800305  3.169726  2.319272  1.087956  2.074612
   C ( 12)  1.484519  1.547442  2.113728  1.572979  2.399066  2.427011
   H ( 13)  2.326236  2.386843  3.018525  2.400959  3.330903  3.353639
             H (  7)   H (  8)   H (  9)   H ( 10)   H ( 11)   C ( 12)
   H (  8)  2.558274
   H (  9)  4.376827  2.917106
   H ( 10)  4.351899  4.111279  2.903013
   H ( 11)  4.165339  4.835985  3.542443  2.691748
   C ( 12)  2.253665  2.397189  3.199358  2.341875  3.448968
   H ( 13)  2.756364  2.952152  4.081637  2.824318  4.331347  1.084765

 
 A cutoff of  1.0D-14 yielded   1403 shell pairs
 There are     13511 function pairs
 
 -------------------------------------------------------
 OpenMP Integral Computing Module                       
 Release: version 1.0, May 2013, Q-Chem Inc. Pittsburgh 
 -------------------------------------------------------
 Integral Job Info:
 Integral job number is                      11
 Integral operator is                         1
 short-range coefficients                     0
 long-range coefficients              100000000
 Omega coefficients                           0
 if combine SR and LR in K                    0
 Integral screening is                        0
 Integral computing path is                   2
 max size of driver memory is            800000
 size of driver memory is                593474
 size of scratch memory is              2361544
 max col of scratch BK array               1296
 max len of scratch array in speh3          155
 max len of scratch index in speh4           18
 max int batch size is                      520
 min int batch size is                       52
 fixed nKL is                                52
 max L of basis functions is                  2
 order of int derivative is                   0
 number of shells is                         53
 number of basis is                         163
 number of cartesian basis is               163
 number of contracted shell pairs          1403
 number of primitive shell pairs           4842
 maxK2 (contraction) of shell pair           36
 max number of K2 of shell pair               1
 max number of CS2 of shell pair            126
 max number of PS2 of shell pair            720
 mem total for path MDJ                  535308
 -------------------------------------------------------
 Smallest overlap matrix eigenvalue = 2.40E-05

 Scale SEOQF with 1.000000e-01/1.000000e-01/1.000000e-01

 Standard Electronic Orientation quadrupole field applied
 Nucleus-field energy     =     0.0000000027 hartrees
 Guess MOs from core Hamiltonian diagonalization
 Mixing HOMO and LUMO in initial guess
 Adding  50% of the LUMO to the HOMO
 An unrestricted hybrid HF-DFT SCF calculation will be
 performed using Pulay DIIS extrapolation
 Exchange:     0.2000 Hartree-Fock + 0.0800 Slater + 0.7200 B88
 Correlation:  0.1900 VWN1RPA + 0.8100 LYP
 Using SG-1 standard quadrature grid
 SCF converges when DIIS error is below 1.0E-08
 using 4 threads for integral computing
 -------------------------------------------------------
 OpenMP Integral computing Module                
 Release: version 1.0, May 2013, Q-Chem Inc. Pittsburgh 
 -------------------------------------------------------
 -------------------------------------------------------
 OpenMP BLAS3 based DFT computing Module                
 Release: version 1.0, May 2013, Q-Chem Inc. Pittsburgh 
 -------------------------------------------------------
 ---------------------------------------
  Cycle       Energy         DIIS Error
 ---------------------------------------
    1    -235.9021487721      9.79E-02
    2    -209.9627003846      7.15E-02
    3    -255.9409015132      7.71E-02
    4    -279.7463856255      3.95E-02
    5    -283.7064512755      2.87E-02
    6    -286.3102149316      1.13E-02
    7    -286.6844922832      6.94E-03
    8    -286.8475167655      1.80E-03
    9    -286.8536141981      1.17E-03
   10    -286.8589886103      2.71E-04
   11    -286.8592092056      1.37E-04
   12    -286.8593057286      2.99E-05
   13    -286.8593208722      1.79E-05
   14    -286.8593238821      4.72E-06
   15    -286.8593248022      1.64E-06
   16    -286.8593251157      8.04E-07
   17    -286.8593252274      3.31E-07
   18    -286.8593252823      1.69E-07
   19    -286.8593253106      6.25E-08
   20    -286.8593253149      1.47E-08
   21    -286.8593253149      5.22E-09 Convergence criterion met
 ---------------------------------------
 <S^2> = 0.7568
 SCF time:  CPU 105.64 s  wall 27.84 s
 SCF   energy in the final basis set = -286.85932531
 Total energy in the final basis set = -286.85932531
 
 --------------------------------------------------------------
 
                    Orbital Energies (a.u.)
 --------------------------------------------------------------
 
 Alpha MOs
 -- Occupied --
-14.334 -10.234 -10.230 -10.220 -10.219 -10.219 -10.216  -0.979
 -0.867  -0.759  -0.673  -0.615  -0.580  -0.544  -0.524  -0.475
 -0.448  -0.415  -0.410  -0.366  -0.346  -0.309  -0.285  -0.268
 -0.188
 -- Virtual --
 -0.018   0.002   0.016   0.020   0.032   0.045   0.047   0.059
  0.072   0.074   0.080   0.092   0.103   0.108   0.111   0.115
  0.125   0.138   0.146   0.162   0.165   0.175   0.183   0.186
  0.188   0.194   0.211   0.215   0.227   0.240   0.246   0.253
  0.260   0.264   0.283   0.293   0.300   0.321   0.332   0.338
  0.358   0.386   0.421   0.457   0.617   0.663   0.674   0.689
  0.706   0.724   0.731   0.744   0.751   0.764   0.788   0.793
  0.803   0.812   0.833   0.872   0.903   0.919   0.932   0.982
  0.991   1.030   1.042   1.044   1.079   1.088   1.103   1.154
  1.229   1.260   1.325   1.388   1.415   1.470   1.484   1.495
  1.545   1.579   1.645   1.686   1.690   1.776   1.801   1.850
  1.908   1.914   1.958   1.979   2.022   2.080   2.119   2.143
  2.163   2.183   2.229   2.304   2.346   2.361   2.368   2.399
  2.416   2.449   2.465   2.482   2.499   2.512   2.543   2.561
  2.566   2.587   2.617   2.641   2.684   2.717   2.765   2.805
  2.822   2.875   2.997   3.046   3.094   3.271   3.333   3.360
  3.528   3.552   3.660   4.180   4.428   4.456   4.601   4.616
  4.659   4.877
 
 Beta MOs
 -- Occupied --
-14.333 -10.232 -10.229 -10.221 -10.220 -10.217 -10.204  -0.975
 -0.861  -0.751  -0.662  -0.611  -0.576  -0.537  -0.518  -0.469
 -0.444  -0.412  -0.404  -0.358  -0.342  -0.302  -0.274  -0.262
 -- Virtual --
 -0.075  -0.007   0.003   0.016   0.020   0.035   0.046   0.048
  0.060   0.073   0.078   0.082   0.094   0.104   0.109   0.112
  0.117   0.128   0.140   0.148   0.162   0.167   0.177   0.184
  0.187   0.191   0.195   0.212   0.220   0.233   0.242   0.250
  0.256   0.263   0.266   0.286   0.296   0.303   0.323   0.334
  0.342   0.362   0.388   0.426   0.462   0.620   0.669   0.687
  0.698   0.710   0.729   0.742   0.751   0.756   0.773   0.790
  0.801   0.808   0.814   0.839   0.875   0.906   0.921   0.935
  0.984   0.995   1.032   1.046   1.047   1.082   1.092   1.110
  1.162   1.231   1.265   1.330   1.391   1.417   1.478   1.495
  1.501   1.550   1.585   1.648   1.689   1.699   1.783   1.807
  1.863   1.912   1.924   1.967   1.985   2.025   2.086   2.133
  2.153   2.170   2.187   2.232   2.308   2.352   2.363   2.372
  2.403   2.420   2.458   2.467   2.488   2.506   2.518   2.546
  2.564   2.573   2.593   2.623   2.647   2.687   2.722   2.772
  2.808   2.825   2.878   3.000   3.050   3.096   3.273   3.335
  3.365   3.530   3.556   3.665   4.182   4.445   4.458   4.604
  4.621   4.664   4.882
 --------------------------------------------------------------
 
          Ground-State Mulliken Net Atomic Charges

     Atom                 Charge (a.u.)    Spin (a.u.)
  --------------------------------------------------------
      1 C                    -0.290269       0.102868
      2 C                    -0.055231      -0.154415
      3 C                    -0.152695       0.979847
      4 C                    -0.026996      -0.115489
      5 C                    -0.052376       0.053450
      6 N                    -0.171432       0.035835
      7 H                     0.144222       0.003589
      8 H                     0.138481       0.005183
      9 H                     0.130843      -0.023254
     10 H                     0.133559       0.023536
     11 H                     0.131150       0.001100
     12 C                    -0.062565       0.087428
     13 H                     0.133309       0.000323
  --------------------------------------------------------
  Sum of atomic charges =    -0.000000
  Sum of spin   charges =     1.000000

 -----------------------------------------------------------------
                    Cartesian Multipole Moments
 -----------------------------------------------------------------
    Charge (ESU x 10^10)
                -0.0000
    Dipole Moment (Debye)
         X      -1.2490      Y      -1.7435      Z       0.8399
       Tot       2.3033
    Quadrupole Moments (Debye-Ang)
        XX     -39.3644     XY      -5.2464     YY     -45.4866
        XZ       2.4502     YZ       0.4036     ZZ     -40.2025
    Octopole Moments (Debye-Ang^2)
       XXX      -7.5509    XXY      -7.8583    XYY      -8.6383
       YYY     -23.2272    XXZ       4.5027    XYZ       2.9253
       YYZ       0.2755    XZZ      -5.1757    YZZ      -8.9434
       ZZZ       6.5514
    Hexadecapole Moments (Debye-Ang^3)
      XXXX    -223.5470   XXXY     -10.3499   XXYY     -96.2281
      XYYY     -30.4099   YYYY    -334.8014   XXXZ     -13.9433
      XXYZ       4.1918   XYYZ      -0.1747   YYYZ       6.2597
      XXZZ     -66.3673   XYZZ      -1.7657   YYZZ     -77.8912
      XZZZ     -15.7373   YZZZ       7.4575   ZZZZ    -155.3537
 -----------------------------------------------------------------
Archival summary:
1\1\c8-73\SP\ProcedureUnspecified\6-31+G**\166(2)\hpark21\FriMar400:43:532022FriMar400:43:532022\0\\#,ProcedureUnspecified,6-31+G**,\\0,2\N\C,1,1.285\H,2,1.08796,1,121.697\C,1,1.44149,2,106.501,3,-176.151,0\H,4,1.08443,1,117.557,2,-165.429,0\C,4,1.48452,1,112.078,2,-16.7742,0\H,6,1.08476,4,129.092,1,-128.745,0\C,2,1.52459,1,113.507,3,172.512,0\H,8,1.09148,2,117.55,1,156.288,0\C,8,1.52627,2,105.102,1,-68.3384,0\H,10,1.08564,8,131.781,2,-79.2515,0\C,10,1.45473,8,92.6257,2,84.5966,0\H,12,1.0845,10,128.621,8,161.786,0\\\@

 Total job time:  28.84s(wall), 107.33s(cpu) 
 Fri Mar  4 00:43:53 2022

        *************************************************************
        *                                                           *
        *  Thank you very much for using Q-Chem.  Have a nice day.  *
        *                                                           *
        *************************************************************


