
Running Job 1 of 1 qcopt_rct.in
qchem qcopt_rct.in_6677.0 ./qcopt_rct.d/ 1
/home/leeping/opt/qchem/5.0.2-openmp/exe/qcprog.exe_s qcopt_rct.in_6677.0 ./qcopt_rct.d/
Check license passed

                  Welcome to Q-Chem
     A Quantum Leap Into The Future Of Chemistry


 Q-Chem 5.0, Q-Chem, Inc., Pleasanton, CA (2017)

 Yihan Shao,  Zhengting Gan,  E. Epifanovsky,  A. T. B. Gilbert,  M. Wormit,  
 J. Kussmann,  A. W. Lange,  A. Behn,  Jia Deng,  Xintian Feng,  D. Ghosh,  
 M. Goldey,  P. R. Horn,  L. D. Jacobson,  I. Kaliman,  T. Kus,  A. Landau,  
 Jie Liu,  E. I. Proynov,  R. M. Richard,  R. P. Steele,  E. J. Sundstrom,  
 H. L. Woodcock III,  P. M. Zimmerman,  D. Zuev,  B. Albrecht,  E. Alguire,  
 S. A. Baeppler,  D. Barton,  Z. Benda,  Y. A. Bernard,  E. J. Berquist,  
 K. B. Bravaya,  H. Burton,  D. Casanova,  Chun-Min Chang,  Yunqing Chen,  
 A. Chien,  K. D. Closser,  M. P. Coons,  S. Dasgupta,  A. L. Dempwolff,  
 M. Diedenhofen,  Hainam Do,  R. G. Edgar,  Po-Tung Fang,  S. Fatehi,  
 Qingguo Feng,  J. Fosso-Tande,  Qinghui Ge,  A. Ghysels,  G. Gidofalvi,  
 J. Gomes,  J. Gonthier,  A. Gunina,  M. W. D. Hanson-Heine,  
 P. H. P. Harbach,  A. W. Hauser,  J. E. Herr,  E. G. Hohenstein,  
 Z. C. Holden,  Kerwin Hui,  T.-C. Jagau,  Hyunjun Ji,  B. Kaduk,  
 K. Khistyaev,  Jaehoon Kim,  P. Klunzinger,  K. Koh,  D. Kosenkov,  
 L. Koulias,  T. Kowalczyk,  C. M. Krauter,  A. Kunitsa,  Ka Un Lao,  
 A. Laurent,  K. V. Lawler,  Joonho Lee,  D. Lefrancois,  S. Lehtola,  
 D. S. Levine,  Yi-Pei Li,  You-Sheng Lin,  Fenglai Liu,  E. Livshits,  
 A. Luenser,  P. Manohar,  E. Mansoor,  S. F. Manzer,  Shan-Ping Mao,  
 Yuezhi Mao,  N. Mardirossian,  A. V. Marenich,  T. Markovich,  
 L. A. Martinez-Martinez,  S. A. Maurer,  N. J. Mayhall,  S. C. McKenzie,  
 J.-M. Mewes,  A. F. Morrison,  J. W. Mullinax,  K. Nanda,  
 T. S. Nguyen-Beck,  R. Olivares-Amaya,  J. A. Parkhill,  T. M. Perrine,  
 F. Plasser,  S. Prager,  A. Prociuk,  E. Ramos,  D. R. Rehn,  F. Rob,  
 M. Schneider,  N. Sergueev,  S. M. Sharada,  S. Sharma,  D. W. Small,  
 T. Stauch,  T. Stein,  Yu-Chuan Su,  A. J. W. Thom,  A. Tkatchenko,  
 T. Tsuchimochi,  L. Vogt,  O. Vydrov,  M. A. Watson,  J. Wenzel,  
 M. de Wergifosse,  T. A. Wesolowski,  A. White,  J. Witte,  A. Yamada,  
 Jun Yang,  K. Yao,  S. Yeganeh,  S. R. Yost,  Zhi-Qiang You,  A. Zech,  
 Igor Ying Zhang,  Xing Zhang,  Yan Zhao,  Ying Zhu,  B. R. Brooks,  
 G. K. L. Chan,  C. J. Cramer,  M. S. Gordon,  W. J. Hehre,  A. Klamt,  
 M. W. Schmidt,  C. D. Sherrill,  D. G. Truhlar,  A. Aspuru-Guzik,  R. Baer,  
 A. T. Bell,  N. A. Besley,  Jeng-Da Chai,  R. A. DiStasio Jr.,  A. Dreuw,  
 B. D. Dunietz,  T. R. Furlani,  Chao-Ping Hsu,  Yousung Jung,  Jing Kong,  
 D. S. Lambrecht,  WanZhen Liang,  C. Ochsenfeld,  V. A. Rassolov,  
 L. V. Slipchenko,  J. E. Subotnik,  T. Van Voorhis,  J. M. Herbert,  
 A. I. Krylov,  P. M. W. Gill,  M. Head-Gordon

 Contributors to earlier versions of Q-Chem not listed above: 
 R. D. Adamson,  B. Austin,  J. Baker,  G. J. O. Beran,  K. Brandhorst,  
 S. T. Brown,  E. F. C. Byrd,  A. K. Chakraborty,  C.-L. Cheng,  
 Siu Hung Chien,  D. M. Chipman,  D. L. Crittenden,  H. Dachsel,  
 R. J. Doerksen,  A. D. Dutoi,  L. Fusti-Molnar,  W. A. Goddard III,  
 A. Golubeva-Zadorozhnaya,  S. R. Gwaltney,  G. Hawkins,  A. Heyden,  
 S. Hirata,  G. Kedziora,  F. J. Keil,  C. Kelley,  Jihan Kim,  R. A. King,  
 R. Z. Khaliullin,  P. P. Korambath,  W. Kurlancheek,  A. M. Lee,  M. S. Lee,  
 S. V. Levchenko,  Ching Yeh Lin,  D. Liotard,  R. C. Lochan,  I. Lotan,  
 P. E. Maslen,  N. Nair,  D. P. O'Neill,  D. Neuhauser,  E. Neuscamman,  
 C. M. Oana,  R. Olson,  B. Peters,  R. Peverati,  P. A. Pieniazek,  
 Y. M. Rhee,  J. Ritchie,  M. A. Rohrdanz,  E. Rosta,  N. J. Russ,  
 H. F. Schaefer III,  N. E. Schultz,  N. Shenvi,  A. C. Simmonett,  A. Sodt,  
 D. Stuck,  K. S. Thanthiriwatte,  V. Vanovschi,  Tao Wang,  A. Warshel,  
 C. F. Williams,  Q. Wu,  X. Xu,  W. Zhang

 Please cite Q-Chem as follows:
 Y. Shao et al., Mol. Phys. 113, 184-215 (2015)
 DOI: 10.1080/00268976.2014.952696

 Q-Chem 5.0.2 for Intel X86 EM64T Linux

 Parts of Q-Chem use Armadillo 5.200.1 (Boston Tea Smuggler).
 http://arma.sourceforge.net/

 Q-Chem begins on Thu Mar  3 21:29:45 2022  

Host: 
0

     Scratch files written to ./qcopt_rct.d//
 Dec517 15110_ 26548  26544 5633   
Processing $rem in /home/leeping/opt/qchem/5.0.2-openmp/config/preferences.
 MEM_STATIC 2000
 MEM_TOTAL  8000
 SYMMETRY   OFF
 SYM_IGNORE TRUE 

Checking the input file for inconsistencies... 	...done.

--------------------------------------------------------------
User input:
--------------------------------------------------------------
$molecule
0 2
C        1.1257872283    0.1915103642    0.4753344904
C        0.8530562582   -0.9771834436   -0.4844585579
C       -0.4708821211   -0.9917798802   -0.7112761441
C       -1.0733753324    0.1689504635    0.1058247809
C       -0.4268768735    1.4516272469   -0.4559746898
N        0.8343480124    1.4888641751   -0.2636226176
H        2.1013688013    0.2175611497    0.9584965789
H        1.6121067179   -1.6257873646   -0.9077038328
H       -1.0351172358   -1.6489404257   -1.3639214750
H       -2.1544426050    0.1672496931    0.2459404249
H       -0.9623959612    2.2384269214   -0.9846100443
C       -0.1373892975    0.0439136282    1.3126277610
H       -0.2661875919   -0.7244125280    2.0733433255
$end

$rem
method                b3lyp
basis                 6-31g(d)
unrestricted          true
symmetry              off
sym_ignore            true
incdft                false
incfock               0
scf_convergence       8
thresh                14
jobtype               opt
scf_guess             core
scf_guess_mix         5
scf_algorithm         diis
max_scf_cycles        100
geom_opt_max_cycles   300
$end

--------------------------------------------------------------
 ----------------------------------------------------------------
             Standard Nuclear Orientation (Angstroms)
    I     Atom           X                Y                Z
 ----------------------------------------------------------------
    1      C       1.1257872283     0.1915103642     0.4753344904
    2      C       0.8530562582    -0.9771834436    -0.4844585579
    3      C      -0.4708821211    -0.9917798802    -0.7112761441
    4      C      -1.0733753324     0.1689504635     0.1058247809
    5      C      -0.4268768735     1.4516272469    -0.4559746898
    6      N       0.8343480124     1.4888641751    -0.2636226176
    7      H       2.1013688013     0.2175611497     0.9584965789
    8      H       1.6121067179    -1.6257873646    -0.9077038328
    9      H      -1.0351172358    -1.6489404257    -1.3639214750
   10      H      -2.1544426050     0.1672496931     0.2459404249
   11      H      -0.9623959612     2.2384269214    -0.9846100443
   12      C      -0.1373892975     0.0439136282     1.3126277610
   13      H      -0.2661875919    -0.7244125280     2.0733433255
 ----------------------------------------------------------------
 Nuclear Repulsion Energy =   279.1093680200 hartrees
 There are       25 alpha and       24 beta electrons
 Requested basis set is 6-31G(d)
 There are 40 shells and 117 basis functions

 Total QAlloc Memory Limit   8000 MB
 Mega-Array Size      1956 MB
 MEM_STATIC part      2000 MB
 A cutoff of  1.0D-14 yielded    814 shell pairs
 There are      7086 function pairs
 
 -------------------------------------------------------
 OpenMP Integral Computing Module                       
 Release: version 1.0, May 2013, Q-Chem Inc. Pittsburgh 
 -------------------------------------------------------
 Integral Job Info:
 Integral job number is                      11
 Integral operator is                         1
 short-range coefficients                     0
 long-range coefficients              100000000
 Omega coefficients                           0
 if combine SR and LR in K                    0
 Integral screening is                        0
 Integral computing path is                   2
 max size of driver memory is            800000
 size of driver memory is                593474
 size of scratch memory is              2361544
 max col of scratch BK array               1296
 max len of scratch array in speh3          155
 max len of scratch index in speh4           18
 max int batch size is                      520
 min int batch size is                       52
 fixed nKL is                                52
 max L of basis functions is                  2
 order of int derivative is                   0
 number of shells is                         40
 number of basis is                         117
 number of cartesian basis is               117
 number of contracted shell pairs           814
 number of primitive shell pairs           3589
 maxK2 (contraction) of shell pair           36
 max number of K2 of shell pair               1
 max number of CS2 of shell pair             85
 max number of PS2 of shell pair            390
 mem total for path MDJ                  535308
 -------------------------------------------------------
 Smallest overlap matrix eigenvalue = 1.11E-03

 Scale SEOQF with 1.000000e-01/1.000000e-01/1.000000e-01

 Standard Electronic Orientation quadrupole field applied
 Nucleus-field energy     =     0.0000000022 hartrees
 Guess MOs from core Hamiltonian diagonalization
 Mixing HOMO and LUMO in initial guess
 Adding  50% of the LUMO to the HOMO
 An unrestricted hybrid HF-DFT SCF calculation will be
 performed using Pulay DIIS extrapolation
 Exchange:     0.2000 Hartree-Fock + 0.0800 Slater + 0.7200 B88
 Correlation:  0.1900 VWN1RPA + 0.8100 LYP
 Using SG-1 standard quadrature grid
 SCF converges when DIIS error is below 1.0E-08
 using 4 threads for integral computing
 -------------------------------------------------------
 OpenMP Integral computing Module                
 Release: version 1.0, May 2013, Q-Chem Inc. Pittsburgh 
 -------------------------------------------------------
 -------------------------------------------------------
 OpenMP BLAS3 based DFT computing Module                
 Release: version 1.0, May 2013, Q-Chem Inc. Pittsburgh 
 -------------------------------------------------------
 ---------------------------------------
  Cycle       Energy         DIIS Error
 ---------------------------------------
    1    -235.1327515923      1.38E-01
    2    -229.2017134554      1.01E-01
    3    -252.1702122834      1.06E-01
    4    -283.3233775864      4.13E-02
    5    -283.1009192188      3.78E-02
    6    -286.5469740368      1.22E-02
    7    -286.6161206420      1.13E-02
    8    -286.8218388088      4.33E-03
    9    -286.8466467785      1.68E-03
   10    -286.8513483441      4.09E-04
   11    -286.8515960190      1.83E-04
   12    -286.8516541933      3.24E-05
   13    -286.8516570452      1.44E-05
   14    -286.8516576917      3.16E-06
   15    -286.8516579055      1.09E-06
   16    -286.8516580028      5.95E-07
   17    -286.8516580372      3.55E-07
   18    -286.8516580597      1.87E-07
   19    -286.8516580712      6.16E-08
   20    -286.8516580738      1.32E-08
   21    -286.8516580738      2.53E-09 Convergence criterion met
 ---------------------------------------
 <S^2> = 0.7537
 SCF time:  CPU 50.75 s  wall 13.63 s
 SCF   energy in the final basis set = -286.85165807
 Total energy in the final basis set = -286.85165807
 
 --------------------------------------------------------------
 
                    Orbital Energies (a.u.)
 --------------------------------------------------------------
 
 Alpha MOs
 -- Occupied --
-14.322 -10.224 -10.220 -10.210 -10.204 -10.201 -10.198  -0.952
 -0.821  -0.726  -0.705  -0.579  -0.573  -0.531  -0.512  -0.472
 -0.418  -0.410  -0.381  -0.373  -0.348  -0.294  -0.271  -0.258
 -0.196
 -- Virtual --
 -0.022   0.029   0.103   0.140   0.150   0.154   0.159   0.163
  0.172   0.210   0.215   0.255   0.288   0.322   0.346   0.366
  0.495   0.510   0.532   0.540   0.570   0.599   0.606   0.622
  0.635   0.641   0.655   0.690   0.700   0.729   0.778   0.791
  0.799   0.817   0.825   0.846   0.858   0.876   0.891   0.940
  0.965   1.005   1.058   1.092   1.201   1.264   1.335   1.339
  1.396   1.406   1.486   1.510   1.563   1.610   1.658   1.725
  1.783   1.796   1.827   1.892   1.954   1.986   2.000   2.048
  2.097   2.138   2.172   2.208   2.234   2.276   2.315   2.335
  2.425   2.476   2.515   2.532   2.548   2.619   2.629   2.645
  2.722   2.835   2.856   2.904   2.939   3.922   4.187   4.267
  4.280   4.396   4.543   4.678
 
 Beta MOs
 -- Occupied --
-14.321 -10.224 -10.221 -10.210 -10.200 -10.196 -10.190  -0.949
 -0.815  -0.725  -0.690  -0.577  -0.561  -0.527  -0.509  -0.463
 -0.414  -0.406  -0.379  -0.369  -0.342  -0.287  -0.261  -0.255
 -- Virtual --
 -0.045  -0.016   0.031   0.105   0.143   0.153   0.158   0.160
  0.166   0.176   0.216   0.224   0.267   0.290   0.324   0.348
  0.369   0.497   0.529   0.540   0.544   0.577   0.603   0.611
  0.624   0.641   0.658   0.662   0.693   0.708   0.742   0.782
  0.792   0.810   0.819   0.827   0.848   0.860   0.879   0.894
  0.942   0.973   1.013   1.060   1.099   1.204   1.265   1.339
  1.344   1.401   1.410   1.489   1.512   1.577   1.619   1.665
  1.728   1.793   1.799   1.838   1.910   1.966   1.998   2.003
  2.054   2.119   2.144   2.179   2.224   2.249   2.281   2.317
  2.338   2.428   2.494   2.517   2.542   2.553   2.630   2.636
  2.648   2.729   2.837   2.859   2.905   2.942   3.923   4.190
  4.269   4.307   4.399   4.549   4.679
 --------------------------------------------------------------
 
          Ground-State Mulliken Net Atomic Charges

     Atom                 Charge (a.u.)    Spin (a.u.)
  --------------------------------------------------------
      1 C                    -0.094389      -0.045061
      2 C                    -0.088022       0.040544
      3 C                    -0.095933       0.079086
      4 C                    -0.246137      -0.043956
      5 C                     0.092341      -0.008698
      6 N                    -0.325374       0.021871
      7 H                     0.139882       0.003046
      8 H                     0.146098       0.000916
      9 H                     0.145573       0.000385
     10 H                     0.133977       0.002869
     11 H                     0.149719      -0.000179
     12 C                    -0.096526       0.975760
     13 H                     0.138791      -0.026582
  --------------------------------------------------------
  Sum of atomic charges =     0.000000
  Sum of spin   charges =     1.000000

 -----------------------------------------------------------------
                    Cartesian Multipole Moments
 -----------------------------------------------------------------
    Charge (ESU x 10^10)
                 0.0000
    Dipole Moment (Debye)
         X      -1.4505      Y      -1.8740      Z      -0.1384
       Tot       2.3738
    Quadrupole Moments (Debye-Ang)
        XX     -38.2700     XY      -4.0419     YY     -42.6610
        XZ       1.9394     YZ       0.1902     ZZ     -40.5505
    Octopole Moments (Debye-Ang^2)
       XXX     -10.4761    XXY     -11.1457    XYY     -11.1671
       YYY     -24.3830    XXZ       0.5737    XYZ       3.0073
       YYZ      -3.7677    XZZ      -4.1406    YZZ      -9.9991
       ZZZ       0.0178
    Hexadecapole Moments (Debye-Ang^3)
      XXXX    -217.4594   XXXY      -7.5226   XXYY     -88.1831
      XYYY     -18.1362   YYYY    -294.7055   XXXZ      -2.1177
      XXYZ       2.9055   XYYZ       3.3836   YYYZ      -3.9347
      XXZZ     -65.1548   XYZZ      -0.2098   YYZZ     -72.2188
      XZZZ      -2.8636   YZZZ      -9.1753   ZZZZ    -174.8919
 -----------------------------------------------------------------
 Calculating analytic gradient of the SCF energy
 Gradient of SCF Energy
            1           2           3           4           5           6
    1   0.0000084   0.0003087  -0.0005069  -0.0002209  -0.0003209   0.0004140
    2  -0.0004078  -0.0000525  -0.0002029   0.0002487   0.0001446   0.0000402
    3   0.0002163   0.0001890   0.0000309   0.0000067  -0.0000584   0.0004455
            7           8           9          10          11          12
    1   0.0000292   0.0000310   0.0000090  -0.0000572  -0.0000659   0.0003503
    2   0.0002076   0.0001011   0.0000645  -0.0000997  -0.0001037   0.0000880
    3  -0.0000623  -0.0000735   0.0000019  -0.0001009  -0.0000907  -0.0005226
           13
    1   0.0000211
    2  -0.0000280
    3   0.0000182
 Max gradient component =       5.226E-04
 RMS gradient           =       2.134E-04
 Gradient time:  CPU 7.97 s  wall 2.03 s
 Geometry Optimization Parameters
   NAtoms,    NIC,     NZ,  NCons,   NDum,   NFix, NCnnct, MaxDiis
       13     104       0       0       0       0       0       0


** GEOMETRY OPTIMIZATION IN DELOCALIZED INTERNAL COORDINATES **
   Searching for a Minimum

   Optimization Cycle:   1

                       Coordinates (Angstroms)
     ATOM                X               Y               Z
      1  C         1.1257872283    0.1915103642    0.4753344904
      2  C         0.8530562582   -0.9771834436   -0.4844585579
      3  C        -0.4708821211   -0.9917798802   -0.7112761441
      4  C        -1.0733753324    0.1689504635    0.1058247809
      5  C        -0.4268768735    1.4516272469   -0.4559746898
      6  N         0.8343480124    1.4888641751   -0.2636226176
      7  H         2.1013688013    0.2175611497    0.9584965789
      8  H         1.6121067179   -1.6257873646   -0.9077038328
      9  H        -1.0351172358   -1.6489404257   -1.3639214750
     10  H        -2.1544426050    0.1672496931    0.2459404249
     11  H        -0.9623959612    2.2384269214   -0.9846100443
     12  C        -0.1373892975    0.0439136282    1.3126277610
     13  H        -0.2661875919   -0.7244125280    2.0733433255
   Point Group: c1    Number of degrees of freedom:    33


   Energy is   -286.851658074


 Attempting to Generate Delocalized Internal Coordinates

 33 Hessian modes will be used to form the next step
  Hessian Eigenvalues:
     0.009896    0.010780    0.012024    0.014584    0.016766    0.021801
     0.046722    0.047572    0.055563    0.062894    0.065829    0.081788
     0.108001    0.130925    0.142020    0.159712    0.159864    0.159943
     0.186032    0.253344    0.253829    0.263160    0.268833    0.283903
     0.293775    0.347998    0.349304    0.349455    0.349621    0.354546
     0.354647    0.506635    0.663510

 Minimum Search - Taking Simple RFO Step
 Searching for Lamda that Minimizes Along All modes
 Value Taken    Lamda =  -0.00000781
 Step Taken.  Stepsize is  0.018001

                             Maximum     Tolerance    Cnvgd?
         Gradient           0.000341      0.000300      NO
         Displacement       0.007115      0.001200      NO
         Energy change     *********      0.000001      NO


 New Cartesian Coordinates Obtained by Inverse Iteration

 Displacement from previous Coordinates is:  0.015373
 ----------------------------------------------------------------
             Standard Nuclear Orientation (Angstroms)
    I     Atom           X                Y                Z
 ----------------------------------------------------------------
    1      C       1.1253702872     0.1920950738     0.4743433902
    2      C       0.8533717532    -0.9776539767    -0.4842005133
    3      C      -0.4698094677    -0.9909647902    -0.7128212040
    4      C      -1.0729618531     0.1686643056     0.1055590224
    5      C      -0.4274385995     1.4520038324    -0.4557136884
    6      N       0.8340962461     1.4879844538    -0.2674507204
    7      H       2.1007683231     0.2173083642     0.9579104881
    8      H       1.6121936040    -1.6284281330    -0.9045561532
    9      H      -1.0338421906    -1.6490129070    -1.3648589619
   10      H      -2.1538831523     0.1670292481     0.2462834948
   11      H      -0.9636114292     2.2408062068    -0.9806783394
   12      C      -0.1377589956     0.0443221483     1.3128295960
   13      H      -0.2664945260    -0.7241538261     2.0733535892
 ----------------------------------------------------------------
 Nuclear Repulsion Energy =   279.1179855293 hartrees
 There are       25 alpha and       24 beta electrons
 Applying Cartesian multipole field
    Component          Value
    ---------          -----
     (2,0,0)        1.00000E-11
     (0,2,0)        2.00000E-11
     (0,0,2)       -3.00000E-11
 Nucleus-field energy     =     0.0000000022 hartrees
 Requested basis set is 6-31G(d)
 There are 40 shells and 117 basis functions
 A cutoff of  1.0D-14 yielded    814 shell pairs
 There are      7086 function pairs
 Smallest overlap matrix eigenvalue = 1.11E-03
 Guess MOs from SCF MO coefficient file
 Reading MOs from coefficient file
 Mixing HOMO and LUMO in initial guess
 Adding  50% of the LUMO to the HOMO
 Reading MOs from coefficient file
 An unrestricted hybrid HF-DFT SCF calculation will be
 performed using Pulay DIIS extrapolation
 Exchange:     0.2000 Hartree-Fock + 0.0800 Slater + 0.7200 B88
 Correlation:  0.1900 VWN1RPA + 0.8100 LYP
 Using SG-1 standard quadrature grid
 SCF converges when DIIS error is below 1.0E-08
 Geometry optimization detected.  Setting ReadMinima to 0
 Setting SaveMinima to 0
 using 4 threads for integral computing
 -------------------------------------------------------
 OpenMP Integral computing Module                
 Release: version 1.0, May 2013, Q-Chem Inc. Pittsburgh 
 -------------------------------------------------------
 -------------------------------------------------------
 OpenMP BLAS3 based DFT computing Module                
 Release: version 1.0, May 2013, Q-Chem Inc. Pittsburgh 
 -------------------------------------------------------
 ---------------------------------------
  Cycle       Energy         DIIS Error
 ---------------------------------------
    1    -286.8210639341      1.81E-03
    2    -286.8200361313      4.08E-03
    3    -286.8491615727      8.14E-04
    4    -286.8508575823      4.71E-04
    5    -286.8514862824      9.26E-05
    6    -286.8515834380      9.54E-05
    7    -286.8516202624      2.49E-05
    8    -286.8516418341      1.06E-05
    9    -286.8516500832      3.22E-06
   10    -286.8516560706      1.74E-06
   11    -286.8516585030      1.11E-06
   12    -286.8516593267      5.93E-07
   13    -286.8516594816      1.43E-07
   14    -286.8516594834      5.32E-08
   15    -286.8516594834      1.52E-08
   16    -286.8516594834      3.89E-09 Convergence criterion met
 ---------------------------------------
 <S^2> = 0.7537
 SCF time:  CPU 38.97 s  wall 10.25 s
 SCF   energy in the final basis set = -286.85165948
 Total energy in the final basis set = -286.85165948
 
 --------------------------------------------------------------
 
                    Orbital Energies (a.u.)
 --------------------------------------------------------------
 
 Alpha MOs
 -- Occupied --
-14.322 -10.224 -10.220 -10.210 -10.204 -10.201 -10.197  -0.952
 -0.821  -0.726  -0.705  -0.579  -0.573  -0.531  -0.512  -0.472
 -0.418  -0.410  -0.381  -0.373  -0.348  -0.294  -0.271  -0.258
 -0.196
 -- Virtual --
 -0.021   0.029   0.103   0.140   0.150   0.154   0.159   0.163
  0.173   0.210   0.215   0.255   0.288   0.322   0.346   0.366
  0.495   0.510   0.532   0.540   0.570   0.599   0.606   0.622
  0.635   0.641   0.655   0.690   0.700   0.728   0.778   0.791
  0.799   0.817   0.825   0.846   0.858   0.876   0.891   0.940
  0.965   1.005   1.059   1.092   1.201   1.264   1.334   1.339
  1.395   1.407   1.487   1.510   1.563   1.611   1.659   1.725
  1.784   1.796   1.827   1.892   1.954   1.986   1.999   2.049
  2.097   2.138   2.172   2.208   2.235   2.276   2.315   2.335
  2.425   2.476   2.515   2.532   2.548   2.618   2.629   2.645
  2.722   2.835   2.856   2.904   2.939   3.922   4.187   4.267
  4.279   4.396   4.543   4.678
 
 Beta MOs
 -- Occupied --
-14.321 -10.224 -10.221 -10.210 -10.200 -10.196 -10.190  -0.949
 -0.815  -0.725  -0.690  -0.577  -0.561  -0.527  -0.509  -0.463
 -0.414  -0.406  -0.379  -0.369  -0.342  -0.287  -0.261  -0.255
 -- Virtual --
 -0.045  -0.016   0.031   0.105   0.143   0.153   0.158   0.160
  0.166   0.176   0.216   0.223   0.267   0.290   0.324   0.349
  0.369   0.497   0.529   0.540   0.544   0.577   0.604   0.611
  0.624   0.641   0.658   0.662   0.693   0.708   0.742   0.782
  0.793   0.810   0.819   0.827   0.848   0.860   0.879   0.894
  0.942   0.973   1.013   1.060   1.099   1.204   1.266   1.338
  1.345   1.400   1.411   1.489   1.513   1.578   1.619   1.665
  1.729   1.793   1.799   1.837   1.910   1.966   1.998   2.003
  2.054   2.119   2.144   2.178   2.224   2.250   2.281   2.318
  2.339   2.428   2.493   2.517   2.542   2.553   2.630   2.636
  2.648   2.729   2.837   2.859   2.906   2.942   3.923   4.190
  4.269   4.307   4.399   4.549   4.679
 --------------------------------------------------------------
 
          Ground-State Mulliken Net Atomic Charges

     Atom                 Charge (a.u.)    Spin (a.u.)
  --------------------------------------------------------
      1 C                    -0.094562      -0.044994
      2 C                    -0.087968       0.039958
      3 C                    -0.095723       0.079776
      4 C                    -0.246146      -0.043960
      5 C                     0.092282      -0.008896
      6 N                    -0.325207       0.022065
      7 H                     0.139778       0.003026
      8 H                     0.146099       0.000896
      9 H                     0.145529       0.000310
     10 H                     0.133881       0.002855
     11 H                     0.149662      -0.000169
     12 C                    -0.096520       0.975669
     13 H                     0.138895      -0.026536
  --------------------------------------------------------
  Sum of atomic charges =     0.000000
  Sum of spin   charges =     1.000000

 -----------------------------------------------------------------
                    Cartesian Multipole Moments
 -----------------------------------------------------------------
    Charge (ESU x 10^10)
                 0.0000
    Dipole Moment (Debye)
         X      -1.4509      Y      -1.8745      Z      -0.1280
       Tot       2.3738
    Quadrupole Moments (Debye-Ang)
        XX     -38.2778     XY      -4.0479     YY     -42.6393
        XZ       1.9417     YZ       0.2012     ZZ     -40.5602
    Octopole Moments (Debye-Ang^2)
       XXX     -10.4786    XXY     -11.1486    XYY     -11.1574
       YYY     -24.3709    XXZ       0.6169    XYZ       3.0100
       YYZ      -3.7161    XZZ      -4.1547    YZZ     -10.0212
       ZZZ       0.1262
    Hexadecapole Moments (Debye-Ang^3)
      XXXX    -217.4382   XXXY      -7.4691   XXYY     -88.1304
      XYYY     -18.0969   YYYY    -294.5285   XXXZ      -2.0453
      XXYZ       2.9255   XYYZ       3.4204   YYYZ      -3.8362
      XXZZ     -65.1806   XYZZ      -0.1766   YYZZ     -72.2661
      XZZZ      -2.7923   YZZZ      -9.1100   ZZZZ    -174.9539
 -----------------------------------------------------------------
 Calculating analytic gradient of the SCF energy
 Gradient of SCF Energy
            1           2           3           4           5           6
    1  -0.0002627   0.0000194   0.0001017   0.0000808   0.0000040   0.0000247
    2  -0.0000435  -0.0000981   0.0001246  -0.0000590   0.0001348  -0.0000322
    3   0.0001381   0.0001000  -0.0001659  -0.0000004   0.0001908  -0.0003935
            7           8           9          10          11          12
    1  -0.0000266   0.0000132   0.0000271   0.0000172  -0.0000162   0.0000430
    2   0.0000062  -0.0000030  -0.0000057  -0.0000163   0.0000131  -0.0000020
    3   0.0000080   0.0000039  -0.0000230  -0.0000013   0.0000820   0.0000640
           13
    1  -0.0000256
    2  -0.0000188
    3  -0.0000026
 Max gradient component =       3.935E-04
 RMS gradient           =       1.015E-04
 Gradient time:  CPU 8.00 s  wall 2.04 s
 Geometry Optimization Parameters
   NAtoms,    NIC,     NZ,  NCons,   NDum,   NFix, NCnnct, MaxDiis
       13     104       0       0       0       0       0       0

 Cartesian Hessian Update
 Hessian Updated using BFGS Update


** GEOMETRY OPTIMIZATION IN DELOCALIZED INTERNAL COORDINATES **
   Searching for a Minimum

   Optimization Cycle:   2

                       Coordinates (Angstroms)
     ATOM                X               Y               Z
      1  C         1.1253702872    0.1920950738    0.4743433902
      2  C         0.8533717532   -0.9776539767   -0.4842005133
      3  C        -0.4698094677   -0.9909647902   -0.7128212040
      4  C        -1.0729618531    0.1686643056    0.1055590224
      5  C        -0.4274385995    1.4520038324   -0.4557136884
      6  N         0.8340962461    1.4879844538   -0.2674507204
      7  H         2.1007683231    0.2173083642    0.9579104881
      8  H         1.6121936040   -1.6284281330   -0.9045561532
      9  H        -1.0338421906   -1.6490129070   -1.3648589619
     10  H        -2.1538831523    0.1670292481    0.2462834948
     11  H        -0.9636114292    2.2408062068   -0.9806783394
     12  C        -0.1377589956    0.0443221483    1.3128295960
     13  H        -0.2664945260   -0.7241538261    2.0733535892
   Point Group: c1    Number of degrees of freedom:    33


   Energy is   -286.851659483

 Hessian Updated using BFGS Update

 33 Hessian modes will be used to form the next step
  Hessian Eigenvalues:
     0.009249    0.010587    0.014500    0.016597    0.020347    0.023337
     0.046710    0.048140    0.055282    0.063136    0.065818    0.081002
     0.108293    0.138155    0.143139    0.158099    0.159818    0.160199
     0.186173    0.241608    0.253874    0.262780    0.268621    0.283768
     0.296013    0.348047    0.349350    0.349411    0.349685    0.354481
     0.354666    0.504216    0.658429

 Minimum Search - Taking Simple RFO Step
 Searching for Lamda that Minimizes Along All modes
 Value Taken    Lamda =  -0.00000357
 Step Taken.  Stepsize is  0.012165

                             Maximum     Tolerance    Cnvgd?
         Gradient           0.000167      0.000300     YES
         Displacement       0.005495      0.001200      NO
         Energy change     -0.000001      0.000001      NO


 New Cartesian Coordinates Obtained by Inverse Iteration

 Displacement from previous Coordinates is:  0.009781
 ----------------------------------------------------------------
             Standard Nuclear Orientation (Angstroms)
    I     Atom           X                Y                Z
 ----------------------------------------------------------------
    1      C       1.1254614089     0.1923099500     0.4746329353
    2      C       0.8532895201    -0.9764302793    -0.4853327225
    3      C      -0.4701588318    -0.9914837072    -0.7119791868
    4      C      -1.0729876176     0.1686434299     0.1055940599
    5      C      -0.4269130075     1.4512970773    -0.4567813395
    6      N       0.8340279597     1.4890430820    -0.2652116020
    7      H       2.1008230285     0.2165677510     0.9583634602
    8      H       1.6120801941    -1.6268951794    -0.9062111612
    9      H      -1.0343912315    -1.6501064214    -1.3632825942
   10      H      -2.1539136652     0.1676205159     0.2463051156
   11      H      -0.9626827203     2.2400337111    -0.9822922284
   12      C      -0.1379258454     0.0440752471     1.3129889951
   13      H      -0.2667091923    -0.7246751770     2.0732062685
 ----------------------------------------------------------------
 Nuclear Repulsion Energy =   279.1199213122 hartrees
 There are       25 alpha and       24 beta electrons
 Applying Cartesian multipole field
    Component          Value
    ---------          -----
     (2,0,0)        1.00000E-11
     (0,2,0)        2.00000E-11
     (0,0,2)       -3.00000E-11
 Nucleus-field energy     =     0.0000000022 hartrees
 Requested basis set is 6-31G(d)
 There are 40 shells and 117 basis functions
 A cutoff of  1.0D-14 yielded    814 shell pairs
 There are      7086 function pairs
 Smallest overlap matrix eigenvalue = 1.11E-03
 Guess MOs from SCF MO coefficient file
 Reading MOs from coefficient file
 Mixing HOMO and LUMO in initial guess
 Adding  50% of the LUMO to the HOMO
 Reading MOs from coefficient file
 An unrestricted hybrid HF-DFT SCF calculation will be
 performed using Pulay DIIS extrapolation
 Exchange:     0.2000 Hartree-Fock + 0.0800 Slater + 0.7200 B88
 Correlation:  0.1900 VWN1RPA + 0.8100 LYP
 Using SG-1 standard quadrature grid
 SCF converges when DIIS error is below 1.0E-08
 Geometry optimization detected.  Setting ReadMinima to 0
 Setting SaveMinima to 0
 using 4 threads for integral computing
 -------------------------------------------------------
 OpenMP Integral computing Module                
 Release: version 1.0, May 2013, Q-Chem Inc. Pittsburgh 
 -------------------------------------------------------
 -------------------------------------------------------
 OpenMP BLAS3 based DFT computing Module                
 Release: version 1.0, May 2013, Q-Chem Inc. Pittsburgh 
 -------------------------------------------------------
 ---------------------------------------
  Cycle       Energy         DIIS Error
 ---------------------------------------
    1    -286.8204312247      1.81E-03
    2    -286.8199226496      4.09E-03
    3    -286.8491376759      8.19E-04
    4    -286.8508487904      4.73E-04
    5    -286.8514853280      9.32E-05
    6    -286.8515837394      9.58E-05
    7    -286.8516208201      2.53E-05
    8    -286.8516426383      1.06E-05
    9    -286.8516510256      3.26E-06
   10    -286.8516571173      1.76E-06
   11    -286.8516595651      1.12E-06
   12    -286.8516604032      5.94E-07
   13    -286.8516605592      1.46E-07
   14    -286.8516605611      5.43E-08
   15    -286.8516605611      1.51E-08
   16    -286.8516605611      4.03E-09 Convergence criterion met
 ---------------------------------------
 <S^2> = 0.7537
 SCF time:  CPU 38.77 s  wall 10.26 s
 SCF   energy in the final basis set = -286.85166056
 Total energy in the final basis set = -286.85166056
 
 --------------------------------------------------------------
 
                    Orbital Energies (a.u.)
 --------------------------------------------------------------
 
 Alpha MOs
 -- Occupied --
-14.322 -10.224 -10.220 -10.210 -10.204 -10.201 -10.197  -0.952
 -0.821  -0.726  -0.705  -0.579  -0.573  -0.531  -0.512  -0.472
 -0.418  -0.410  -0.381  -0.373  -0.348  -0.294  -0.271  -0.258
 -0.196
 -- Virtual --
 -0.021   0.029   0.103   0.140   0.150   0.154   0.159   0.163
  0.173   0.210   0.215   0.255   0.288   0.322   0.346   0.366
  0.495   0.510   0.532   0.540   0.570   0.599   0.606   0.622
  0.635   0.641   0.655   0.689   0.700   0.728   0.779   0.791
  0.799   0.817   0.825   0.846   0.858   0.876   0.891   0.940
  0.965   1.005   1.059   1.092   1.201   1.264   1.334   1.339
  1.396   1.406   1.487   1.510   1.563   1.611   1.659   1.725
  1.784   1.796   1.827   1.892   1.954   1.986   2.000   2.048
  2.097   2.138   2.172   2.208   2.235   2.276   2.315   2.335
  2.425   2.476   2.515   2.532   2.548   2.618   2.629   2.645
  2.722   2.835   2.856   2.905   2.939   3.922   4.187   4.267
  4.279   4.396   4.543   4.678
 
 Beta MOs
 -- Occupied --
-14.321 -10.224 -10.221 -10.210 -10.200 -10.196 -10.190  -0.949
 -0.815  -0.725  -0.690  -0.577  -0.561  -0.527  -0.509  -0.463
 -0.414  -0.406  -0.379  -0.369  -0.342  -0.287  -0.261  -0.255
 -- Virtual --
 -0.045  -0.016   0.031   0.105   0.143   0.153   0.158   0.160
  0.166   0.176   0.216   0.223   0.267   0.290   0.324   0.349
  0.369   0.497   0.529   0.540   0.544   0.577   0.604   0.611
  0.624   0.641   0.658   0.662   0.693   0.708   0.742   0.782
  0.793   0.810   0.819   0.827   0.848   0.860   0.879   0.894
  0.942   0.973   1.013   1.060   1.099   1.204   1.265   1.338
  1.345   1.400   1.411   1.489   1.513   1.578   1.619   1.665
  1.729   1.793   1.799   1.837   1.910   1.966   1.998   2.003
  2.054   2.119   2.144   2.179   2.224   2.249   2.281   2.318
  2.339   2.428   2.493   2.517   2.542   2.553   2.630   2.636
  2.648   2.729   2.837   2.859   2.906   2.942   3.923   4.190
  4.269   4.306   4.399   4.549   4.679
 --------------------------------------------------------------
 
          Ground-State Mulliken Net Atomic Charges

     Atom                 Charge (a.u.)    Spin (a.u.)
  --------------------------------------------------------
      1 C                    -0.094647      -0.045004
      2 C                    -0.087985       0.040436
      3 C                    -0.095745       0.079262
      4 C                    -0.246172      -0.043934
      5 C                     0.092220      -0.008708
      6 N                    -0.325093       0.021810
      7 H                     0.139753       0.003019
      8 H                     0.146083       0.000862
      9 H                     0.145530       0.000343
     10 H                     0.133916       0.002862
     11 H                     0.149660      -0.000178
     12 C                    -0.096401       0.975771
     13 H                     0.138880      -0.026543
  --------------------------------------------------------
  Sum of atomic charges =     0.000000
  Sum of spin   charges =     1.000000

 -----------------------------------------------------------------
                    Cartesian Multipole Moments
 -----------------------------------------------------------------
    Charge (ESU x 10^10)
                 0.0000
    Dipole Moment (Debye)
         X      -1.4504      Y      -1.8766      Z      -0.1322
       Tot       2.3754
    Quadrupole Moments (Debye-Ang)
        XX     -38.2768     XY      -4.0448     YY     -42.6474
        XZ       1.9366     YZ       0.1929     ZZ     -40.5571
    Octopole Moments (Debye-Ang^2)
       XXX     -10.4782    XXY     -11.1566    XYY     -11.1677
       YYY     -24.4114    XXZ       0.6050    XYZ       3.0036
       YYZ      -3.7353    XZZ      -4.1445    YZZ     -10.0156
       ZZZ       0.1014
    Hexadecapole Moments (Debye-Ang^3)
      XXXX    -217.4277   XXXY      -7.5348   XXYY     -88.1454
      XYYY     -18.1542   YYYY    -294.5729   XXXZ      -2.0687
      XXYZ       2.9108   XYYZ       3.4047   YYYZ      -3.8790
      XXZZ     -65.1726   XYZZ      -0.2004   YYZZ     -72.2487
      XZZZ      -2.8135   YZZZ      -9.1460   ZZZZ    -174.9859
 -----------------------------------------------------------------
 Calculating analytic gradient of the SCF energy
 Gradient of SCF Energy
            1           2           3           4           5           6
    1  -0.0001296  -0.0000677   0.0000853   0.0000592   0.0001599  -0.0000788
    2  -0.0000648   0.0000969   0.0000109   0.0000137  -0.0001486   0.0001452
    3   0.0000396  -0.0001206   0.0000299   0.0000569  -0.0002114   0.0000198
            7           8           9          10          11          12
    1  -0.0000147  -0.0000010   0.0000051   0.0000157   0.0000074  -0.0000215
    2  -0.0000155  -0.0000070  -0.0000149  -0.0000135   0.0000410  -0.0000361
    3   0.0000188  -0.0000006  -0.0000066   0.0000144   0.0000745   0.0000921
           13
    1  -0.0000193
    2  -0.0000073
    3  -0.0000067
 Max gradient component =       2.114E-04
 RMS gradient           =       7.270E-05
 Gradient time:  CPU 7.58 s  wall 2.02 s
 Geometry Optimization Parameters
   NAtoms,    NIC,     NZ,  NCons,   NDum,   NFix, NCnnct, MaxDiis
       13     104       0       0       0       0       0       0

 Cartesian Hessian Update
 Hessian Updated using BFGS Update


** GEOMETRY OPTIMIZATION IN DELOCALIZED INTERNAL COORDINATES **
   Searching for a Minimum

   Optimization Cycle:   3

                       Coordinates (Angstroms)
     ATOM                X               Y               Z
      1  C         1.1254614089    0.1923099500    0.4746329353
      2  C         0.8532895201   -0.9764302793   -0.4853327225
      3  C        -0.4701588318   -0.9914837072   -0.7119791868
      4  C        -1.0729876176    0.1686434299    0.1055940599
      5  C        -0.4269130075    1.4512970773   -0.4567813395
      6  N         0.8340279597    1.4890430820   -0.2652116020
      7  H         2.1008230285    0.2165677510    0.9583634602
      8  H         1.6120801941   -1.6268951794   -0.9062111612
      9  H        -1.0343912315   -1.6501064214   -1.3632825942
     10  H        -2.1539136652    0.1676205159    0.2463051156
     11  H        -0.9626827203    2.2400337111   -0.9822922284
     12  C        -0.1379258454    0.0440752471    1.3129889951
     13  H        -0.2667091923   -0.7246751770    2.0732062685
   Point Group: c1    Number of degrees of freedom:    33


   Energy is   -286.851660561

 Hessian Updated using BFGS Update

 33 Hessian modes will be used to form the next step
  Hessian Eigenvalues:
     0.009957    0.010553    0.014548    0.016618    0.021460    0.030506
     0.046512    0.050345    0.055665    0.063128    0.065798    0.080835
     0.107386    0.128550    0.141844    0.158391    0.159843    0.159858
     0.186485    0.242437    0.253821    0.262890    0.267509    0.283412
     0.293024    0.347964    0.349268    0.349420    0.349592    0.354481
     0.354648    0.502716    0.656481

 Minimum Search - Taking Simple RFO Step
 Searching for Lamda that Minimizes Along All modes
 Value Taken    Lamda =  -0.00000116
 Step Taken.  Stepsize is  0.007354

                             Maximum     Tolerance    Cnvgd?
         Gradient           0.000100      0.000300     YES
         Displacement       0.003697      0.001200      NO
         Energy change     -0.000001      0.000001      NO


 New Cartesian Coordinates Obtained by Inverse Iteration

 Displacement from previous Coordinates is:  0.004132
 ----------------------------------------------------------------
             Standard Nuclear Orientation (Angstroms)
    I     Atom           X                Y                Z
 ----------------------------------------------------------------
    1      C       1.1257323313     0.1922337865     0.4746690282
    2      C       0.8532525452    -0.9767880533    -0.4848430126
    3      C      -0.4702377696    -0.9912679892    -0.7120302100
    4      C      -1.0731964535     0.1687161117     0.1057264456
    5      C      -0.4272635210     1.4517249684    -0.4558123407
    6      N       0.8339223034     1.4888177379    -0.2651137969
    7      H       2.1011704198     0.2168050138     0.9582537018
    8      H       1.6120288300    -1.6270792997    -0.9059998495
    9      H      -1.0344162253    -1.6493470802    -1.3639010419
   10      H      -2.1541597964     0.1675314014     0.2463372013
   11      H      -0.9627146293     2.2393822215    -0.9832903073
   12      C      -0.1377420172     0.0440018324     1.3128677990
   13      H      -0.2663760177    -0.7247306512     2.0731363830
 ----------------------------------------------------------------
 Nuclear Repulsion Energy =   279.1165126541 hartrees
 There are       25 alpha and       24 beta electrons
 Applying Cartesian multipole field
    Component          Value
    ---------          -----
     (2,0,0)        1.00000E-11
     (0,2,0)        2.00000E-11
     (0,0,2)       -3.00000E-11
 Nucleus-field energy     =     0.0000000022 hartrees
 Requested basis set is 6-31G(d)
 There are 40 shells and 117 basis functions
 A cutoff of  1.0D-14 yielded    814 shell pairs
 There are      7086 function pairs
 Smallest overlap matrix eigenvalue = 1.11E-03
 Guess MOs from SCF MO coefficient file
 Reading MOs from coefficient file
 Mixing HOMO and LUMO in initial guess
 Adding  50% of the LUMO to the HOMO
 Reading MOs from coefficient file
 An unrestricted hybrid HF-DFT SCF calculation will be
 performed using Pulay DIIS extrapolation
 Exchange:     0.2000 Hartree-Fock + 0.0800 Slater + 0.7200 B88
 Correlation:  0.1900 VWN1RPA + 0.8100 LYP
 Using SG-1 standard quadrature grid
 SCF converges when DIIS error is below 1.0E-08
 Geometry optimization detected.  Setting ReadMinima to 0
 Setting SaveMinima to 0
 using 4 threads for integral computing
 -------------------------------------------------------
 OpenMP Integral computing Module                
 Release: version 1.0, May 2013, Q-Chem Inc. Pittsburgh 
 -------------------------------------------------------
 -------------------------------------------------------
 OpenMP BLAS3 based DFT computing Module                
 Release: version 1.0, May 2013, Q-Chem Inc. Pittsburgh 
 -------------------------------------------------------
 ---------------------------------------
  Cycle       Energy         DIIS Error
 ---------------------------------------
    1    -286.8205277530      1.81E-03
    2    -286.8200967924      4.08E-03
    3    -286.8491503255      8.17E-04
    4    -286.8508495242      4.73E-04
    5    -286.8514864722      9.36E-05
    6    -286.8515840729      9.65E-05
    7    -286.8516213745      2.52E-05
    8    -286.8516430591      1.06E-05
    9    -286.8516514064      3.25E-06
   10    -286.8516574586      1.76E-06
   11    -286.8516599003      1.12E-06
   12    -286.8516607385      5.99E-07
   13    -286.8516608951      1.46E-07
   14    -286.8516608971      5.40E-08
   15    -286.8516608971      1.53E-08
   16    -286.8516608971      4.00E-09 Convergence criterion met
 ---------------------------------------
 <S^2> = 0.7537
 SCF time:  CPU 38.19 s  wall 10.15 s
 SCF   energy in the final basis set = -286.85166090
 Total energy in the final basis set = -286.85166090
 
 --------------------------------------------------------------
 
                    Orbital Energies (a.u.)
 --------------------------------------------------------------
 
 Alpha MOs
 -- Occupied --
-14.322 -10.224 -10.220 -10.210 -10.204 -10.201 -10.197  -0.952
 -0.821  -0.726  -0.705  -0.579  -0.573  -0.531  -0.512  -0.472
 -0.418  -0.410  -0.381  -0.373  -0.348  -0.294  -0.271  -0.258
 -0.196
 -- Virtual --
 -0.021   0.029   0.103   0.140   0.150   0.154   0.159   0.163
  0.172   0.210   0.215   0.255   0.288   0.322   0.346   0.366
  0.495   0.510   0.532   0.540   0.570   0.599   0.606   0.622
  0.635   0.641   0.655   0.690   0.700   0.729   0.779   0.791
  0.799   0.817   0.825   0.846   0.858   0.876   0.891   0.940
  0.965   1.005   1.059   1.092   1.201   1.264   1.334   1.339
  1.396   1.406   1.487   1.510   1.563   1.611   1.659   1.725
  1.784   1.796   1.827   1.892   1.954   1.986   2.000   2.049
  2.097   2.138   2.172   2.208   2.235   2.276   2.315   2.335
  2.425   2.476   2.515   2.532   2.548   2.618   2.629   2.645
  2.722   2.835   2.856   2.904   2.939   3.922   4.187   4.267
  4.279   4.396   4.543   4.678
 
 Beta MOs
 -- Occupied --
-14.321 -10.224 -10.221 -10.210 -10.200 -10.196 -10.190  -0.949
 -0.815  -0.725  -0.690  -0.577  -0.561  -0.527  -0.509  -0.463
 -0.414  -0.406  -0.379  -0.369  -0.342  -0.287  -0.261  -0.255
 -- Virtual --
 -0.045  -0.016   0.031   0.105   0.143   0.153   0.158   0.160
  0.166   0.176   0.216   0.223   0.267   0.290   0.324   0.349
  0.369   0.497   0.529   0.540   0.544   0.577   0.604   0.611
  0.624   0.641   0.658   0.662   0.693   0.708   0.742   0.782
  0.793   0.810   0.819   0.827   0.848   0.860   0.879   0.894
  0.942   0.973   1.013   1.060   1.099   1.204   1.265   1.338
  1.345   1.401   1.411   1.489   1.513   1.578   1.619   1.665
  1.728   1.793   1.799   1.837   1.910   1.966   1.999   2.003
  2.054   2.119   2.144   2.178   2.224   2.249   2.281   2.318
  2.339   2.428   2.493   2.517   2.542   2.553   2.630   2.636
  2.648   2.729   2.837   2.859   2.906   2.942   3.923   4.190
  4.269   4.307   4.399   4.549   4.679
 --------------------------------------------------------------
 
          Ground-State Mulliken Net Atomic Charges

     Atom                 Charge (a.u.)    Spin (a.u.)
  --------------------------------------------------------
      1 C                    -0.094524      -0.045009
      2 C                    -0.088038       0.040282
      3 C                    -0.095735       0.079373
      4 C                    -0.246153      -0.043933
      5 C                     0.092239      -0.008776
      6 N                    -0.325142       0.021911
      7 H                     0.139802       0.003023
      8 H                     0.146096       0.000886
      9 H                     0.145540       0.000347
     10 H                     0.133942       0.002862
     11 H                     0.149665      -0.000175
     12 C                    -0.096527       0.975758
     13 H                     0.138834      -0.026549
  --------------------------------------------------------
  Sum of atomic charges =    -0.000000
  Sum of spin   charges =     1.000000

 -----------------------------------------------------------------
                    Cartesian Multipole Moments
 -----------------------------------------------------------------
    Charge (ESU x 10^10)
                -0.0000
    Dipole Moment (Debye)
         X      -1.4499      Y      -1.8760      Z      -0.1335
       Tot       2.3748
    Quadrupole Moments (Debye-Ang)
        XX     -38.2733     XY      -4.0447     YY     -42.6507
        XZ       1.9395     YZ       0.1930     ZZ     -40.5567
    Octopole Moments (Debye-Ang^2)
       XXX     -10.4704    XXY     -11.1542    XYY     -11.1599
       YYY     -24.4113    XXZ       0.5974    XYZ       3.0055
       YYZ      -3.7433    XZZ      -4.1455    YZZ     -10.0125
       ZZZ       0.0696
    Hexadecapole Moments (Debye-Ang^3)
      XXXX    -217.4456   XXXY      -7.5081   XXYY     -88.1564
      XYYY     -18.1231   YYYY    -294.6166   XXXZ      -2.0765
      XXYZ       2.9078   XYYZ       3.4023   YYYZ      -3.8938
      XXZZ     -65.1698   XYZZ      -0.1973   YYZZ     -72.2379
      XZZZ      -2.8203   YZZZ      -9.1573   ZZZZ    -174.9482
 -----------------------------------------------------------------
 Calculating analytic gradient of the SCF energy
 Gradient of SCF Energy
            1           2           3           4           5           6
    1   0.0000626   0.0000326  -0.0000274  -0.0000537  -0.0000269  -0.0000130
    2  -0.0000866  -0.0000024  -0.0000111   0.0000015   0.0000592   0.0000227
    3   0.0000283   0.0000218   0.0000057  -0.0000171   0.0000943   0.0000367
            7           8           9          10          11          12
    1   0.0000092   0.0000069   0.0000067  -0.0000119   0.0000001   0.0000230
    2   0.0000070   0.0000166   0.0000132  -0.0000058  -0.0000235   0.0000160
    3   0.0000077  -0.0000079  -0.0000151  -0.0000217  -0.0000429  -0.0000830
           13
    1  -0.0000082
    2  -0.0000067
    3  -0.0000068
 Max gradient component =       9.428E-05
 RMS gradient           =       3.393E-05
 Gradient time:  CPU 7.82 s  wall 2.03 s
 Geometry Optimization Parameters
   NAtoms,    NIC,     NZ,  NCons,   NDum,   NFix, NCnnct, MaxDiis
       13     104       0       0       0       0       0       0

 Cartesian Hessian Update
 Hessian Updated using BFGS Update


** GEOMETRY OPTIMIZATION IN DELOCALIZED INTERNAL COORDINATES **
   Searching for a Minimum

   Optimization Cycle:   4

                       Coordinates (Angstroms)
     ATOM                X               Y               Z
      1  C         1.1257323313    0.1922337865    0.4746690282
      2  C         0.8532525452   -0.9767880533   -0.4848430126
      3  C        -0.4702377696   -0.9912679892   -0.7120302100
      4  C        -1.0731964535    0.1687161117    0.1057264456
      5  C        -0.4272635210    1.4517249684   -0.4558123407
      6  N         0.8339223034    1.4888177379   -0.2651137969
      7  H         2.1011704198    0.2168050138    0.9582537018
      8  H         1.6120288300   -1.6270792997   -0.9059998495
      9  H        -1.0344162253   -1.6493470802   -1.3639010419
     10  H        -2.1541597964    0.1675314014    0.2463372013
     11  H        -0.9627146293    2.2393822215   -0.9832903073
     12  C        -0.1377420172    0.0440018324    1.3128677990
     13  H        -0.2663760177   -0.7247306512    2.0731363830
   Point Group: c1    Number of degrees of freedom:    33


   Energy is   -286.851660897

 Hessian Updated using BFGS Update

 33 Hessian modes will be used to form the next step
  Hessian Eigenvalues:
     0.010524    0.012879    0.014919    0.016591    0.021306    0.028800
     0.046830    0.048525    0.055523    0.063106    0.065984    0.081009
     0.109736    0.141041    0.145692    0.159239    0.159810    0.159984
     0.187656    0.245017    0.254164    0.262809    0.267178    0.282289
     0.291326    0.348083    0.349398    0.349439    0.349692    0.354495
     0.354664    0.507185    0.658223

 Minimum Search - Taking Simple RFO Step
 Searching for Lamda that Minimizes Along All modes
 Value Taken    Lamda =   0.00000000
 Step Taken.  Stepsize is  0.003177

                             Maximum     Tolerance    Cnvgd?
         Gradient           0.000055      0.000300     YES
         Displacement       0.001327      0.001200      NO
         Energy change     -0.000000      0.000001     YES


                       Distance Matrix (Angstroms)
             C (  1)   C (  2)   C (  3)   C (  4)   C (  5)   N (  6)
   C (  2)  1.536724
   C (  3)  2.314315  1.342926
   C (  4)  2.229789  2.317792  1.542027
   C (  5)  2.205427  2.745585  2.456768  1.542293
   N (  6)  1.521040  2.475453  2.837498  2.348892  1.276061
   H (  7)  1.089008  2.250443  3.295668  3.287206  3.149220  2.172685
   H (  8)  2.335087  1.084432  2.185798  3.385101  3.720271  3.274904
   H (  9)  3.382011  2.188235  1.084574  2.338090  3.287842  3.813935
   H ( 10)  3.287923  3.299791  2.257627  1.090071  2.263700  3.306965
   H ( 11)  3.267732  3.726921  3.279210  2.342183  1.088735  2.075338
   C ( 12)  1.523456  2.292563  2.298380  1.532259  2.278977  2.349819
   H ( 13)  2.309521  2.803633  2.805308  2.306493  3.340423  3.402626
             H (  7)   H (  8)   H (  9)   H ( 10)   H ( 11)   C ( 12)
   H (  8)  2.667323
   H (  9)  4.325139  2.685859
   H ( 10)  4.314752  4.328127  2.673526
   H ( 11)  4.153047  4.645945  3.907969  2.687767
   C ( 12)  2.273399  3.282923  3.291891  2.284445  3.282166
   H ( 13)  2.781138  3.635642  3.641157  2.774357  4.314232  1.088809

 
 Final energy is   -286.851660897118     


 ******************************
 **  OPTIMIZATION CONVERGED  **
 ******************************

                       Coordinates (Angstroms)
     ATOM                X               Y               Z
      1  C         1.1257323313    0.1922337865    0.4746690282
      2  C         0.8532525452   -0.9767880533   -0.4848430126
      3  C        -0.4702377696   -0.9912679892   -0.7120302100
      4  C        -1.0731964535    0.1687161117    0.1057264456
      5  C        -0.4272635210    1.4517249684   -0.4558123407
      6  N         0.8339223034    1.4888177379   -0.2651137969
      7  H         2.1011704198    0.2168050138    0.9582537018
      8  H         1.6120288300   -1.6270792997   -0.9059998495
      9  H        -1.0344162253   -1.6493470802   -1.3639010419
     10  H        -2.1541597964    0.1675314014    0.2463372013
     11  H        -0.9627146293    2.2393822215   -0.9832903073
     12  C        -0.1377420172    0.0440018324    1.3128677990
     13  H        -0.2663760177   -0.7247306512    2.0731363830

Z-matrix Print:
$molecule
0 2
N 
C  1 1.276061
H  2 1.088735 1 122.510259
C  1 1.521040 2 103.740105 3 -179.003122 0
H  4 1.089008 1 111.628328 2 -163.264134 0
C  4 1.523456 1 101.036177 2 -34.498346 0
H  6 1.088809 4 123.425723 1 -173.161163 0
C  6 1.532259 4 93.723907 1 53.535053 0
H  8 1.090071 6 120.244754 4 -176.881229 0
C  4 1.536724 1 108.105451 2 66.748667 0
H  10 1.084432 4 125.071756 1 110.934815 0
C  10 1.342926 4 106.772849 1 -67.255731 0
H  12 1.084574 10 128.380270 4 177.644808 0
$end

 
 --------------------------------------------------------------
 
                    Orbital Energies (a.u.)
 --------------------------------------------------------------
 
 Alpha MOs
 -- Occupied --
-14.322 -10.224 -10.220 -10.210 -10.204 -10.201 -10.197  -0.952
 -0.821  -0.726  -0.705  -0.579  -0.573  -0.531  -0.512  -0.472
 -0.418  -0.410  -0.381  -0.373  -0.348  -0.294  -0.271  -0.258
 -0.196
 -- Virtual --
 -0.021   0.029   0.103   0.140   0.150   0.154   0.159   0.163
  0.172   0.210   0.215   0.255   0.288   0.322   0.346   0.366
  0.495   0.510   0.532   0.540   0.570   0.599   0.606   0.622
  0.635   0.641   0.655   0.690   0.700   0.729   0.779   0.791
  0.799   0.817   0.825   0.846   0.858   0.876   0.891   0.940
  0.965   1.005   1.059   1.092   1.201   1.264   1.334   1.339
  1.396   1.406   1.487   1.510   1.563   1.611   1.659   1.725
  1.784   1.796   1.827   1.892   1.954   1.986   2.000   2.049
  2.097   2.138   2.172   2.208   2.235   2.276   2.315   2.335
  2.425   2.476   2.515   2.532   2.548   2.618   2.629   2.645
  2.722   2.835   2.856   2.904   2.939   3.922   4.187   4.267
  4.279   4.396   4.543   4.678
 
 Beta MOs
 -- Occupied --
-14.321 -10.224 -10.221 -10.210 -10.200 -10.196 -10.190  -0.949
 -0.815  -0.725  -0.690  -0.577  -0.561  -0.527  -0.509  -0.463
 -0.414  -0.406  -0.379  -0.369  -0.342  -0.287  -0.261  -0.255
 -- Virtual --
 -0.045  -0.016   0.031   0.105   0.143   0.153   0.158   0.160
  0.166   0.176   0.216   0.223   0.267   0.290   0.324   0.349
  0.369   0.497   0.529   0.540   0.544   0.577   0.604   0.611
  0.624   0.641   0.658   0.662   0.693   0.708   0.742   0.782
  0.793   0.810   0.819   0.827   0.848   0.860   0.879   0.894
  0.942   0.973   1.013   1.060   1.099   1.204   1.265   1.338
  1.345   1.401   1.411   1.489   1.513   1.578   1.619   1.665
  1.728   1.793   1.799   1.837   1.910   1.966   1.999   2.003
  2.054   2.119   2.144   2.178   2.224   2.249   2.281   2.318
  2.339   2.428   2.493   2.517   2.542   2.553   2.630   2.636
  2.648   2.729   2.837   2.859   2.906   2.942   3.923   4.190
  4.269   4.307   4.399   4.549   4.679
 --------------------------------------------------------------
 
          Ground-State Mulliken Net Atomic Charges

     Atom                 Charge (a.u.)    Spin (a.u.)
  --------------------------------------------------------
      1 C                    -0.094524      -0.045009
      2 C                    -0.088038       0.040282
      3 C                    -0.095735       0.079373
      4 C                    -0.246153      -0.043933
      5 C                     0.092239      -0.008776
      6 N                    -0.325142       0.021911
      7 H                     0.139802       0.003023
      8 H                     0.146096       0.000886
      9 H                     0.145540       0.000347
     10 H                     0.133942       0.002862
     11 H                     0.149665      -0.000175
     12 C                    -0.096527       0.975758
     13 H                     0.138834      -0.026549
  --------------------------------------------------------
  Sum of atomic charges =    -0.000000
  Sum of spin   charges =     1.000000

 -----------------------------------------------------------------
                    Cartesian Multipole Moments
 -----------------------------------------------------------------
    Charge (ESU x 10^10)
                -0.0000
    Dipole Moment (Debye)
         X      -1.4499      Y      -1.8760      Z      -0.1335
       Tot       2.3748
    Quadrupole Moments (Debye-Ang)
        XX     -38.2733     XY      -4.0447     YY     -42.6507
        XZ       1.9395     YZ       0.1930     ZZ     -40.5567
    Octopole Moments (Debye-Ang^2)
       XXX     -10.4704    XXY     -11.1542    XYY     -11.1599
       YYY     -24.4113    XXZ       0.5974    XYZ       3.0055
       YYZ      -3.7433    XZZ      -4.1455    YZZ     -10.0125
       ZZZ       0.0696
    Hexadecapole Moments (Debye-Ang^3)
      XXXX    -217.4456   XXXY      -7.5081   XXYY     -88.1564
      XYYY     -18.1231   YYYY    -294.6166   XXXZ      -2.0765
      XXYZ       2.9078   XYYZ       3.4023   YYYZ      -3.8938
      XXZZ     -65.1698   XYZZ      -0.1973   YYZZ     -72.2379
      XZZZ      -2.8203   YZZZ      -9.1573   ZZZZ    -174.9482
 -----------------------------------------------------------------
Archival summary:
1\1\c8-73\OPT\ProcedureUnspecified\6-31G*\166(2)\hpark21\ThuMar321:30:392022ThuMar321:30:392022\0\\#,OPT,ProcedureUnspecified,6-31G*,\\0,2\N\C,1,1.27606\H,2,1.08874,1,122.51\C,1,1.52104,2,103.74,3,-179.003,0\H,4,1.08901,1,111.628,2,-163.264,0\C,4,1.52346,1,101.036,2,-34.4983,0\H,6,1.08881,4,123.426,1,-173.161,0\C,6,1.53226,4,93.7239,1,53.5351,0\H,8,1.09007,6,120.245,4,-176.881,0\C,4,1.53672,1,108.105,2,66.7487,0\H,10,1.08443,4,125.072,1,110.935,0\C,10,1.34293,4,106.773,1,-67.2557,0\H,12,1.08457,10,128.38,4,177.645,0\\\@

 Total job time:  53.95s(wall), 202.39s(cpu) 
 Thu Mar  3 21:30:39 2022

        *************************************************************
        *                                                           *
        *  Thank you very much for using Q-Chem.  Have a nice day.  *
        *                                                           *
        *************************************************************


