
Running Job 1 of 1 qcts1.in
qchem qcts1.in_8370.0 ./qcts1.d/ 1
/home/leeping/opt/qchem/5.0.2-openmp/exe/qcprog.exe_s qcts1.in_8370.0 ./qcts1.d/
Check license passed

                  Welcome to Q-Chem
     A Quantum Leap Into The Future Of Chemistry


 Q-Chem 5.0, Q-Chem, Inc., Pleasanton, CA (2017)

 Yihan Shao,  Zhengting Gan,  E. Epifanovsky,  A. T. B. Gilbert,  M. Wormit,  
 J. Kussmann,  A. W. Lange,  A. Behn,  Jia Deng,  Xintian Feng,  D. Ghosh,  
 M. Goldey,  P. R. Horn,  L. D. Jacobson,  I. Kaliman,  T. Kus,  A. Landau,  
 Jie Liu,  E. I. Proynov,  R. M. Richard,  R. P. Steele,  E. J. Sundstrom,  
 H. L. Woodcock III,  P. M. Zimmerman,  D. Zuev,  B. Albrecht,  E. Alguire,  
 S. A. Baeppler,  D. Barton,  Z. Benda,  Y. A. Bernard,  E. J. Berquist,  
 K. B. Bravaya,  H. Burton,  D. Casanova,  Chun-Min Chang,  Yunqing Chen,  
 A. Chien,  K. D. Closser,  M. P. Coons,  S. Dasgupta,  A. L. Dempwolff,  
 M. Diedenhofen,  Hainam Do,  R. G. Edgar,  Po-Tung Fang,  S. Fatehi,  
 Qingguo Feng,  J. Fosso-Tande,  Qinghui Ge,  A. Ghysels,  G. Gidofalvi,  
 J. Gomes,  J. Gonthier,  A. Gunina,  M. W. D. Hanson-Heine,  
 P. H. P. Harbach,  A. W. Hauser,  J. E. Herr,  E. G. Hohenstein,  
 Z. C. Holden,  Kerwin Hui,  T.-C. Jagau,  Hyunjun Ji,  B. Kaduk,  
 K. Khistyaev,  Jaehoon Kim,  P. Klunzinger,  K. Koh,  D. Kosenkov,  
 L. Koulias,  T. Kowalczyk,  C. M. Krauter,  A. Kunitsa,  Ka Un Lao,  
 A. Laurent,  K. V. Lawler,  Joonho Lee,  D. Lefrancois,  S. Lehtola,  
 D. S. Levine,  Yi-Pei Li,  You-Sheng Lin,  Fenglai Liu,  E. Livshits,  
 A. Luenser,  P. Manohar,  E. Mansoor,  S. F. Manzer,  Shan-Ping Mao,  
 Yuezhi Mao,  N. Mardirossian,  A. V. Marenich,  T. Markovich,  
 L. A. Martinez-Martinez,  S. A. Maurer,  N. J. Mayhall,  S. C. McKenzie,  
 J.-M. Mewes,  A. F. Morrison,  J. W. Mullinax,  K. Nanda,  
 T. S. Nguyen-Beck,  R. Olivares-Amaya,  J. A. Parkhill,  T. M. Perrine,  
 F. Plasser,  S. Prager,  A. Prociuk,  E. Ramos,  D. R. Rehn,  F. Rob,  
 M. Schneider,  N. Sergueev,  S. M. Sharada,  S. Sharma,  D. W. Small,  
 T. Stauch,  T. Stein,  Yu-Chuan Su,  A. J. W. Thom,  A. Tkatchenko,  
 T. Tsuchimochi,  L. Vogt,  O. Vydrov,  M. A. Watson,  J. Wenzel,  
 M. de Wergifosse,  T. A. Wesolowski,  A. White,  J. Witte,  A. Yamada,  
 Jun Yang,  K. Yao,  S. Yeganeh,  S. R. Yost,  Zhi-Qiang You,  A. Zech,  
 Igor Ying Zhang,  Xing Zhang,  Yan Zhao,  Ying Zhu,  B. R. Brooks,  
 G. K. L. Chan,  C. J. Cramer,  M. S. Gordon,  W. J. Hehre,  A. Klamt,  
 M. W. Schmidt,  C. D. Sherrill,  D. G. Truhlar,  A. Aspuru-Guzik,  R. Baer,  
 A. T. Bell,  N. A. Besley,  Jeng-Da Chai,  R. A. DiStasio Jr.,  A. Dreuw,  
 B. D. Dunietz,  T. R. Furlani,  Chao-Ping Hsu,  Yousung Jung,  Jing Kong,  
 D. S. Lambrecht,  WanZhen Liang,  C. Ochsenfeld,  V. A. Rassolov,  
 L. V. Slipchenko,  J. E. Subotnik,  T. Van Voorhis,  J. M. Herbert,  
 A. I. Krylov,  P. M. W. Gill,  M. Head-Gordon

 Contributors to earlier versions of Q-Chem not listed above: 
 R. D. Adamson,  B. Austin,  J. Baker,  G. J. O. Beran,  K. Brandhorst,  
 S. T. Brown,  E. F. C. Byrd,  A. K. Chakraborty,  C.-L. Cheng,  
 Siu Hung Chien,  D. M. Chipman,  D. L. Crittenden,  H. Dachsel,  
 R. J. Doerksen,  A. D. Dutoi,  L. Fusti-Molnar,  W. A. Goddard III,  
 A. Golubeva-Zadorozhnaya,  S. R. Gwaltney,  G. Hawkins,  A. Heyden,  
 S. Hirata,  G. Kedziora,  F. J. Keil,  C. Kelley,  Jihan Kim,  R. A. King,  
 R. Z. Khaliullin,  P. P. Korambath,  W. Kurlancheek,  A. M. Lee,  M. S. Lee,  
 S. V. Levchenko,  Ching Yeh Lin,  D. Liotard,  R. C. Lochan,  I. Lotan,  
 P. E. Maslen,  N. Nair,  D. P. O'Neill,  D. Neuhauser,  E. Neuscamman,  
 C. M. Oana,  R. Olson,  B. Peters,  R. Peverati,  P. A. Pieniazek,  
 Y. M. Rhee,  J. Ritchie,  M. A. Rohrdanz,  E. Rosta,  N. J. Russ,  
 H. F. Schaefer III,  N. E. Schultz,  N. Shenvi,  A. C. Simmonett,  A. Sodt,  
 D. Stuck,  K. S. Thanthiriwatte,  V. Vanovschi,  Tao Wang,  A. Warshel,  
 C. F. Williams,  Q. Wu,  X. Xu,  W. Zhang

 Please cite Q-Chem as follows:
 Y. Shao et al., Mol. Phys. 113, 184-215 (2015)
 DOI: 10.1080/00268976.2014.952696

 Q-Chem 5.0.2 for Intel X86 EM64T Linux

 Parts of Q-Chem use Armadillo 5.200.1 (Boston Tea Smuggler).
 http://arma.sourceforge.net/

 Q-Chem begins on Thu Mar  3 22:00:40 2022  

Host: 
0

     Scratch files written to ./qcts1.d//
 Dec517 15110_ 26548  26544 5633   
Processing $rem in /home/leeping/opt/qchem/5.0.2-openmp/config/preferences.
 MEM_STATIC 2000
 MEM_TOTAL  8000
 SYMMETRY   OFF
 SYM_IGNORE TRUE 

Checking the input file for inconsistencies... 	...done.

--------------------------------------------------------------
User input:
--------------------------------------------------------------
$molecule
0 2
C        1.1657286851    0.2823325485    0.4109159667
C        0.7820168291   -0.9898385484   -0.3434097259
C       -0.5225797753   -0.9189052605   -0.8518903628
C       -1.0786859918    0.1537348898    0.0824779620
C       -0.4735800285    1.4676314806   -0.4185685095
N        0.7994688986    1.5316783232   -0.2711771561
H        2.1478487845    0.2795429957    0.8771361095
H        1.5049176420   -1.7888230565   -0.4900001446
H       -1.0054035143   -1.4996246249   -1.6262397874
H       -2.1442177820    0.1344459790    0.3128756274
H       -1.0282359967    2.2313811441   -0.9614032227
C       -0.0262121504   -0.2091908390    1.1538323739
H       -0.1302629731   -0.6955169421    2.1135303963
$end

$rem
method                b3lyp
basis                 6-31g(d)
unrestricted          true
symmetry              off
sym_ignore            true
incdft                false
incfock               0
scf_convergence       6
thresh                14
jobtype               sp
scf_guess             read
scf_algorithm         diis
max_scf_cycles        100
stability_analysis    true
max_cis_cycles        100
cis_n_roots           4
$end

--------------------------------------------------------------
 ----------------------------------------------------------------
             Standard Nuclear Orientation (Angstroms)
    I     Atom           X                Y                Z
 ----------------------------------------------------------------
    1      C       1.1657286851     0.2823325485     0.4109159667
    2      C       0.7820168291    -0.9898385484    -0.3434097259
    3      C      -0.5225797753    -0.9189052605    -0.8518903628
    4      C      -1.0786859918     0.1537348898     0.0824779620
    5      C      -0.4735800285     1.4676314806    -0.4185685095
    6      N       0.7994688986     1.5316783232    -0.2711771561
    7      H       2.1478487845     0.2795429957     0.8771361095
    8      H       1.5049176420    -1.7888230565    -0.4900001446
    9      H      -1.0054035143    -1.4996246249    -1.6262397874
   10      H      -2.1442177820     0.1344459790     0.3128756274
   11      H      -1.0282359967     2.2313811441    -0.9614032227
   12      C      -0.0262121504    -0.2091908390     1.1538323739
   13      H      -0.1302629731    -0.6955169421     2.1135303963
 ----------------------------------------------------------------
 Nuclear Repulsion Energy =   281.0858320836 hartrees
 There are       25 alpha and       24 beta electrons
 Requested basis set is 6-31G(d)
 There are 40 shells and 117 basis functions

 Total QAlloc Memory Limit   8000 MB
 Mega-Array Size      1956 MB
 MEM_STATIC part      2000 MB

                       Distance Matrix (Angstroms)
             C (  1)   C (  2)   C (  3)   C (  4)   C (  5)   N (  6)
   C (  2)  1.527960
   C (  3)  2.426528  1.401983
   C (  4)  2.271961  2.225164  1.527369
   C (  5)  2.186392  2.760676  2.426052  1.530858
   N (  6)  1.469783  2.522612  2.844363  2.356112  1.283152
   H (  7)  1.087166  2.228578  3.399559  3.325332  3.156310  2.169008
   H (  8)  2.283941  1.087405  2.235725  3.282723  3.811043  3.401657
   H (  9)  3.469754  2.258408  1.081652  2.378799  3.247447  3.779227
   H ( 10)  3.314699  3.202745  2.257419  1.090327  2.259076  3.310388
   H ( 11)  3.239681  3.746357  3.192489  2.325693  1.088865  2.075211
   C ( 12)  1.488033  1.871999  2.184719  1.545062  2.341862  2.396461
   H ( 13)  2.352590  2.637316  2.999589  2.397063  3.347925  3.392879
             H (  7)   H (  8)   H (  9)   H ( 10)   H ( 11)   C ( 12)
   H (  8)  2.561359
   H (  9)  4.401742  2.770630
   H ( 10)  4.331429  4.202352  2.779794
   H ( 11)  4.156611  4.775053  3.789846  2.695615
   C ( 12)  2.245431  2.746230  3.217582  2.304613  3.381518
   H ( 13)  2.769333  3.263052  3.924072  2.826165  4.339159  1.080907

 
 A cutoff of  1.0D-14 yielded    813 shell pairs
 There are      7085 function pairs
 Smallest overlap matrix eigenvalue = 1.36E-03

 Scale SEOQF with 1.000000e-01/1.000000e-01/1.000000e-01

 Standard Electronic Orientation quadrupole field applied
 Nucleus-field energy     =     0.0000000025 hartrees
 Guess MOs from SCF MO coefficient file
 Reading MOs from coefficient file
 Reading MOs from coefficient file
 An unrestricted hybrid HF-DFT SCF calculation will be
 performed using Pulay DIIS extrapolation
 Exchange:     0.2000 Hartree-Fock + 0.0800 Slater + 0.7200 B88
 Correlation:  0.1900 VWN1RPA + 0.8100 LYP
 Using SG-1 standard quadrature grid
 SCF converges when DIIS error is below 1.0E-06
Using Q-Chem read-in guess as SCF_GUESS READ specified.

 -------------------------------------------------------
 OpenMP BLAS3 based DFT computing Module                
 -------------------------------------------------------
 ---------------------------------------
  Cycle       Energy         DIIS Error
 ---------------------------------------
    1    -286.8244737405      1.24E-09
    2    -286.8244737405      1.36E-09 Convergence criterion met
 ---------------------------------------
 <S^2> = 0.7806
 SCF time:  CPU 3.43 s  wall 3.78 s
 SCF   energy in the final basis set = -286.82447374
 Total energy in the final basis set = -286.82447374
 
 Direct TDDFT/TDA calculation will be performed
 Exchange:     0.2000 Hartree-Fock + 0.0800 Slater + 0.7200 B88
 Correlation:  0.1900 VWN1RPA + 0.8100 LYP
 Using SG-1 standard quadrature grid
 CIS energy converged when residual is below 10e- 6
 ---------------------------------------------------
 Iter    Rts Conv    Rts Left    Ttl Dev     Max Dev
 ---------------------------------------------------
   1         0           4      0.006227    0.002359
   2         0           4      0.001537    0.000494
   3         0           4      0.001136    0.000468
   4         0           4      0.000781    0.000457
   5         0           4      0.000373    0.000212
   6         0           4      0.000118    0.000067
   7         2           2      0.000029    0.000016
   8         2           2      0.000010    0.000005
   9         2           2      0.000004    0.000002
  10         4           0      0.000001    0.000000    Roots Converged
 ---------------------------------------------------
 
 ---------------------------------------------------
         TDDFT/TDA Excitation Energies              
 ---------------------------------------------------

 Excited state   1: excitation energy (eV) =    2.7829
 Total energy for state  1:                  -286.72220518 au
    <S**2>     :  0.7827
    Trans. Mom.: -0.0425 X   0.1581 Y  -0.3639 Z
    Strength   :     0.0108557111
    S(  1) --> V(  1) amplitude =  0.8146 alpha
    S(  1) --> V(  2) amplitude = -0.5038 alpha
    D( 24) --> S(  1) amplitude =  0.1946 beta

 Excited state   2: excitation energy (eV) =    3.0707
 Total energy for state  2:                  -286.71162852 au
    <S**2>     :  0.8071
    Trans. Mom.:  0.0141 X   0.4338 Y   0.0752 Z
    Strength   :     0.0145945914
    S(  1) --> V(  1) amplitude =  0.5477 alpha
    S(  1) --> V(  2) amplitude =  0.7908 alpha
    D( 24) --> S(  1) amplitude = -0.2220 beta

 Excited state   3: excitation energy (eV) =    4.4655
 Total energy for state  3:                  -286.66036979 au
    <S**2>     :  1.8390
    Trans. Mom.: -0.0835 X  -0.1625 Y   0.0404 Z
    Strength   :     0.0038306719
    D( 22) --> V(  1) amplitude =  0.1831 alpha
    D( 23) --> V(  1) amplitude = -0.3501 alpha
    D( 24) --> V(  1) amplitude =  0.1917 alpha
    D( 22) --> S(  1) amplitude =  0.2842 beta
    D( 22) --> V(  1) amplitude =  0.1662 beta
    D( 23) --> S(  1) amplitude =  0.6714 beta
    D( 23) --> V(  1) amplitude =  0.2418 beta
    D( 24) --> S(  1) amplitude = -0.2823 beta

 Excited state   4: excitation energy (eV) =    4.5337
 Total energy for state  4:                  -286.65786368 au
    <S**2>     :  1.5891
    Trans. Mom.:  0.0737 X   0.1857 Y   0.2268 Z
    Strength   :     0.0101506022
    D( 22) --> V(  1) amplitude =  0.1799 alpha
    D( 23) --> V(  1) amplitude = -0.2007 alpha
    D( 24) --> V(  1) amplitude = -0.1837 alpha
    S(  1) --> V(  2) amplitude =  0.1686 alpha
    D( 22) --> S(  1) amplitude =  0.4270 beta
    D( 22) --> V(  1) amplitude =  0.2168 beta
    D( 24) --> S(  1) amplitude =  0.7188 beta
    D( 24) --> V(  1) amplitude =  0.2419 beta
 
 ---------------------------------------------------

 Stability analysis will be performed
 ---------------------------------------------------
 Iter    Rts Conv    Rts Left    Ttl Dev     Max Dev
 ---------------------------------------------------
   1         0           8      0.006345    0.000929
   2         0           8      0.003116    0.001012
   3         0           8      0.001233    0.000398
   4         2           6      0.000642    0.000289
   5         2           6      0.000400    0.000250
   6         4           4      0.000157    0.000114
   7         4           4      0.000056    0.000041
   8         6           2      0.000017    0.000011
   9         7           1      0.000007    0.000003
  10         8           0      0.000005    0.000001    Roots Converged
 UKS-> UKS   stable,    smallest eigenvalue:      0.0864865
 UKS->CUKS   stable,    smallest eigenvalue:      0.1020429
 ---------------------------------------------------
  SETman timing summary (seconds)
  CPU time                80.51s
  System time              0.00s
  Wall time               81.13s
 
 --------------------------------------------------------------
 
                    Orbital Energies (a.u.)
 --------------------------------------------------------------
 
 Alpha MOs
 -- Occupied --
-14.314 -10.224 -10.218 -10.216 -10.212 -10.209 -10.193  -0.959
 -0.836  -0.739  -0.685  -0.590  -0.575  -0.538  -0.513  -0.461
 -0.433  -0.414  -0.398  -0.367  -0.345  -0.284  -0.271  -0.264
 -0.145
 -- Virtual --
  0.006   0.018   0.095   0.139   0.150   0.154   0.156   0.164
  0.171   0.206   0.221   0.277   0.289   0.305   0.354   0.378
  0.490   0.503   0.511   0.535   0.576   0.581   0.591   0.611
  0.634   0.655   0.668   0.687   0.698   0.743   0.768   0.799
  0.811   0.821   0.836   0.849   0.859   0.885   0.896   0.942
  0.975   1.020   1.059   1.119   1.165   1.205   1.307   1.356
  1.400   1.454   1.460   1.512   1.595   1.645   1.666   1.739
  1.758   1.815   1.857   1.891   1.940   1.963   2.028   2.052
  2.108   2.142   2.170   2.228   2.274   2.302   2.319   2.363
  2.413   2.472   2.523   2.549   2.582   2.626   2.647   2.683
  2.693   2.810   2.848   2.908   2.961   3.948   4.203   4.262
  4.313   4.419   4.533   4.617
 
 Beta MOs
 -- Occupied --
-14.313 -10.224 -10.219 -10.218 -10.210 -10.204 -10.184  -0.955
 -0.828  -0.735  -0.673  -0.586  -0.566  -0.531  -0.510  -0.453
 -0.429  -0.408  -0.396  -0.362  -0.340  -0.274  -0.261  -0.251
 -- Virtual --
 -0.035   0.019   0.034   0.098   0.146   0.152   0.157   0.161
  0.166   0.174   0.211   0.225   0.281   0.291   0.309   0.360
  0.380   0.496   0.510   0.516   0.549   0.577   0.587   0.598
  0.618   0.639   0.673   0.677   0.691   0.706   0.749   0.772
  0.801   0.813   0.824   0.837   0.852   0.865   0.888   0.900
  0.945   0.979   1.026   1.064   1.131   1.169   1.211   1.312
  1.362   1.402   1.459   1.465   1.519   1.605   1.650   1.676
  1.748   1.767   1.817   1.863   1.900   1.949   1.971   2.041
  2.060   2.113   2.152   2.174   2.239   2.282   2.308   2.335
  2.374   2.422   2.484   2.528   2.556   2.585   2.633   2.653
  2.690   2.699   2.815   2.851   2.909   2.963   3.950   4.213
  4.263   4.330   4.424   4.536   4.621
 --------------------------------------------------------------
 
          Ground-State Mulliken Net Atomic Charges

     Atom                 Charge (a.u.)    Spin (a.u.)
  --------------------------------------------------------
      1 C                    -0.028418       0.004203
      2 C                    -0.132041      -0.216264
      3 C                    -0.081639       0.664320
      4 C                    -0.258530      -0.069107
      5 C                     0.091848       0.008543
      6 N                    -0.338936       0.064257
      7 H                     0.146695       0.004278
      8 H                     0.147959       0.011856
      9 H                     0.141953      -0.026926
     10 H                     0.137559       0.010532
     11 H                     0.143630       0.001583
     12 C                    -0.128540       0.570546
     13 H                     0.158459      -0.027821
  --------------------------------------------------------
  Sum of atomic charges =    -0.000000
  Sum of spin   charges =     1.000000

 -----------------------------------------------------------------
                    Cartesian Multipole Moments
 -----------------------------------------------------------------
    Charge (ESU x 10^10)
                 0.0000
    Dipole Moment (Debye)
         X      -1.1853      Y      -1.9514      Z       0.6846
       Tot       2.3836
    Quadrupole Moments (Debye-Ang)
        XX     -38.2252     XY      -4.5740     YY     -43.2173
        XZ       2.0715     YZ       0.3891     ZZ     -39.5321
    Octopole Moments (Debye-Ang^2)
       XXX      -9.1067    XXY      -9.8578    XYY      -9.4924
       YYY     -24.8229    XXZ       2.9743    XYZ       2.4391
       YYZ      -1.5463    XZZ      -4.9990    YZZ      -9.6375
       ZZZ       6.8422
    Hexadecapole Moments (Debye-Ang^3)
      XXXX    -215.3967   XXXY      -7.7653   XXYY     -88.9412
      XYYY     -22.6727   YYYY    -302.8283   XXXZ      -8.9576
      XXYZ       3.5090   XYYZ       1.3202   YYYZ       2.2662
      XXZZ     -63.4281   XYZZ       0.0341   YYZZ     -71.3597
      XZZZ     -11.3136   YZZZ      -1.8984   ZZZZ    -153.6743
 -----------------------------------------------------------------
Archival summary:
1\1\c8-73\SP\ProcedureUnspecified\6-31G*\166(2)\hpark21\ThuMar322:02:052022ThuMar322:02:052022\0\\#,ProcedureUnspecified,6-31G*,\\0,2\N\C,1,1.28315\H,2,1.08886,1,121.846\C,1,1.46978,2,104.958,3,-175.652,0\H,4,1.08717,1,115.234,2,-162.915,0\C,4,1.48803,1,108.232,2,-24.5587,0\H,6,1.08091,4,131.99,1,-142.65,0\C,4,1.52796,1,114.585,2,58.8234,0\H,8,1.08741,4,120.755,1,131.217,0\C,8,1.40198,4,111.753,1,-44.9832,0\H,10,1.08165,8,130.38,4,161.878,0\C,10,1.52737,8,98.7696,4,-21.8825,0\H,12,1.09033,10,118.207,8,-150.734,0\\\@

 Total job time:  85.62s(wall), 84.11s(cpu) 
 Thu Mar  3 22:02:06 2022

        *************************************************************
        *                                                           *
        *  Thank you very much for using Q-Chem.  Have a nice day.  *
        *                                                           *
        *************************************************************


