
Running Job 1 of 1 qcts1.in
qchem qcts1.in_7781.0 ./qcts1.d/ 1
/home/leeping/opt/qchem/5.0.2-openmp/exe/qcprog.exe_s qcts1.in_7781.0 ./qcts1.d/
Check license passed

                  Welcome to Q-Chem
     A Quantum Leap Into The Future Of Chemistry


 Q-Chem 5.0, Q-Chem, Inc., Pleasanton, CA (2017)

 Yihan Shao,  Zhengting Gan,  E. Epifanovsky,  A. T. B. Gilbert,  M. Wormit,  
 J. Kussmann,  A. W. Lange,  A. Behn,  Jia Deng,  Xintian Feng,  D. Ghosh,  
 M. Goldey,  P. R. Horn,  L. D. Jacobson,  I. Kaliman,  T. Kus,  A. Landau,  
 Jie Liu,  E. I. Proynov,  R. M. Richard,  R. P. Steele,  E. J. Sundstrom,  
 H. L. Woodcock III,  P. M. Zimmerman,  D. Zuev,  B. Albrecht,  E. Alguire,  
 S. A. Baeppler,  D. Barton,  Z. Benda,  Y. A. Bernard,  E. J. Berquist,  
 K. B. Bravaya,  H. Burton,  D. Casanova,  Chun-Min Chang,  Yunqing Chen,  
 A. Chien,  K. D. Closser,  M. P. Coons,  S. Dasgupta,  A. L. Dempwolff,  
 M. Diedenhofen,  Hainam Do,  R. G. Edgar,  Po-Tung Fang,  S. Fatehi,  
 Qingguo Feng,  J. Fosso-Tande,  Qinghui Ge,  A. Ghysels,  G. Gidofalvi,  
 J. Gomes,  J. Gonthier,  A. Gunina,  M. W. D. Hanson-Heine,  
 P. H. P. Harbach,  A. W. Hauser,  J. E. Herr,  E. G. Hohenstein,  
 Z. C. Holden,  Kerwin Hui,  T.-C. Jagau,  Hyunjun Ji,  B. Kaduk,  
 K. Khistyaev,  Jaehoon Kim,  P. Klunzinger,  K. Koh,  D. Kosenkov,  
 L. Koulias,  T. Kowalczyk,  C. M. Krauter,  A. Kunitsa,  Ka Un Lao,  
 A. Laurent,  K. V. Lawler,  Joonho Lee,  D. Lefrancois,  S. Lehtola,  
 D. S. Levine,  Yi-Pei Li,  You-Sheng Lin,  Fenglai Liu,  E. Livshits,  
 A. Luenser,  P. Manohar,  E. Mansoor,  S. F. Manzer,  Shan-Ping Mao,  
 Yuezhi Mao,  N. Mardirossian,  A. V. Marenich,  T. Markovich,  
 L. A. Martinez-Martinez,  S. A. Maurer,  N. J. Mayhall,  S. C. McKenzie,  
 J.-M. Mewes,  A. F. Morrison,  J. W. Mullinax,  K. Nanda,  
 T. S. Nguyen-Beck,  R. Olivares-Amaya,  J. A. Parkhill,  T. M. Perrine,  
 F. Plasser,  S. Prager,  A. Prociuk,  E. Ramos,  D. R. Rehn,  F. Rob,  
 M. Schneider,  N. Sergueev,  S. M. Sharada,  S. Sharma,  D. W. Small,  
 T. Stauch,  T. Stein,  Yu-Chuan Su,  A. J. W. Thom,  A. Tkatchenko,  
 T. Tsuchimochi,  L. Vogt,  O. Vydrov,  M. A. Watson,  J. Wenzel,  
 M. de Wergifosse,  T. A. Wesolowski,  A. White,  J. Witte,  A. Yamada,  
 Jun Yang,  K. Yao,  S. Yeganeh,  S. R. Yost,  Zhi-Qiang You,  A. Zech,  
 Igor Ying Zhang,  Xing Zhang,  Yan Zhao,  Ying Zhu,  B. R. Brooks,  
 G. K. L. Chan,  C. J. Cramer,  M. S. Gordon,  W. J. Hehre,  A. Klamt,  
 M. W. Schmidt,  C. D. Sherrill,  D. G. Truhlar,  A. Aspuru-Guzik,  R. Baer,  
 A. T. Bell,  N. A. Besley,  Jeng-Da Chai,  R. A. DiStasio Jr.,  A. Dreuw,  
 B. D. Dunietz,  T. R. Furlani,  Chao-Ping Hsu,  Yousung Jung,  Jing Kong,  
 D. S. Lambrecht,  WanZhen Liang,  C. Ochsenfeld,  V. A. Rassolov,  
 L. V. Slipchenko,  J. E. Subotnik,  T. Van Voorhis,  J. M. Herbert,  
 A. I. Krylov,  P. M. W. Gill,  M. Head-Gordon

 Contributors to earlier versions of Q-Chem not listed above: 
 R. D. Adamson,  B. Austin,  J. Baker,  G. J. O. Beran,  K. Brandhorst,  
 S. T. Brown,  E. F. C. Byrd,  A. K. Chakraborty,  C.-L. Cheng,  
 Siu Hung Chien,  D. M. Chipman,  D. L. Crittenden,  H. Dachsel,  
 R. J. Doerksen,  A. D. Dutoi,  L. Fusti-Molnar,  W. A. Goddard III,  
 A. Golubeva-Zadorozhnaya,  S. R. Gwaltney,  G. Hawkins,  A. Heyden,  
 S. Hirata,  G. Kedziora,  F. J. Keil,  C. Kelley,  Jihan Kim,  R. A. King,  
 R. Z. Khaliullin,  P. P. Korambath,  W. Kurlancheek,  A. M. Lee,  M. S. Lee,  
 S. V. Levchenko,  Ching Yeh Lin,  D. Liotard,  R. C. Lochan,  I. Lotan,  
 P. E. Maslen,  N. Nair,  D. P. O'Neill,  D. Neuhauser,  E. Neuscamman,  
 C. M. Oana,  R. Olson,  B. Peters,  R. Peverati,  P. A. Pieniazek,  
 Y. M. Rhee,  J. Ritchie,  M. A. Rohrdanz,  E. Rosta,  N. J. Russ,  
 H. F. Schaefer III,  N. E. Schultz,  N. Shenvi,  A. C. Simmonett,  A. Sodt,  
 D. Stuck,  K. S. Thanthiriwatte,  V. Vanovschi,  Tao Wang,  A. Warshel,  
 C. F. Williams,  Q. Wu,  X. Xu,  W. Zhang

 Please cite Q-Chem as follows:
 Y. Shao et al., Mol. Phys. 113, 184-215 (2015)
 DOI: 10.1080/00268976.2014.952696

 Q-Chem 5.0.2 for Intel X86 EM64T Linux

 Parts of Q-Chem use Armadillo 5.200.1 (Boston Tea Smuggler).
 http://arma.sourceforge.net/

 Q-Chem begins on Thu Mar  3 21:52:27 2022  

Host: 
0

     Scratch files written to ./qcts1.d//
 Dec517 15110_ 26548  26544 5633   
Processing $rem in /home/leeping/opt/qchem/5.0.2-openmp/config/preferences.
 MEM_STATIC 2000
 MEM_TOTAL  8000
 SYMMETRY   OFF
 SYM_IGNORE TRUE 

Checking the input file for inconsistencies... 	...done.

--------------------------------------------------------------
User input:
--------------------------------------------------------------
$molecule
0 2
C        1.1602549289    0.2751435525    0.4167785003
C        0.7926268258   -0.9790313375   -0.3684205276
C       -0.5283024739   -0.9545775097   -0.8043020789
C       -1.0821327649    0.1552569829    0.0948258623
C       -0.4633833162    1.4620000832   -0.4310785334
N        0.8068638893    1.5207058157   -0.2749970422
H        2.1428852989    0.2758897076    0.8821012617
H        1.5220346599   -1.7694709435   -0.5320773688
H       -0.9978626858   -1.4940317235   -1.6182215931
H       -2.1497157447    0.1461487722    0.3167975485
H       -1.0189322657    2.2248608254   -0.9733156393
C       -0.0459351059   -0.1523342175    1.1867751672
H       -0.1475986186   -0.7317119182    2.0932139702
$end

$rem
method                b3lyp
basis                 6-31g(d)
unrestricted          true
symmetry              off
sym_ignore            true
incdft                false
incfock               0
scf_convergence       8
thresh                14
jobtype               sp
scf_guess             core
scf_guess_mix         5
scf_algorithm         diis
max_scf_cycles        100
$end

--------------------------------------------------------------
 ----------------------------------------------------------------
             Standard Nuclear Orientation (Angstroms)
    I     Atom           X                Y                Z
 ----------------------------------------------------------------
    1      C       1.1602549289     0.2751435525     0.4167785003
    2      C       0.7926268258    -0.9790313375    -0.3684205276
    3      C      -0.5283024739    -0.9545775097    -0.8043020789
    4      C      -1.0821327649     0.1552569829     0.0948258623
    5      C      -0.4633833162     1.4620000832    -0.4310785334
    6      N       0.8068638893     1.5207058157    -0.2749970422
    7      H       2.1428852989     0.2758897076     0.8821012617
    8      H       1.5220346599    -1.7694709435    -0.5320773688
    9      H      -0.9978626858    -1.4940317235    -1.6182215931
   10      H      -2.1497157447     0.1461487722     0.3167975485
   11      H      -1.0189322657     2.2248608254    -0.9733156393
   12      C      -0.0459351059    -0.1523342175     1.1867751672
   13      H      -0.1475986186    -0.7317119182     2.0932139702
 ----------------------------------------------------------------
 Nuclear Repulsion Energy =   280.8378384128 hartrees
 There are       25 alpha and       24 beta electrons
 Requested basis set is 6-31G(d)
 There are 40 shells and 117 basis functions

 Total QAlloc Memory Limit   8000 MB
 Mega-Array Size      1956 MB
 MEM_STATIC part      2000 MB

                       Distance Matrix (Angstroms)
             C (  1)   C (  2)   C (  3)   C (  4)   C (  5)   N (  6)
   C (  2)  1.524678
   C (  3)  2.419603  1.391203
   C (  4)  2.268552  2.239627  1.531957
   C (  5)  2.182588  2.745928  2.446090  1.538507
   N (  6)  1.467945  2.501523  2.861793  2.359985  1.281146
   H (  7)  1.087239  2.227516  3.390170  3.321912  3.150228  2.161804
   H (  8)  2.282906  1.087940  2.223070  3.298374  3.794007  3.376807
   H (  9)  3.453792  2.243453  1.083496  2.379451  3.230031  3.761640
   H ( 10)  3.313992  3.223807  2.257752  1.090453  2.265944  3.313758
   H ( 11)  3.237687  3.729956  3.221508  2.329846  1.088399  2.077743
   C ( 12)  1.493495  1.950704  2.200150  1.536448  2.323314  2.379728
   H ( 13)  2.352589  2.646665  2.930905  2.377735  3.359188  3.404821
             H (  7)   H (  8)   H (  9)   H ( 10)   H ( 11)   C ( 12)
   H (  8)  2.562978
   H (  9)  4.387315  2.757800
   H ( 10)  4.331608  4.227522  2.785903
   H ( 11)  4.151885  4.754565  3.774455  2.695201
   C ( 12)  2.251030  2.833393  3.251819  2.296050  3.356154
   H ( 13)  2.779995  3.279752  3.883147  2.816872  4.347890  1.080576

 
 A cutoff of  1.0D-14 yielded    813 shell pairs
 There are      7085 function pairs
 
 -------------------------------------------------------
 OpenMP Integral Computing Module                       
 Release: version 1.0, May 2013, Q-Chem Inc. Pittsburgh 
 -------------------------------------------------------
 Integral Job Info:
 Integral job number is                      11
 Integral operator is                         1
 short-range coefficients                     0
 long-range coefficients              100000000
 Omega coefficients                           0
 if combine SR and LR in K                    0
 Integral screening is                        0
 Integral computing path is                   2
 max size of driver memory is            800000
 size of driver memory is                593474
 size of scratch memory is              2361544
 max col of scratch BK array               1296
 max len of scratch array in speh3          155
 max len of scratch index in speh4           18
 max int batch size is                      520
 min int batch size is                       52
 fixed nKL is                                52
 max L of basis functions is                  2
 order of int derivative is                   0
 number of shells is                         40
 number of basis is                         117
 number of cartesian basis is               117
 number of contracted shell pairs           813
 number of primitive shell pairs           3603
 maxK2 (contraction) of shell pair           36
 max number of K2 of shell pair               1
 max number of CS2 of shell pair             84
 max number of PS2 of shell pair            402
 mem total for path MDJ                  535308
 -------------------------------------------------------
 Smallest overlap matrix eigenvalue = 1.34E-03

 Scale SEOQF with 1.000000e-01/1.000000e-01/1.000000e-01

 Standard Electronic Orientation quadrupole field applied
 Nucleus-field energy     =     0.0000000025 hartrees
 Guess MOs from core Hamiltonian diagonalization
 Mixing HOMO and LUMO in initial guess
 Adding  50% of the LUMO to the HOMO
 An unrestricted hybrid HF-DFT SCF calculation will be
 performed using Pulay DIIS extrapolation
 Exchange:     0.2000 Hartree-Fock + 0.0800 Slater + 0.7200 B88
 Correlation:  0.1900 VWN1RPA + 0.8100 LYP
 Using SG-1 standard quadrature grid
 SCF converges when DIIS error is below 1.0E-08
 using 4 threads for integral computing
 -------------------------------------------------------
 OpenMP Integral computing Module                
 Release: version 1.0, May 2013, Q-Chem Inc. Pittsburgh 
 -------------------------------------------------------
 -------------------------------------------------------
 OpenMP BLAS3 based DFT computing Module                
 Release: version 1.0, May 2013, Q-Chem Inc. Pittsburgh 
 -------------------------------------------------------
 ---------------------------------------
  Cycle       Energy         DIIS Error
 ---------------------------------------
    1    -235.7115955410      1.36E-01
    2    -221.7409494224      1.09E-01
    3    -251.8081404363      1.03E-01
    4    -279.9141721605      5.90E-02
    5    -282.4641978486      4.56E-02
    6    -286.0192973048      1.89E-02
    7    -286.1289193402      1.73E-02
    8    -286.7710586398      4.88E-03
    9    -286.8061492990      3.39E-03
   10    -286.8238014110      8.74E-04
   11    -286.8254063074      4.07E-04
   12    -286.8260027349      1.81E-04
   13    -286.8261872957      1.08E-04
   14    -286.8262661034      3.65E-05
   15    -286.8262843093      7.05E-06
   16    -286.8262858372      3.95E-06
   17    -286.8262863395      1.20E-06
   18    -286.8262865728      6.10E-07
   19    -286.8262866167      3.70E-07
   20    -286.8262866347      1.10E-07
   21    -286.8262866350      2.89E-08
   22    -286.8262866350      4.96E-09 Convergence criterion met
 ---------------------------------------
 <S^2> = 0.7857
 SCF time:  CPU 53.82 s  wall 14.52 s
 SCF   energy in the final basis set = -286.82628664
 Total energy in the final basis set = -286.82628664
 
 --------------------------------------------------------------
 
                    Orbital Energies (a.u.)
 --------------------------------------------------------------
 
 Alpha MOs
 -- Occupied --
-14.316 -10.223 -10.220 -10.214 -10.209 -10.206 -10.196  -0.959
 -0.834  -0.736  -0.689  -0.589  -0.575  -0.536  -0.512  -0.464
 -0.430  -0.414  -0.396  -0.369  -0.346  -0.284  -0.270  -0.264
 -0.149
 -- Virtual --
 -0.007   0.017   0.099   0.139   0.149   0.154   0.156   0.164
  0.173   0.208   0.221   0.275   0.289   0.309   0.354   0.373
  0.489   0.501   0.520   0.535   0.579   0.583   0.592   0.614
  0.640   0.654   0.667   0.692   0.701   0.737   0.768   0.799
  0.808   0.817   0.840   0.847   0.855   0.882   0.895   0.941
  0.973   1.011   1.067   1.103   1.160   1.223   1.285   1.376
  1.391   1.436   1.468   1.503   1.588   1.624   1.665   1.732
  1.757   1.805   1.847   1.920   1.956   1.961   2.034   2.050
  2.115   2.139   2.163   2.225   2.267   2.291   2.322   2.356
  2.401   2.470   2.516   2.547   2.580   2.617   2.653   2.672
  2.702   2.816   2.849   2.904   2.959   3.947   4.196   4.267
  4.310   4.404   4.540   4.624
 
 Beta MOs
 -- Occupied --
-14.315 -10.223 -10.220 -10.216 -10.210 -10.195 -10.188  -0.955
 -0.826  -0.733  -0.676  -0.586  -0.565  -0.529  -0.511  -0.455
 -0.427  -0.409  -0.395  -0.364  -0.341  -0.277  -0.261  -0.251
 -- Virtual --
 -0.034   0.010   0.028   0.102   0.146   0.152   0.157   0.159
  0.165   0.176   0.214   0.225   0.280   0.292   0.313   0.359
  0.376   0.497   0.513   0.523   0.547   0.581   0.588   0.598
  0.619   0.644   0.669   0.680   0.698   0.705   0.744   0.772
  0.800   0.811   0.821   0.841   0.850   0.860   0.885   0.899
  0.944   0.977   1.016   1.072   1.114   1.165   1.231   1.289
  1.382   1.393   1.440   1.473   1.510   1.599   1.632   1.674
  1.738   1.766   1.809   1.853   1.931   1.964   1.968   2.045
  2.061   2.122   2.151   2.165   2.238   2.276   2.297   2.338
  2.364   2.410   2.484   2.520   2.552   2.585   2.626   2.658
  2.680   2.707   2.820   2.852   2.906   2.961   3.948   4.203
  4.268   4.331   4.408   4.546   4.626
 --------------------------------------------------------------
 
          Ground-State Mulliken Net Atomic Charges

     Atom                 Charge (a.u.)    Spin (a.u.)
  --------------------------------------------------------
      1 C                    -0.039552      -0.011374
      2 C                    -0.120433      -0.221725
      3 C                    -0.086736       0.526116
      4 C                    -0.259051      -0.066659
      5 C                     0.092354       0.001047
      6 N                    -0.333126       0.056371
      7 H                     0.145170       0.004841
      8 H                     0.146360       0.014569
      9 H                     0.142609      -0.013972
     10 H                     0.137823       0.009236
     11 H                     0.144927       0.001530
     12 C                    -0.126280       0.737993
     13 H                     0.155934      -0.037974
  --------------------------------------------------------
  Sum of atomic charges =    -0.000000
  Sum of spin   charges =     1.000000

 -----------------------------------------------------------------
                    Cartesian Multipole Moments
 -----------------------------------------------------------------
    Charge (ESU x 10^10)
                -0.0000
    Dipole Moment (Debye)
         X      -1.1863      Y      -1.9123      Z       0.4272
       Tot       2.2905
    Quadrupole Moments (Debye-Ang)
        XX     -38.2019     XY      -4.5173     YY     -43.1561
        XZ       2.1590     YZ       0.1659     ZZ     -39.7719
    Octopole Moments (Debye-Ang^2)
       XXX      -9.0412    XXY      -9.8268    XYY      -9.4146
       YYY     -24.3009    XXZ       2.5978    XYZ       2.4891
       YYZ      -1.7172    XZZ      -5.0238    YZZ      -9.8970
       ZZZ       4.5631
    Hexadecapole Moments (Debye-Ang^3)
      XXXX    -216.2253   XXXY      -8.3925   XXYY     -89.0143
      XYYY     -22.8707   YYYY    -301.5739   XXXZ      -7.5652
      XXYZ       3.2261   XYYZ       1.8425   YYYZ       0.8314
      XXZZ     -63.7591   XYZZ      -0.0070   YYZZ     -71.2860
      XZZZ      -9.2202   YZZZ      -3.3156   ZZZZ    -156.7116
 -----------------------------------------------------------------
Archival summary:
1\1\c8-73\SP\ProcedureUnspecified\6-31G*\166(2)\hpark21\ThuMar321:52:422022ThuMar321:52:422022\0\\#,ProcedureUnspecified,6-31G*,\\0,2\N\C,1,1.28115\H,2,1.0884,1,122.321\C,1,1.46795,2,104.905,3,-176.216,0\H,4,1.08724,1,114.752,2,-163.303,0\C,4,1.49349,1,106.942,2,-26.6761,0\H,6,1.08058,4,131.447,1,-152.277,0\C,4,1.52468,1,113.405,2,60.1299,0\H,8,1.08794,4,120.894,1,129.7,0\C,8,1.3912,4,112.076,1,-50.5446,0\H,10,1.0835,8,129.65,4,157.9,0\C,10,1.53196,8,99.9101,4,-16.4052,0\H,12,1.09045,10,117.863,8,-154.374,0\\\@

 Total job time:  15.18s(wall), 55.30s(cpu) 
 Thu Mar  3 21:52:42 2022

        *************************************************************
        *                                                           *
        *  Thank you very much for using Q-Chem.  Have a nice day.  *
        *                                                           *
        *************************************************************


