13   
Frame   0 IRC: Energy =  -286.8854490000 ; +0.0000 kcal/mol
C       -0.0807060000    0.0050360000   -0.0000000000
C       -0.1296330000   -0.0747780000    0.0000000000
C       -0.1568600000    0.6461550000    0.0000000000
C       -0.0475520000   -0.2679070000    0.0000000000
C       -0.1105870000    0.6097650000    0.0000000000
N       -0.2150220000    0.0675100000    0.0000000000
H        0.1364510000    0.0009650000   -0.0000000000
H        0.1559550000    0.0322780000    0.0000000000
H        0.1298500000   -0.0294520000   -0.0000000000
H        0.1285450000    0.0076450000    0.0000000000
H        0.1357770000   -0.0275270000    0.0000000000
C       -0.0773220000    0.0223360000   -0.0000000000
H        0.1311040000    0.0079750000   -0.0000000000
13   
Frame   1 IRC: Energy =  -286.8854460000 ; +0.0019 kcal/mol
C       -0.0808570000    0.0050410000   -0.0000000000
C       -0.1295970000   -0.0748830000    0.0000000000
C       -0.1569340000    0.6473450000    0.0000000000
C       -0.0476440000   -0.2679640000    0.0000000000
C       -0.1103550000    0.6087660000    0.0000000000
N       -0.2151110000    0.0674880000    0.0000000000
H        0.1364690000    0.0009640000   -0.0000000000
H        0.1559680000    0.0322720000    0.0000000000
H        0.1298670000   -0.0295080000   -0.0000000000
H        0.1285360000    0.0076430000    0.0000000000
H        0.1357580000   -0.0274850000    0.0000000000
C       -0.0772200000    0.0223520000   -0.0000000000
H        0.1311190000    0.0079690000   -0.0000000000
13   
Frame   2 IRC: Energy =  -286.8854310000 ; +0.0113 kcal/mol
C       -0.0809310000    0.0047400000   -0.0000000000
C       -0.1310070000   -0.0749200000    0.0000000000
C       -0.1561470000    0.6461410000    0.0000000000
C       -0.0479570000   -0.2677750000    0.0000000000
C       -0.1101470000    0.6094960000    0.0000000000
N       -0.2145270000    0.0677830000    0.0000000000
H        0.1364670000    0.0009460000   -0.0000000000
H        0.1559990000    0.0321660000    0.0000000000
H        0.1297980000   -0.0294390000   -0.0000000000
H        0.1285410000    0.0076230000    0.0000000000
H        0.1357570000   -0.0275400000    0.0000000000
C       -0.0769380000    0.0227460000   -0.0000000000
H        0.1310910000    0.0080330000   -0.0000000000
13   
Frame   3 IRC: Energy =  -286.8854280000 ; +0.0132 kcal/mol
C       -0.0808090000    0.0046650000   -0.0000000000
C       -0.1313570000   -0.0748480000    0.0000000000
C       -0.1559690000    0.6449730000    0.0000000000
C       -0.0479230000   -0.2676660000    0.0000000000
C       -0.1103350000    0.6103780000    0.0000000000
N       -0.2143760000    0.0678690000    0.0000000000
H        0.1364560000    0.0009450000   -0.0000000000
H        0.1559900000    0.0321510000    0.0000000000
H        0.1297720000   -0.0293830000   -0.0000000000
H        0.1285550000    0.0076200000    0.0000000000
H        0.1357720000   -0.0275840000    0.0000000000
C       -0.0768710000    0.0228220000   -0.0000000000
H        0.1310930000    0.0080580000   -0.0000000000
13   
Frame   4 IRC: Energy =  -286.8854090000 ; +0.0251 kcal/mol
C       -0.0812510000    0.0044720000   -0.0000000000
C       -0.1322780000   -0.0751290000    0.0000000000
C       -0.1555450000    0.6469660000    0.0000000000
C       -0.0483790000   -0.2676730000    0.0000000000
C       -0.1095850000    0.6085220000    0.0000000000
N       -0.2141390000    0.0680220000    0.0000000000
H        0.1364960000    0.0009290000   -0.0000000000
H        0.1560460000    0.0320560000    0.0000000000
H        0.1297650000   -0.0294660000   -0.0000000000
H        0.1285360000    0.0076020000    0.0000000000
H        0.1357290000   -0.0275230000    0.0000000000
C       -0.0764890000    0.0231400000   -0.0000000000
H        0.1310930000    0.0080840000   -0.0000000000
13   
Frame   5 IRC: Energy =  -286.8854050000 ; +0.0276 kcal/mol
C       -0.0813910000    0.0044890000   -0.0000000000
C       -0.1321740000   -0.0752180000    0.0000000000
C       -0.1555510000    0.6480240000    0.0000000000
C       -0.0485300000   -0.2677970000    0.0000000000
C       -0.1093420000    0.6077270000    0.0000000000
N       -0.2141690000    0.0679860000    0.0000000000
H        0.1365100000    0.0009260000   -0.0000000000
H        0.1560640000    0.0320500000    0.0000000000
H        0.1297760000   -0.0295150000   -0.0000000000
H        0.1285090000    0.0076030000    0.0000000000
H        0.1357050000   -0.0274860000    0.0000000000
C       -0.0764950000    0.0231400000   -0.0000000000
H        0.1310870000    0.0080710000   -0.0000000000
13   
Frame   6 IRC: Energy =  -286.8853770000 ; +0.0452 kcal/mol
C       -0.0815220000    0.0040750000   -0.0000000000
C       -0.1341770000   -0.0752990000    0.0000000000
C       -0.1545350000    0.6465700000    0.0000000000
C       -0.0489030000   -0.2674780000    0.0000000000
C       -0.1090660000    0.6084660000    0.0000000000
N       -0.2134090000    0.0683960000    0.0000000000
H        0.1365140000    0.0009040000   -0.0000000000
H        0.1561000000    0.0319030000    0.0000000000
H        0.1296920000   -0.0294300000   -0.0000000000
H        0.1285350000    0.0075740000    0.0000000000
H        0.1357100000   -0.0275530000    0.0000000000
C       -0.0760100000    0.0237060000   -0.0000000000
H        0.1310690000    0.0081660000   -0.0000000000
13   
Frame   7 IRC: Energy =  -286.8853660000 ; +0.0521 kcal/mol
C       -0.0817570000    0.0040200000   -0.0000000000
C       -0.1344690000   -0.0754560000    0.0000000000
C       -0.1544610000    0.6479800000    0.0000000000
C       -0.0490790000   -0.2675100000    0.0000000000
C       -0.1086970000    0.6072270000    0.0000000000
N       -0.2134060000    0.0684280000    0.0000000000
H        0.1365360000    0.0008980000   -0.0000000000
H        0.1561250000    0.0318660000    0.0000000000
H        0.1297000000   -0.0294920000   -0.0000000000
H        0.1285240000    0.0075670000    0.0000000000
H        0.1356830000   -0.0275060000    0.0000000000
C       -0.0757830000    0.0238090000   -0.0000000000
H        0.1310820000    0.0081710000   -0.0000000000
13   
Frame   8 IRC: Energy =  -286.8853540000 ; +0.0596 kcal/mol
C       -0.0817140000    0.0038400000   -0.0000000000
C       -0.1353350000   -0.0754150000    0.0000000000
C       -0.1539300000    0.6464810000    0.0000000000
C       -0.0492100000   -0.2673530000    0.0000000000
C       -0.1087110000    0.6082930000    0.0000000000
N       -0.2129740000    0.0686180000    0.0000000000
H        0.1365270000    0.0008880000   -0.0000000000
H        0.1561340000    0.0318060000    0.0000000000
H        0.1296500000   -0.0294140000   -0.0000000000
H        0.1285400000    0.0075570000    0.0000000000
H        0.1357000000   -0.0275660000    0.0000000000
C       -0.0757280000    0.0240520000   -0.0000000000
H        0.1310510000    0.0082130000   -0.0000000000
13   
Frame   9 IRC: Energy =  -286.8853440000 ; +0.0659 kcal/mol
C       -0.0819190000    0.0037890000   -0.0000000000
C       -0.1355930000   -0.0755710000    0.0000000000
C       -0.1539040000    0.6479060000    0.0000000000
C       -0.0493690000   -0.2673950000    0.0000000000
C       -0.1084020000    0.6070460000    0.0000000000
N       -0.2130070000    0.0686440000    0.0000000000
H        0.1365510000    0.0008840000   -0.0000000000
H        0.1561540000    0.0317750000    0.0000000000
H        0.1296590000   -0.0294770000   -0.0000000000
H        0.1285260000    0.0075500000    0.0000000000
H        0.1356710000   -0.0275180000    0.0000000000
C       -0.0754460000    0.0241440000   -0.0000000000
H        0.1310800000    0.0082210000   -0.0000000000
13   
Frame  10 IRC: Energy =  -286.8853320000 ; +0.0734 kcal/mol
C       -0.0819270000    0.0036390000   -0.0000000000
C       -0.1363370000   -0.0755540000    0.0000000000
C       -0.1534330000    0.6468140000    0.0000000000
C       -0.0495010000   -0.2672760000    0.0000000000
C       -0.1083410000    0.6078170000    0.0000000000
N       -0.2126210000    0.0688030000    0.0000000000
H        0.1365420000    0.0008740000   -0.0000000000
H        0.1561690000    0.0317170000    0.0000000000
H        0.1296190000   -0.0294190000   -0.0000000000
H        0.1285390000    0.0075420000    0.0000000000
H        0.1356820000   -0.0275630000    0.0000000000
C       -0.0754290000    0.0243540000   -0.0000000000
H        0.1310400000    0.0082520000   -0.0000000000
13   
Frame  11 IRC: Energy =  -286.8853210000 ; +0.0803 kcal/mol
C       -0.0821200000    0.0035850000   -0.0000000000
C       -0.1366000000   -0.0756970000    0.0000000000
C       -0.1534100000    0.6480580000    0.0000000000
C       -0.0496390000   -0.2672890000    0.0000000000
C       -0.1080730000    0.6066780000    0.0000000000
N       -0.2126460000    0.0688310000    0.0000000000
H        0.1365680000    0.0008710000   -0.0000000000
H        0.1561810000    0.0316940000    0.0000000000
H        0.1296220000   -0.0294730000   -0.0000000000
H        0.1285230000    0.0075350000    0.0000000000
H        0.1356540000   -0.0275180000    0.0000000000
C       -0.0751420000    0.0244580000   -0.0000000000
H        0.1310810000    0.0082660000   -0.0000000000
13   
Frame  12 IRC: Energy =  -286.8853050000 ; +0.0904 kcal/mol
C       -0.0819940000    0.0033820000   -0.0000000000
C       -0.1375380000   -0.0756530000    0.0000000000
C       -0.1528790000    0.6465480000    0.0000000000
C       -0.0496390000   -0.2671200000    0.0000000000
C       -0.1081100000    0.6078020000    0.0000000000
N       -0.2123180000    0.0690320000    0.0000000000
H        0.1365340000    0.0008560000   -0.0000000000
H        0.1561940000    0.0316210000    0.0000000000
H        0.1295460000   -0.0293930000   -0.0000000000
H        0.1285440000    0.0075230000    0.0000000000
H        0.1356470000   -0.0275770000    0.0000000000
C       -0.0749890000    0.0246810000   -0.0000000000
H        0.1310030000    0.0082960000   -0.0000000000
13   
Frame  13 IRC: Energy =  -286.8852950000 ; +0.0966 kcal/mol
C       -0.0818850000    0.0032890000   -0.0000000000
C       -0.1379730000   -0.0755490000    0.0000000000
C       -0.1524620000    0.6448220000    0.0000000000
C       -0.0496530000   -0.2670060000    0.0000000000
C       -0.1081750000    0.6092000000    0.0000000000
N       -0.2119780000    0.0691420000    0.0000000000
H        0.1365020000    0.0008460000   -0.0000000000
H        0.1562030000    0.0315870000    0.0000000000
H        0.1295010000   -0.0293080000   -0.0000000000
H        0.1285630000    0.0075200000    0.0000000000
H        0.1356660000   -0.0276420000    0.0000000000
C       -0.0752210000    0.0247940000   -0.0000000000
H        0.1309130000    0.0083040000   -0.0000000000
13   
Frame  14 IRC: Energy =  -286.8852060000 ; +0.1525 kcal/mol
C       -0.0829740000    0.0027350000   -0.0000000000
C       -0.1410200000   -0.0762550000    0.0000000000
C       -0.1511150000    0.6487350000    0.0000000000
C       -0.0509550000   -0.2669510000    0.0000000000
C       -0.1066220000    0.6052630000    0.0000000000
N       -0.2109530000    0.0696380000    0.0000000000
H        0.1366360000    0.0008130000   -0.0000000000
H        0.1563130000    0.0313030000    0.0000000000
H        0.1294940000   -0.0294530000   -0.0000000000
H        0.1285240000    0.0074760000    0.0000000000
H        0.1356110000   -0.0275330000    0.0000000000
C       -0.0739740000    0.0257840000   -0.0000000000
H        0.1310330000    0.0084440000   -0.0000000000
13   
Frame  15 IRC: Energy =  -286.8851900000 ; +0.1625 kcal/mol
C       -0.0829730000    0.0025950000   -0.0000000000
C       -0.1417870000   -0.0761480000    0.0000000000
C       -0.1505070000    0.6462900000    0.0000000000
C       -0.0510990000   -0.2666970000    0.0000000000
C       -0.1067220000    0.6069900000    0.0000000000
N       -0.2104720000    0.0698400000    0.0000000000
H        0.1366630000    0.0008090000   -0.0000000000
H        0.1563190000    0.0312620000    0.0000000000
H        0.1294380000   -0.0293280000   -0.0000000000
H        0.1285150000    0.0074660000    0.0000000000
H        0.1356500000   -0.0276200000    0.0000000000
C       -0.0740720000    0.0260330000   -0.0000000000
H        0.1310480000    0.0085080000   -0.0000000000
13   
Frame  16 IRC: Energy =  -286.8851480000 ; +0.1889 kcal/mol
C       -0.0831980000    0.0023820000   -0.0000000000
C       -0.1426870000   -0.0765190000    0.0000000000
C       -0.1504840000    0.6496100000    0.0000000000
C       -0.0510330000   -0.2667900000    0.0000000000
C       -0.1061320000    0.6042330000    0.0000000000
N       -0.2105440000    0.0699300000    0.0000000000
H        0.1366180000    0.0007810000   -0.0000000000
H        0.1563610000    0.0311430000    0.0000000000
H        0.1293830000   -0.0294690000   -0.0000000000
H        0.1285430000    0.0074510000    0.0000000000
H        0.1355220000   -0.0275080000    0.0000000000
C       -0.0732980000    0.0262650000   -0.0000000000
H        0.1309480000    0.0084910000   -0.0000000000
13   
Frame  17 IRC: Energy =  -286.8851250000 ; +0.2033 kcal/mol
C       -0.0835430000    0.0024530000   -0.0000000000
C       -0.1424680000   -0.0767360000    0.0000000000
C       -0.1510820000    0.6527480000    0.0000000000
C       -0.0510170000   -0.2669570000    0.0000000000
C       -0.1058160000    0.6017010000    0.0000000000
N       -0.2109530000    0.0698300000    0.0000000000
H        0.1366270000    0.0007810000   -0.0000000000
H        0.1563340000    0.0311870000    0.0000000000
H        0.1294170000   -0.0296190000   -0.0000000000
H        0.1285300000    0.0074490000    0.0000000000
H        0.1354400000   -0.0273890000    0.0000000000
C       -0.0724800000    0.0260890000   -0.0000000000
H        0.1310120000    0.0084630000   -0.0000000000
13   
Frame  18 IRC: Energy =  -286.8847610000 ; +0.4317 kcal/mol
C       -0.0852050000    0.0005540000   -0.0000000000
C       -0.1533430000   -0.0779520000    0.0000000000
C       -0.1450090000    0.6504910000    0.0000000000
C       -0.0540250000   -0.2660700000    0.0000000000
C       -0.1031690000    0.6015860000    0.0000000000
N       -0.2062820000    0.0717260000    0.0000000000
H        0.1367940000    0.0006540000   -0.0000000000
H        0.1565130000    0.0302070000    0.0000000000
H        0.1290840000   -0.0293500000   -0.0000000000
H        0.1285590000    0.0073400000    0.0000000000
H        0.1354880000   -0.0275570000    0.0000000000
C       -0.0702880000    0.0294240000   -0.0000000000
H        0.1308830000    0.0089470000   -0.0000000000
13   
Frame  19 IRC: Energy =  -286.8847230000 ; +0.4556 kcal/mol
C       -0.0851270000    0.0003250000   -0.0000000000
C       -0.1545900000   -0.0777330000    0.0000000000
C       -0.1440940000    0.6459930000    0.0000000000
C       -0.0541890000   -0.2656940000    0.0000000000
C       -0.1034830000    0.6048440000    0.0000000000
N       -0.2053760000    0.0720890000    0.0000000000
H        0.1367780000    0.0006470000   -0.0000000000
H        0.1564960000    0.0301650000    0.0000000000
H        0.1289830000   -0.0291230000   -0.0000000000
H        0.1285890000    0.0073280000    0.0000000000
H        0.1355460000   -0.0277070000    0.0000000000
C       -0.0703630000    0.0298360000   -0.0000000000
H        0.1308290000    0.0090310000   -0.0000000000
13   
Frame  20 IRC: Energy =  -286.8845280000 ; +0.5779 kcal/mol
C       -0.0862370000   -0.0001640000   -0.0000000000
C       -0.1578580000   -0.0788020000    0.0000000000
C       -0.1429620000    0.6529900000    0.0000000000
C       -0.0549800000   -0.2658670000    0.0000000000
C       -0.1017140000    0.5988240000    0.0000000000
N       -0.2046420000    0.0723990000    0.0000000000
H        0.1368420000    0.0005870000   -0.0000000000
H        0.1565670000    0.0297610000    0.0000000000
H        0.1289160000   -0.0293750000   -0.0000000000
H        0.1285790000    0.0073000000    0.0000000000
H        0.1353980000   -0.0274970000    0.0000000000
C       -0.0687070000    0.0307350000   -0.0000000000
H        0.1307980000    0.0091110000   -0.0000000000
13   
Frame  21 IRC: Energy =  -286.8844910000 ; +0.6012 kcal/mol
C       -0.0860930000   -0.0001540000   -0.0000000000
C       -0.1576940000   -0.0790960000    0.0000000000
C       -0.1431500000    0.6564950000    0.0000000000
C       -0.0549680000   -0.2661790000    0.0000000000
C       -0.1014910000    0.5962790000    0.0000000000
N       -0.2051530000    0.0722400000    0.0000000000
H        0.1368560000    0.0005790000   -0.0000000000
H        0.1566090000    0.0296690000    0.0000000000
H        0.1289550000   -0.0295340000   -0.0000000000
H        0.1285630000    0.0073050000    0.0000000000
H        0.1353480000   -0.0273930000    0.0000000000
C       -0.0686200000    0.0306930000   -0.0000000000
H        0.1308380000    0.0090950000   -0.0000000000
13   
Frame  22 IRC: Energy =  -286.8839620000 ; +0.9331 kcal/mol
C       -0.0882900000   -0.0016180000   -0.0000000000
C       -0.1683530000   -0.0803810000    0.0000000000
C       -0.1378840000    0.6533660000    0.0000000000
C       -0.0574350000   -0.2652610000    0.0000000000
C       -0.0993120000    0.5967790000    0.0000000000
N       -0.2002380000    0.0740290000    0.0000000000
H        0.1369710000    0.0004580000   -0.0000000000
H        0.1564860000    0.0288630000    0.0000000000
H        0.1285680000   -0.0291730000   -0.0000000000
H        0.1286580000    0.0072330000    0.0000000000
H        0.1353590000   -0.0275250000    0.0000000000
C       -0.0651770000    0.0336700000   -0.0000000000
H        0.1306470000    0.0095610000   -0.0000000000
13   
Frame  23 IRC: Energy =  -286.8838950000 ; +0.9752 kcal/mol
C       -0.0892010000   -0.0016600000   -0.0000000000
C       -0.1700040000   -0.0803270000    0.0000000000
C       -0.1376440000    0.6497960000    0.0000000000
C       -0.0578870000   -0.2648100000    0.0000000000
C       -0.0995690000    0.5988840000    0.0000000000
N       -0.1994470000    0.0743380000    0.0000000000
H        0.1370200000    0.0004680000   -0.0000000000
H        0.1561320000    0.0293110000    0.0000000000
H        0.1285480000   -0.0289890000   -0.0000000000
H        0.1286360000    0.0072160000    0.0000000000
H        0.1353500000   -0.0275970000    0.0000000000
C       -0.0627870000    0.0337010000   -0.0000000000
H        0.1308530000    0.0096680000   -0.0000000000
13   
Frame  24 IRC: Energy =  -286.8832320000 ; +1.3912 kcal/mol
C       -0.0904690000   -0.0028190000   -0.0000000000
C       -0.1784680000   -0.0824220000    0.0000000000
C       -0.1331080000    0.6579230000    0.0000000000
C       -0.0596130000   -0.2650640000    0.0000000000
C       -0.0964200000    0.5918830000    0.0000000000
N       -0.1961520000    0.0752690000    0.0000000000
H        0.1370590000    0.0003140000   -0.0000000000
H        0.1564530000    0.0277180000    0.0000000000
H        0.1282070000   -0.0291210000   -0.0000000000
H        0.1287800000    0.0072070000    0.0000000000
H        0.1352740000   -0.0274180000    0.0000000000
C       -0.0619160000    0.0365620000   -0.0000000000
H        0.1303730000    0.0099690000   -0.0000000000
13   
Frame  25 IRC: Energy =  -286.8831260000 ; +1.4577 kcal/mol
C       -0.0913140000   -0.0030350000   -0.0000000000
C       -0.1807410000   -0.0823900000    0.0000000000
C       -0.1320540000    0.6531170000    0.0000000000
C       -0.0601350000   -0.2645660000    0.0000000000
C       -0.0964030000    0.5950260000    0.0000000000
N       -0.1946960000    0.0757130000    0.0000000000
H        0.1370540000    0.0003050000   -0.0000000000
H        0.1562380000    0.0278780000    0.0000000000
H        0.1281200000   -0.0288600000   -0.0000000000
H        0.1288080000    0.0071920000    0.0000000000
H        0.1353050000   -0.0275530000    0.0000000000
C       -0.0605390000    0.0370910000   -0.0000000000
H        0.1303580000    0.0100810000   -0.0000000000
13   
Frame  26 IRC: Energy =  -286.8827980000 ; +1.6635 kcal/mol
C       -0.0918770000   -0.0032840000   -0.0000000000
C       -0.1834630000   -0.0835580000    0.0000000000
C       -0.1307740000    0.6612230000    0.0000000000
C       -0.0608380000   -0.2650640000    0.0000000000
C       -0.0946920000    0.5886990000    0.0000000000
N       -0.1940380000    0.0757630000    0.0000000000
H        0.1371190000    0.0002400000   -0.0000000000
H        0.1564230000    0.0271410000    0.0000000000
H        0.1280570000   -0.0291300000   -0.0000000000
H        0.1288330000    0.0072080000    0.0000000000
H        0.1352220000   -0.0273210000    0.0000000000
C       -0.0602010000    0.0379260000   -0.0000000000
H        0.1302290000    0.0101560000   -0.0000000000
13   
Frame  27 IRC: Energy =  -286.8826200000 ; +1.7752 kcal/mol
C       -0.0924800000   -0.0035690000   -0.0000000000
C       -0.1867790000   -0.0836160000    0.0000000000
C       -0.1294280000    0.6555340000    0.0000000000
C       -0.0613200000   -0.2644570000    0.0000000000
C       -0.0950170000    0.5922680000    0.0000000000
N       -0.1922920000    0.0764200000    0.0000000000
H        0.1371140000    0.0002240000   -0.0000000000
H        0.1561630000    0.0271980000    0.0000000000
H        0.1279150000   -0.0288000000   -0.0000000000
H        0.1289000000    0.0071930000    0.0000000000
H        0.1352600000   -0.0274840000    0.0000000000
C       -0.0582890000    0.0387180000   -0.0000000000
H        0.1302530000    0.0103710000   -0.0000000000
13   
Frame  28 IRC: Energy =  -286.8823330000 ; +1.9553 kcal/mol
C       -0.0932650000   -0.0036500000   -0.0000000000
C       -0.1885180000   -0.0846560000    0.0000000000
C       -0.1285380000    0.6639970000    0.0000000000
C       -0.0620650000   -0.2650380000    0.0000000000
C       -0.0931510000    0.5859200000    0.0000000000
N       -0.1919710000    0.0762550000    0.0000000000
H        0.1371920000    0.0001700000   -0.0000000000
H        0.1563570000    0.0266030000    0.0000000000
H        0.1279250000   -0.0291170000   -0.0000000000
H        0.1288890000    0.0072170000    0.0000000000
H        0.1351760000   -0.0272350000    0.0000000000
C       -0.0581600000    0.0391690000   -0.0000000000
H        0.1301290000    0.0103660000   -0.0000000000
13   
Frame  29 IRC: Energy =  -286.8812300000 ; +2.6475 kcal/mol
C       -0.0970010000   -0.0044160000   -0.0000000000
C       -0.2002510000   -0.0865930000   -0.0000000000
C       -0.1237730000    0.6633500000    0.0000000000
C       -0.0644030000   -0.2643920000    0.0000000000
C       -0.0902520000    0.5845930000    0.0000000000
N       -0.1859250000    0.0770220000    0.0000000000
H        0.1371990000    0.0000430000   -0.0000000000
H        0.1562250000    0.0256420000    0.0000000000
H        0.1276960000   -0.0288300000   -0.0000000000
H        0.1291170000    0.0072400000    0.0000000000
H        0.1351440000   -0.0272200000    0.0000000000
C       -0.0535860000    0.0426130000   -0.0000000000
H        0.1298090000    0.0109480000   -0.0000000000
13   
Frame  30 IRC: Energy =  -286.8810440000 ; +2.7642 kcal/mol
C       -0.0985890000   -0.0046040000   -0.0000000000
C       -0.2036980000   -0.0873260000   -0.0000000000
C       -0.1218890000    0.6614590000    0.0000000000
C       -0.0656820000   -0.2642940000    0.0000000000
C       -0.0896260000    0.5858020000    0.0000000000
N       -0.1843930000    0.0768480000    0.0000000000
H        0.1372060000    0.0000380000   -0.0000000000
H        0.1557390000    0.0264110000    0.0000000000
H        0.1279110000   -0.0287140000   -0.0000000000
H        0.1291740000    0.0072520000    0.0000000000
H        0.1351740000   -0.0272670000    0.0000000000
C       -0.0511560000    0.0434110000   -0.0000000000
H        0.1298300000    0.0109840000   -0.0000000000
13   
Frame  31 IRC: Energy =  -286.8799010000 ; +3.4814 kcal/mol
C       -0.1006550000   -0.0048430000   -0.0000000000
C       -0.2096630000   -0.0884510000   -0.0000000000
C       -0.1213270000    0.6683900000    0.0000000000
C       -0.0653430000   -0.2640320000    0.0000000000
C       -0.0872320000    0.5791540000    0.0000000000
N       -0.1802240000    0.0766270000    0.0000000000
H        0.1371740000   -0.0000570000   -0.0000000000
H        0.1565730000    0.0243370000    0.0000000000
H        0.1276930000   -0.0289690000   -0.0000000000
H        0.1293140000    0.0072920000    0.0000000000
H        0.1351060000   -0.0269930000    0.0000000000
C       -0.0509440000    0.0460760000   -0.0000000000
H        0.1295300000    0.0114710000   -0.0000000000
13   
Frame  32 IRC: Energy =  -286.8794560000 ; +3.7607 kcal/mol
C       -0.1025240000   -0.0051130000   -0.0000000000
C       -0.2152930000   -0.0895160000   -0.0000000000
C       -0.1191650000    0.6658920000    0.0000000000
C       -0.0664290000   -0.2638290000    0.0000000000
C       -0.0867920000    0.5804390000    0.0000000000
N       -0.1773810000    0.0763290000    0.0000000000
H        0.1371450000   -0.0000710000   -0.0000000000
H        0.1561390000    0.0249900000    0.0000000000
H        0.1279760000   -0.0288450000    0.0000000000
H        0.1294810000    0.0073180000    0.0000000000
H        0.1351820000   -0.0270410000    0.0000000000
C       -0.0478340000    0.0477950000   -0.0000000000
H        0.1294960000    0.0116520000   -0.0000000000
13   
Frame  33 IRC: Energy =  -286.8779490000 ; +4.7063 kcal/mol
C       -0.1055100000   -0.0055020000   -0.0000000000
C       -0.2207930000   -0.0904850000   -0.0000000000
C       -0.1206700000    0.6717980000    0.0000000000
C       -0.0645290000   -0.2630980000    0.0000000000
C       -0.0849330000    0.5737250000    0.0000000000
N       -0.1716810000    0.0748720000    0.0000000000
H        0.1369980000   -0.0000970000   -0.0000000000
H        0.1569630000    0.0232860000    0.0000000000
H        0.1280310000   -0.0292710000    0.0000000000
H        0.1295720000    0.0073560000    0.0000000000
H        0.1352510000   -0.0267100000    0.0000000000
C       -0.0483040000    0.0518850000   -0.0000000000
H        0.1296040000    0.0122410000   -0.0000000000
13   
Frame  34 IRC: Energy =  -286.8757270000 ; +6.1007 kcal/mol
C       -0.1101370000   -0.0072000000   -0.0000000000
C       -0.2325840000   -0.0932940000   -0.0000000000
C       -0.1224840000    0.6706580000    0.0000000000
C       -0.0604440000   -0.2616400000    0.0000000000
C       -0.0852570000    0.5701890000    0.0000000000
N       -0.1608560000    0.0719460000    0.0000000000
H        0.1366840000   -0.0000110000   -0.0000000000
H        0.1569450000    0.0235430000    0.0000000000
H        0.1286730000   -0.0296020000    0.0000000000
H        0.1301880000    0.0073960000    0.0000000000
H        0.1357190000   -0.0264680000    0.0000000000
C       -0.0464870000    0.0613990000   -0.0000000000
H        0.1300410000    0.0130840000   -0.0000000000
13   
Frame  35 IRC: Energy =  -286.8727780000 ; +7.9512 kcal/mol
C       -0.1164950000   -0.0104300000   -0.0000000000
C       -0.2425510000   -0.0968300000   -0.0000000000
C       -0.1266530000    0.6682030000    0.0000000000
C       -0.0540180000   -0.2593060000    0.0000000000
C       -0.0856140000    0.5638500000    0.0000000000
N       -0.1466060000    0.0679500000    0.0000000000
H        0.1362240000    0.0002300000   -0.0000000000
H        0.1570430000    0.0233220000    0.0000000000
H        0.1291460000   -0.0298280000    0.0000000000
H        0.1309260000    0.0073250000    0.0000000000
H        0.1362500000   -0.0260830000    0.0000000000
C       -0.0488070000    0.0772470000   -0.0000000000
H        0.1311550000    0.0143490000   -0.0000000000
13   
Frame  36 IRC: Energy =  -286.8690250000 ; +10.3062 kcal/mol
C       -0.1243730000   -0.0171680000   -0.0000000000
C       -0.2593070000   -0.1040160000    0.0000000000
C       -0.1206610000    0.6515650000    0.0000000000
C       -0.0539350000   -0.2511710000    0.0000000000
C       -0.0822390000    0.5515300000    0.0000000000
N       -0.1263220000    0.0637790000    0.0000000000
H        0.1357080000    0.0008790000   -0.0000000000
H        0.1567370000    0.0242690000    0.0000000000
H        0.1296670000   -0.0292160000    0.0000000000
H        0.1315260000    0.0069320000    0.0000000000
H        0.1368200000   -0.0254040000    0.0000000000
C       -0.0556700000    0.1113490000   -0.0000000000
H        0.1320480000    0.0166720000   -0.0000000000
13   
Frame  37 IRC: Energy =  -286.8644260000 ; +13.1921 kcal/mol
C       -0.1312260000   -0.0288840000   -0.0000000000
C       -0.2815410000   -0.1179030000    0.0000000000
C       -0.1023360000    0.6202880000    0.0000000000
C       -0.0619220000   -0.2351450000    0.0000000000
C       -0.0732720000    0.5251940000    0.0000000000
N       -0.1032020000    0.0593360000    0.0000000000
H        0.1351810000    0.0023190000   -0.0000000000
H        0.1572980000    0.0251890000    0.0000000000
H        0.1301590000   -0.0278800000    0.0000000000
H        0.1319940000    0.0061920000    0.0000000000
H        0.1375550000   -0.0240760000    0.0000000000
C       -0.0701530000    0.1757100000   -0.0000000000
H        0.1314690000    0.0196600000   -0.0000000000
13   
Frame  38 IRC: Energy =  -286.8596010000 ; +16.2199 kcal/mol
C       -0.1361750000   -0.0465320000   -0.0000000000
C       -0.3063560000   -0.1405110000    0.0000000000
C       -0.0753580000    0.5687990000    0.0000000000
C       -0.0758420000   -0.2099230000    0.0000000000
C       -0.0611530000    0.4812150000    0.0000000000
N       -0.0800600000    0.0541980000    0.0000000000
H        0.1347480000    0.0050160000   -0.0000000000
H        0.1588420000    0.0258820000    0.0000000000
H        0.1308310000   -0.0256290000    0.0000000000
H        0.1323190000    0.0051630000    0.0000000000
H        0.1384330000   -0.0219370000    0.0000000000
C       -0.0903360000    0.2815030000   -0.0000000000
H        0.1301060000    0.0227570000   -0.0000000000
13   