13   
Frame   0 IRC: Energy =  -286.8854490000 ; +0.0000 kcal/mol
C        1.4720425503    0.6961620956   -0.5166035396
C        0.3612049871   -0.9199228795    0.0717408197
C       -1.1344368389   -0.9238956779    0.0123397311
C       -1.5989322835    0.2920952617    0.5090768260
C       -0.5310248466    1.1117025647    0.8714011669
N        0.6994751629    0.4352227725    0.6820187780
H        2.0455484707    1.5959178949   -0.7100002244
H        0.7928738265   -1.7554119623    0.6410109666
H       -1.7355710951   -1.7717143295   -0.2897963327
H       -2.6430871703    0.5669634776    0.6161188383
H       -0.5466287652    2.1296155930    1.2371061637
C        1.2289315657   -0.4781389466   -1.1176450996
H        1.5896044365   -0.9785958644   -2.0067680935
13   
Frame   1 IRC: Energy =  -286.8854460000 ; +0.0019 kcal/mol
C        1.4722101659    0.6960503663   -0.5164857311
C        0.3615166595   -0.9198067406    0.0714200367
C       -1.1343484930   -0.9239331077    0.0124460189
C       -1.5989136750    0.2925014750    0.5092916136
C       -0.5312998937    1.1118251192    0.8712508547
N        0.6991200657    0.4351066127    0.6821226029
H        2.0461980599    1.5958796005   -0.7094892333
H        0.7928435608   -1.7553847861    0.6406354327
H       -1.7358727270   -1.7722269123   -0.2892799605
H       -2.6431378090    0.5668317169    0.6162887604
H       -0.5466786063    2.1295684697    1.2364566592
C        1.2287266866   -0.4781542386   -1.1177240631
H        1.5896360057   -0.9782575750   -2.0069329910
13   
Frame   2 IRC: Energy =  -286.8854310000 ; +0.0113 kcal/mol
C        1.4733118846    0.6962007128   -0.5153900093
C        0.3602427378   -0.9196592589    0.0704183450
C       -1.1353744309   -0.9245729676    0.0129562634
C       -1.5996892374    0.2916510961    0.5092281889
C       -0.5315188127    1.1118214293    0.8700172434
N        0.6988324419    0.4349230446    0.6817680641
H        2.0498569341    1.5945457200   -0.7059555669
H        0.7930866560   -1.7554612863    0.6383105846
H       -1.7364943017   -1.7736802563   -0.2851209738
H       -2.6437527841    0.5662971916    0.6175756517
H       -0.5469808480    2.1308572483    1.2327291155
C        1.2287114880   -0.4766829348   -1.1185181644
H        1.5897682724   -0.9762397389   -2.0080187422
13   
Frame   3 IRC: Energy =  -286.8854280000 ; +0.0132 kcal/mol
C        1.4733582558    0.6961240349   -0.5152855625
C        0.3597431729   -0.9197013483    0.0704459595
C       -1.1356588681   -0.9246578108    0.0129976739
C       -1.5998255619    0.2911549857    0.5090520689
C       -0.5313748356    1.1117118634    0.8698529119
N        0.6990310012    0.4349531612    0.6815899092
H        2.0502135430    1.5943422690   -0.7055699215
H        0.7931611958   -1.7554960692    0.6380782640
H       -1.7364179088   -1.7736338592   -0.2845998653
H       -2.6438722417    0.5662832246    0.6177329228
H       -0.5470111823    2.1311861848    1.2323985491
C        1.2288612888   -0.4761854127   -1.1185068309
H        1.5897921409   -0.9760812233   -2.0081860791
13   
Frame   4 IRC: Energy =  -286.8854090000 ; +0.0251 kcal/mol
C        1.4745958243    0.6961220883   -0.5141936932
C        0.3595639007   -0.9193265421    0.0689551224
C       -1.1361974073   -0.9251988846    0.0136032652
C       -1.6003380115    0.2915196218    0.5095135435
C       -0.5321984726    1.1119970699    0.8686112570
N        0.6979772550    0.4345630263    0.6815988589
H        2.0543319203    1.5932368342   -0.7018181703
H        0.7932562503   -1.7554922760    0.6355211818
H       -1.7375653212   -1.7758834373   -0.2803815388
H       -2.6444251740    0.5655879044    0.6190724355
H       -0.5473410050    2.1319861624    1.2281930902
C        1.2283665296   -0.4753004826   -1.1193687005
H        1.5899737112   -0.9738110849   -2.0093066518
13   
Frame   5 IRC: Energy =  -286.8854050000 ; +0.0276 kcal/mol
C        1.4747864694    0.6962134678   -0.5140694041
C        0.3598571067   -0.9192409409    0.0686834042
C       -1.1360814282   -0.9252829460    0.0136589624
C       -1.6004735243    0.2919197814    0.5097106206
C       -0.5323729068    1.1121830135    0.8685365855
N        0.6976748842    0.4344805050    0.6817245207
H        2.0547772789    1.5931731906   -0.7014433375
H        0.7932245124   -1.7554703349    0.6352489089
H       -1.7378013207   -1.7762747561   -0.2800145365
H       -2.6443801318    0.5654674797    0.6191865511
H       -0.5473798604    2.1318748380    1.2276983062
C        1.2281872100   -0.4755153279   -1.1195507496
H        1.5899817106   -0.9735279702   -2.0093698317
13   
Frame   6 IRC: Energy =  -286.8853770000 ; +0.0452 kcal/mol
C        1.4762686759    0.6962233447   -0.5125709275
C        0.3581383928   -0.9189907577    0.0672486576
C       -1.1374957870   -0.9260887155    0.0144008617
C       -1.6013859193    0.2907954038    0.5096616834
C       -0.5327822866    1.1121206203    0.8667573460
N        0.6971826705    0.4341773787    0.6812040805
H        2.0599821530    1.5913313281   -0.6964375583
H        0.7935255782   -1.7555641847    0.6319117154
H       -1.7387095543   -1.7784013194   -0.2741155815
H       -2.6453213689    0.5647242662    0.6210503779
H       -0.5478054697    2.1336791576    1.2223991072
C        1.2281398998   -0.4733168530   -1.1205602365
H        1.5902630155   -0.9706896690   -2.0109495259
13   
Frame   7 IRC: Energy =  -286.8853660000 ; +0.0521 kcal/mol
C        1.4767653472    0.6960983246   -0.5121629254
C        0.3582845082   -0.9187926100    0.0665266589
C       -1.1376302214   -0.9262686817    0.0146718568
C       -1.6015325469    0.2911726528    0.5099483184
C       -0.5332493841    1.1122827627    0.8662539456
N        0.6966205256    0.4339935080    0.6812733960
H        2.0617188392    1.5909365435   -0.6948879257
H        0.7935313445   -1.7555490543    0.6308408125
H       -1.7392593631   -1.7794489929   -0.2724031755
H       -2.6455269549    0.5644151521    0.6216014125
H       -0.5479400202    2.1338960164    1.2206171262
C        1.2278554343   -0.4729971728   -1.1208642339
H        1.5903624915   -0.9697384484   -2.0114152664
13   
Frame   8 IRC: Energy =  -286.8853540000 ; +0.0596 kcal/mol
C        1.4773101987    0.6963090047   -0.5115641925
C        0.3573094890   -0.9187732932    0.0661768648
C       -1.1382921049   -0.9266206435    0.0148962448
C       -1.6019591909    0.2903951339    0.5097721822
C       -0.5331943200    1.1121930005    0.8656108036
N        0.6966646506    0.4339341031    0.6809720933
H        2.0634537089    1.5901517182   -0.6931221552
H        0.7936783640   -1.7556036247    0.6296801064
H       -1.7394218620   -1.7799701308   -0.2702563751
H       -2.6458948963    0.5641949883    0.6222748783
H       -0.5480881896    2.1346953237    1.2188223439
C        1.2279820563   -0.4721492326   -1.1213159608
H        1.5904520962   -0.9687563478   -2.0119468338
13   
Frame   9 IRC: Energy =  -286.8853440000 ; +0.0659 kcal/mol
C        1.4777254503    0.6960385844   -0.5112226230
C        0.3574889901   -0.9185698281    0.0654819616
C       -1.1383940069   -0.9267868337    0.0151510544
C       -1.6021138987    0.2907973426    0.5100630292
C       -0.5336440988    1.1123639027    0.8651416996
N        0.6961111084    0.4337480199    0.6810344025
H        2.0651172630    1.5898293649   -0.6916689797
H        0.7936755497   -1.7555873473    0.6286672187
H       -1.7399532614   -1.7809771723   -0.2686477570
H       -2.6460700878    0.5638967260    0.6227929304
H       -0.5482152209    2.1348720419    1.2171351115
C        1.2277028217   -0.4717423938   -1.1215046521
H        1.5905693914   -0.9678824071   -2.0124233960
13   
Frame  10 IRC: Energy =  -286.8853320000 ; +0.0734 kcal/mol
C        1.4782820206    0.6963292109   -0.5106515009
C        0.3566958220   -0.9185456872    0.0650945819
C       -1.1389499709   -0.9270982713    0.0153703618
C       -1.6025018816    0.2901888696    0.5099501215
C       -0.5336429587    1.1123030844    0.8645484985
N        0.6960905413    0.4336934218    0.6808026529
H        2.0667123751    1.5890830690   -0.6900236526
H        0.7937930738   -1.7556311091    0.6275851089
H       -1.7401452553   -1.7815180734   -0.2666730710
H       -2.6464049692    0.5636847756    0.6234154662
H       -0.5483509564    2.1355573341    1.2154483778
C        1.2277789866   -0.4711133133   -1.1220015041
H        1.5906431725   -0.9669333110   -2.0128654408
13   
Frame  11 IRC: Energy =  -286.8853210000 ; +0.0803 kcal/mol
C        1.4786483137    0.6960303718   -0.5103180589
C        0.3568037151   -0.9183230692    0.0645051654
C       -1.1390758201   -0.9272457481    0.0155965023
C       -1.6026486991    0.2905184875    0.5102310248
C       -0.5340769166    1.1124538918    0.8640702304
N        0.6955525752    0.4335044593    0.6808622415
H        2.0683294311    1.5887949914   -0.6886362710
H        0.7937949295   -1.7556199479    0.6265988483
H       -1.7406283307   -1.7824434887   -0.2651051484
H       -2.6465467337    0.5633981883    0.6239132060
H       -0.5484642439    2.1357165646    1.2138239394
C        1.2275246831   -0.4706541060   -1.1221558507
H        1.5907870962   -0.9661305950   -2.0133858291
13   
Frame  12 IRC: Energy =  -286.8853050000 ; +0.0904 kcal/mol
C        1.4790629455    0.6962841761   -0.5097608251
C        0.3558146796   -0.9182900386    0.0638408453
C       -1.1396617368   -0.9275944740    0.0159524783
C       -1.6031127615    0.2896658951    0.5101304907
C       -0.5339403473    1.1122690766    0.8632416248
N        0.6956343432    0.4334565147    0.6804170440
H        2.0701043681    1.5876858429   -0.6866177760
H        0.7938470237   -1.7554842001    0.6251919454
H       -1.7407233181   -1.7828435610   -0.2626958826
H       -2.6469586424    0.5631749664    0.6246243789
H       -0.5486362375    2.1363768907    1.2117914228
C        1.2278113496   -0.4698475970   -1.1224359146
H        1.5907583337   -0.9648534918   -2.0136798322
13   
Frame  13 IRC: Energy =  -286.8852950000 ; +0.0966 kcal/mol
C        1.4792866455    0.6969322007   -0.5094726082
C        0.3550564605   -0.9184029296    0.0638615223
C       -1.1399954563   -0.9277497636    0.0160139525
C       -1.6033559185    0.2889242626    0.5098867474
C       -0.5336099933    1.1120866381    0.8630003031
N        0.6959561908    0.4335243481    0.6801611024
H        2.0703233543    1.5871192690   -0.6861142605
H        0.7939107444   -1.7554579809    0.6248707896
H       -1.7405323638   -1.7826198717   -0.2620363614
H       -2.6471269153    0.5631851960    0.6248102001
H       -0.5486796368    2.1367708035    1.2114124476
C        1.2280913453   -0.4698131144   -1.1227960220
H        1.5906755435   -0.9644990577   -2.0135978129
13   
Frame  14 IRC: Energy =  -286.8852060000 ; +0.1525 kcal/mol
C        1.4827648111    0.6961552951   -0.5064377256
C        0.3539152358   -0.9174485247    0.0600697048
C       -1.1420559674   -0.9292828582    0.0174620013
C       -1.6049508951    0.2894512377    0.5107687470
C       -0.5358267215    1.1129014761    0.8596940561
N        0.6932730374    0.4324974066    0.6800267294
H        2.0817624561    1.5842944153   -0.6756532161
H        0.7942578004   -1.7558494516    0.6177819815
H       -1.7435966488   -1.7888221431   -0.2498903877
H       -2.6486998365    0.5612875608    0.6288261287
H       -0.5495416746    2.1395389158    1.1997533890
C        1.2267980812   -0.4661461642   -1.1251514521
H        1.5919003219   -0.9585771655   -2.0172499562
13   
Frame  15 IRC: Energy =  -286.8851900000 ; +0.1625 kcal/mol
C        1.4832793617    0.6964936365   -0.5059387768
C        0.3525223590   -0.9175766100    0.0602010145
C       -1.1428974627   -0.9295449484    0.0175242193
C       -1.6054067207    0.2883744576    0.5104220617
C       -0.5357583863    1.1127880844    0.8592218636
N        0.6934589371    0.4324881759    0.6799491615
H        2.0831000706    1.5838963891   -0.6744284024
H        0.7945018436   -1.7560067182    0.6169834746
H       -1.7435042369   -1.7889552166   -0.2482141256
H       -2.6487856471    0.5611190839    0.6293538784
H       -0.5496004253    2.1404055944    1.1985273847
C        1.2269413573   -0.4654148053   -1.1256535993
H        1.5921489495   -0.9580671234   -2.0179481541
13   
Frame  16 IRC: Energy =  -286.8851480000 ; +0.1889 kcal/mol
C        1.4840702327    0.6962293438   -0.5049159932
C        0.3530108077   -0.9168903546    0.0578091259
C       -1.1429333312   -0.9299831750    0.0183354077
C       -1.6058748943    0.2890626110    0.5112575774
C       -0.5364938584    1.1128605698    0.8574535381
N        0.6922557983    0.4320342238    0.6794553311
H        2.0872530758    1.5818782432   -0.6699786512
H        0.7942370391   -1.7556143675    0.6137638191
H       -1.7447515587   -1.7910991650   -0.2432135780
H       -2.6496606611    0.5604427568    0.6309070194
H       -0.5500008104    2.1404647387    1.1935335024
C        1.2267001384   -0.4643521496   -1.1260193455
H        1.5921880221   -0.9550332754   -2.0183877530
13   
Frame  17 IRC: Energy =  -286.8851250000 ; +0.2033 kcal/mol
C        1.4840781311    0.6954601639   -0.5050532944
C        0.3542831533   -0.9162812502    0.0566481192
C       -1.1424355916   -0.9299815986    0.0185946542
C       -1.6056551726    0.2902217338    0.5118373736
C       -0.5368662260    1.1131272536    0.8571889992
N        0.6912633791    0.4318442896    0.6796568653
H        2.0881727303    1.5817170788   -0.6691219089
H        0.7940742761   -1.7555772657    0.6131951063
H       -1.7454028521   -1.7920582513   -0.2424518787
H       -2.6498834667    0.5602494300    0.6311577469
H       -0.5501106783    2.1398944866    1.1923946125
C        1.2262915316   -0.4642552531   -1.1256356320
H        1.5921907858   -0.9543608176   -2.0184107633
13   
Frame  18 IRC: Energy =  -286.8847610000 ; +0.4317 kcal/mol
C        1.4927168482    0.6961496827   -0.4962518591
C        0.3457881352   -0.9153297121    0.0475623459
C       -1.1502560504   -0.9342717926    0.0221307127
C       -1.6111521598    0.2867080865    0.5124495090
C       -0.5402414230    1.1137496915    0.8477828133
N        0.6870467530    0.4292586377    0.6772852018
H        2.1145087397    1.5727782110   -0.6410586882
H        0.7939964697   -1.7573436383    0.5928036393
H       -1.7510995664   -1.8049816447   -0.2074583048
H       -2.6541275593    0.5564762146    0.6425067089
H       -0.5511927720    2.1489588815    1.1615782805
C        1.2258223411   -0.4538026532   -1.1327703548
H        1.5981902440   -0.9383499645   -2.0265600045
13   
Frame  19 IRC: Energy =  -286.8847230000 ; +0.4556 kcal/mol
C        1.4933080694    0.6968992338   -0.4956433803
C        0.3436691457   -0.9155400540    0.0477251821
C       -1.1512944048   -0.9347911660    0.0222010496
C       -1.6117126177    0.2848579368    0.5118118055
C       -0.5394485106    1.1134652996    0.8472404183
N        0.6874861196    0.4293764054    0.6768776283
H        2.1155130079    1.5718854558   -0.6396422223
H        0.7942186059   -1.7575773587    0.5918680741
H       -1.7507498841   -1.8047008314   -0.2054407624
H       -2.6545894009    0.5564793106    0.6431545011
H       -0.5512438213    2.1501556959    1.1602814402
C        1.2263724333   -0.4528479597   -1.1334425231
H        1.5984712574   -0.9376619682   -2.0269912112
13   
Frame  20 IRC: Energy =  -286.8845280000 ; +0.5779 kcal/mol
C        1.4962980107    0.6960950163   -0.4923054505
C        0.3432449733   -0.9143663558    0.0421194004
C       -1.1531242512   -0.9359209715    0.0238403728
C       -1.6134510882    0.2863727206    0.5133679818
C       -0.5421894910    1.1140581992    0.8429846895
N        0.6842059699    0.4277446304    0.6762210221
H        2.1265704607    1.5681650405   -0.6272933933
H        0.7934457986   -1.7580282618    0.5825760035
H       -1.7540408157   -1.8112059832   -0.1901945690
H       -2.6561418688    0.5546905463    0.6480288935
H       -0.5516167018    2.1519125134    1.1462036308
C        1.2254006090   -0.4493320987   -1.1357686539
H        1.6013983944   -0.9301849955   -2.0297799277
13   
Frame  21 IRC: Energy =  -286.8844910000 ; +0.6012 kcal/mol
C        1.4962489766    0.6951507449   -0.4920852072
C        0.3442180993   -0.9143094112    0.0413285328
C       -1.1529160413   -0.9358445912    0.0240333795
C       -1.6136347111    0.2875693168    0.5139396278
C       -0.5432672674    1.1143924623    0.8426354260
N        0.6838755724    0.4273640563    0.6760633560
H        2.1279489142    1.5681965007   -0.6260871997
H        0.7931770246   -1.7578624148    0.5815184404
H       -1.7547375056   -1.8123969815   -0.1888244428
H       -2.6560093440    0.5543715666    0.6484580447
H       -0.5516416793    2.1516254462    1.1446582815
C        1.2249763715   -0.4487906669   -1.1354557374
H        1.6017615902   -0.9294660281   -2.0301825017
13   
Frame  22 IRC: Energy =  -286.8839620000 ; +0.9331 kcal/mol
C        1.5033053111    0.6960720575   -0.4843468693
C        0.3360286716   -0.9131498793    0.0315664792
C       -1.1602372301   -0.9396666132    0.0270517597
C       -1.6183261908    0.2842070488    0.5144965779
C       -0.5449149427    1.1144108610    0.8337434877
N        0.6791128345    0.4244614005    0.6736990144
H        2.1477653691    1.5602925553   -0.6004141498
H        0.7917194437   -1.7610559649    0.5613619814
H       -1.7596425848   -1.8226694580   -0.1545429776
H       -2.6601783018    0.5520973774    0.6593956375
H       -0.5512200134    2.1588173415    1.1156011342
C        1.2257683443   -0.4393541190   -1.1418822924
H        1.6108192892   -0.9144626075   -2.0357297829
13   
Frame  23 IRC: Energy =  -286.8838950000 ; +0.9752 kcal/mol
C        1.5037380700    0.6955999105   -0.4846267103
C        0.3342036902   -0.9113170054    0.0301166863
C       -1.1608803932   -0.9404411659    0.0272562769
C       -1.6182232452    0.2828555460    0.5140557537
C       -0.5435934289    1.1145308623    0.8332646895
N        0.6780093978    0.4244083887    0.6741882054
H        2.1488205225    1.5597438043   -0.5988482470
H        0.7922726140   -1.7623965969    0.5608975227
H       -1.7596074219   -1.8227040411   -0.1523385855
H       -2.6610482476    0.5521930699    0.6601307116
H       -0.5512372151    2.1593690685    1.1138941675
C        1.2260621102   -0.4381295100   -1.1417000014
H        1.6114835471   -0.9137123309   -2.0362904695
13   
Frame  24 IRC: Energy =  -286.8832320000 ; +1.3912 kcal/mol
C        1.5091304917    0.6956533144   -0.4762327814
C        0.3298942409   -0.9130793773    0.0202720144
C       -1.1673296133   -0.9429228974    0.0304427901
C       -1.6233220312    0.2836930553    0.5163284961
C       -0.5485036332    1.1144019278    0.8242944634
N        0.6736366576    0.4200424013    0.6705743199
H        2.1662559900    1.5530052553   -0.5734041095
H        0.7887513048   -1.7644080285    0.5387706098
H       -1.7661548697   -1.8337596291   -0.1166456094
H       -2.6636484996    0.5503604098    0.6710529670
H       -0.5494826860    2.1643300649    1.0837516779
C        1.2263623658   -0.4299280392   -1.1483465233
H        1.6244102826   -0.8973884573   -2.0408583151
13   
Frame  25 IRC: Energy =  -286.8831260000 ; +1.4577 kcal/mol
C        1.5102019337    0.6964907161   -0.4754567052
C        0.3270960468   -0.9121781275    0.0189349184
C       -1.1686962209   -0.9439037331    0.0308380211
C       -1.6238327529    0.2816686705    0.5157634581
C       -0.5472282926    1.1141940362    0.8232077470
N        0.6729548992    0.4197867408    0.6704081491
H        2.1677490913    1.5515486061   -0.5703679201
H        0.7889676037   -1.7656120833    0.5367417984
H       -1.7662135997   -1.8338834071   -0.1121610585
H       -2.6646931435    0.5504963667    0.6724749330
H       -0.5493007340    2.1655678857    1.0803514736
C        1.2270636242   -0.4286981426   -1.1494369355
H        1.6259315446   -0.8954775284   -2.0412978793
13   
Frame  26 IRC: Energy =  -286.8827980000 ; +1.6635 kcal/mol
C        1.5119765965    0.6955170029   -0.4721053375
C        0.3270762036   -0.9130823859    0.0142998711
C       -1.1709153561   -0.9445611632    0.0322339355
C       -1.6257782517    0.2838379452    0.5174394416
C       -0.5504314170    1.1143890383    0.8195373446
N        0.6705309224    0.4175845331    0.6690813656
H        2.1748843914    1.5494984388   -0.5599592155
H        0.7871262360   -1.7662730877    0.5273208080
H       -1.7697464066   -1.8392029475   -0.0972319938
H       -2.6652432323    0.5497074119    0.6769224405
H       -0.5483198033    2.1666456124    1.0675239150
C        1.2266406118   -0.4255949480   -1.1518226283
H        1.6321995054   -0.8884654503   -2.0432399467
13   
Frame  27 IRC: Energy =  -286.8826200000 ; +1.7752 kcal/mol
C        1.5129474897    0.6953380935   -0.4710619866
C        0.3233484835   -0.9124028749    0.0123203044
C       -1.1731041628   -0.9459291767    0.0329383781
C       -1.6267486785    0.2812830043    0.5168598897
C       -0.5492009366    1.1139872659    0.8177445588
N        0.6698053068    0.4169334425    0.6682895308
H        2.1774848639    1.5476634392   -0.5549875894
H        0.7870898989   -1.7677779514    0.5235393692
H       -1.7702253879   -1.8396931820   -0.0897036511
H       -2.6666159949    0.5499259329    0.6792552993
H       -0.5478468663    2.1684349544    1.0617354632
C        1.2277497637   -0.4224649868   -1.1527076747
H        1.6353162205   -0.8852979608   -2.0442218916
13   
Frame  28 IRC: Energy =  -286.8823330000 ; +1.9553 kcal/mol
C        1.5143136302    0.6948837781   -0.4683975027
C        0.3241610386   -0.9132249729    0.0083091042
C       -1.1745778231   -0.9462536549    0.0341236311
C       -1.6281269093    0.2838659599    0.5184738895
C       -0.5520906912    1.1142544720    0.8150341087
N        0.6674554860    0.4150389875    0.6675197533
H        2.1826571235    1.5463563430   -0.5471942749
H        0.7855521511   -1.7682501960    0.5163555712
H       -1.7734855547   -1.8441435537   -0.0782484162
H       -2.6667524000    0.5493741785    0.6825807672
H       -0.5469332124    2.1687498109    1.0518177557
C        1.2271501292   -0.4210618370   -1.1548924815
H        1.6406770321   -0.8795893155   -2.0454819056
13   
Frame  29 IRC: Energy =  -286.8812300000 ; +2.6475 kcal/mol
C        1.5177243400    0.6938567642   -0.4615047736
C        0.3149991605   -0.9150952316   -0.0027106398
C       -1.1842393935   -0.9518803738    0.0402532326
C       -1.6334762274    0.2810359130    0.5205509751
C       -0.5535040666    1.1124490486    0.8052879397
N        0.6612068585    0.4085738403    0.6627523134
H        2.1941854937    1.5384084229   -0.5230322685
H        0.7842023131   -1.7724128586    0.4971648429
H       -1.7841468094   -1.8510247943   -0.0389856125
H       -2.6703289633    0.5524501154    0.6937990249
H       -0.5424425940    2.1723391549    1.0202740884
C        1.2299003204   -0.4122195729   -1.1630346003
H        1.6659195679   -0.8564804280   -2.0508145221
13   
Frame  30 IRC: Energy =  -286.8810440000 ; +2.7642 kcal/mol
C        1.5182093349    0.6944546282   -0.4606016800
C        0.3113108814   -0.9122532557   -0.0051136745
C       -1.1845931231   -0.9531354754    0.0409532824
C       -1.6337199799    0.2798089887    0.5204011587
C       -0.5527621502    1.1123356699    0.8042146262
N        0.6605767807    0.4076240282    0.6625867603
H        2.1951446418    1.5372956901   -0.5204867381
H        0.7851909135   -1.7747470172    0.4962910928
H       -1.7852566828   -1.8513869217   -0.0346737104
H       -2.6713042061    0.5530505851    0.6950820682
H       -0.5419698544    2.1728251780    1.0168837349
C        1.2304876323   -0.4120316658   -1.1642910540
H        1.6686858120   -0.8538404323   -2.0512458666
13   
Frame  31 IRC: Energy =  -286.8799010000 ; +3.4814 kcal/mol
C        1.5194152105    0.6910320717   -0.4561924449
C        0.3089906295   -0.9201120571   -0.0122287941
C       -1.1938906474   -0.9579180342    0.0500832241
C       -1.6389219505    0.2805458381    0.5247385554
C       -0.5564270449    1.1105864811    0.7952498020
N        0.6541406968    0.4013293685    0.6564484657
H        2.2026822538    1.5306443736   -0.5017142361
H        0.7836119495   -1.7744580519    0.4823271346
H       -1.7982090088   -1.8573978638   -0.0037788661
H       -2.6728960008    0.5580810264    0.7029867012
H       -0.5373565061    2.1734764191    0.9920276400
C        1.2328241008   -0.4061256223   -1.1723100493
H        1.6960363178   -0.8296839492   -2.0576371324
13   
Frame  32 IRC: Energy =  -286.8794560000 ; +3.7607 kcal/mol
C        1.5195928795    0.6902765328   -0.4550936355
C        0.3035070602   -0.9182978395   -0.0159870774
C       -1.1958099807   -0.9607760346    0.0532669514
C       -1.6402910596    0.2786622946    0.5253520619
C       -0.5555705085    1.1099842245    0.7924095460
N        0.6527946160    0.3989038438    0.6543695085
H        2.2042678699    1.5279847854   -0.4960588615
H        0.7850183505   -1.7771599981    0.4801505977
H       -1.8021482462   -1.8582295636    0.0056770906
H       -2.6747732060    0.5604447827    0.7055054257
H       -0.5359699694    2.1742891123    0.9846875074
C        1.2346043336   -0.4044056007   -1.1749302439
H        1.7047778608   -0.8216765396   -2.0593488710
13   
Frame  33 IRC: Energy =  -286.8779490000 ; +4.7063 kcal/mol
C        1.5199142684    0.6852204878   -0.4529243893
C        0.3012835713   -0.9269586719   -0.0201057031
C       -1.2052725865   -0.9667349185    0.0683657018
C       -1.6453835303    0.2795077263    0.5321129699
C       -0.5594297305    1.1090997613    0.7824574839
N        0.6453268656    0.3928481923    0.6466787392
H        2.2080674321    1.5210732051   -0.4796610693
H        0.7847774647   -1.7766312990    0.4717077604
H       -1.8168520003   -1.8628548481    0.0305513668
H       -2.6763664007    0.5682264084    0.7103281352
H       -0.5311669319    2.1738673701    0.9650584781
C        1.2385984327   -0.4018649450   -1.1851070711
H        1.7365031455   -0.7947984687   -2.0694624025
13   
Frame  34 IRC: Energy =  -286.8757270000 ; +6.1007 kcal/mol
C        1.5196827353    0.6775874269   -0.4535218982
C        0.2919236328   -0.9322649819   -0.0234118230
C       -1.2126706591   -0.9751232853    0.0938161740
C       -1.6519196362    0.2787766523    0.5417011609
C       -0.5612144220    1.1090692846    0.7702849446
N        0.6380052816    0.3857736853    0.6341888406
H        2.2082323724    1.5127706490   -0.4618077228
H        0.7875749093   -1.7810529999    0.4686392935
H       -1.8321837486   -1.8656306043    0.0518021339
H       -2.6830569437    0.5799556865    0.7124452716
H       -0.5265851817    2.1752420601    0.9489748634
C        1.2484177766   -0.4022921914   -1.1985705216
H        1.7737938835   -0.7628113821   -2.0845407170
13   
Frame  35 IRC: Energy =  -286.8727780000 ; +7.9512 kcal/mol
C        1.5213341073    0.6685288170   -0.4551259999
C        0.2845626106   -0.9401408223   -0.0172747593
C       -1.2207358941   -0.9820175927    0.1254772000
C       -1.6602464928    0.2820035720    0.5509237071
C       -0.5651431339    1.1107572861    0.7605571334
N        0.6296925394    0.3802169805    0.6217363336
H        2.2063412624    1.5061382877   -0.4454210572
H        0.7898973543   -1.7866637385    0.4668598930
H       -1.8447378519   -1.8685822311    0.0664478684
H       -2.6913578925    0.5913965245    0.7123127284
H       -0.5227570828    2.1770294342    0.9376156588
C        1.2611988938   -0.4036277191   -1.2171264313
H        1.8119515802   -0.7350387984   -2.1069822751
13   
Frame  36 IRC: Energy =  -286.8690250000 ; +10.3062 kcal/mol
C        1.5234820493    0.6592236785   -0.4562935852
C        0.2677316411   -0.9457650159    0.0051986212
C       -1.2289089423   -0.9867962015    0.1551930615
C       -1.6676585815    0.2861217601    0.5572890497
C       -0.5682873509    1.1122112400    0.7537125082
N        0.6204749376    0.3756721362    0.6101444829
H        2.2039178858    1.5015594528   -0.4327935655
H        0.7938737525   -1.7946200703    0.4647188628
H       -1.8527859991   -1.8706841853    0.0761576479
H       -2.6980941597    0.6003594457    0.7112657194
H       -0.5195911164    2.1781376970    0.9296520378
C        1.2787588260   -0.3998161165   -1.2400689741
H        1.8470870575   -0.7156038208   -2.1341758667
13   
Frame  37 IRC: Energy =  -286.8644260000 ; +13.1921 kcal/mol
C        1.5262118532    0.6510390042   -0.4578754309
C        0.2452297373   -0.9529279933    0.0408558377
C       -1.2350045568   -0.9904208102    0.1793556725
C       -1.6734688382    0.2910943389    0.5618111437
C       -0.5709487432    1.1130679274    0.7488882267
N        0.6104582243    0.3706206815    0.5996534331
H        2.2013506759    1.4981123264   -0.4234979082
H        0.7971421099   -1.8003201569    0.4596583496
H       -1.8576231637   -1.8720810464    0.0829571281
H       -2.7029938455    0.6070078418    0.7101363024
H       -0.5170012181    2.1785843475    0.9238308074
C        1.3009865976   -0.3918324669   -1.2664657746
H        1.8756611674   -0.7019439941   -2.1593077876
13   
Frame  38 IRC: Energy =  -286.8596010000 ; +16.2199 kcal/mol
C        1.5288322940    0.6436831928   -0.4594389462
C        0.2194008892   -0.9591909335    0.0829259418
C       -1.2395731142   -0.9933750213    0.1996326771
C       -1.6782890173    0.2962983945    0.5651097717
C       -0.5729785466    1.1133754699    0.7450378263
N        0.6002319057    0.3648469020    0.5899638407
H        2.1987390298    1.4953121244   -0.4162620541
H        0.8004956000   -1.8051981875    0.4527960091
H       -1.8607835757   -1.8731852627    0.0882963192
H       -2.7067741988    0.6122890043    0.7090254448
H       -0.5147202921    2.1786408889    0.9191206819
C        1.3257382037   -0.3815805587   -1.2935487003
H        1.8996808222   -0.6919160132   -2.1826588120
13   