13   
Frame   0 IRC: Energy =  -286.8854490000 ; +0.0000 kcal/mol
C        1.4720425503    0.6961620956   -0.5166035396
C        0.3612049871   -0.9199228795    0.0717408197
C       -1.1344368389   -0.9238956779    0.0123397311
C       -1.5989322835    0.2920952617    0.5090768260
C       -0.5310248466    1.1117025647    0.8714011669
N        0.6994751629    0.4352227725    0.6820187780
H        2.0455484707    1.5959178949   -0.7100002244
H        0.7928738265   -1.7554119623    0.6410109666
H       -1.7355710951   -1.7717143295   -0.2897963327
H       -2.6430871703    0.5669634776    0.6161188383
H       -0.5466287652    2.1296155930    1.2371061637
C        1.2289315657   -0.4781389466   -1.1176450996
H        1.5896044365   -0.9785958644   -2.0067680935
13   
Frame   1 IRC: Energy =  -286.8847702643 ; +0.4259 kcal/mol
C        1.4924969821    0.6961321336   -0.4964758666
C        0.3460043439   -0.9153539299    0.0477935901
C       -1.1500570100   -0.9341626019    0.0220407157
C       -1.6110122546    0.2867975132    0.5124339294
C       -0.5401555201    1.1137338497    0.8480222124
N        0.6871540713    0.4293244457    0.6773455636
H        2.1138384556    1.5730057162   -0.6417729320
H        0.7939984499   -1.7572986819    0.5933226274
H       -1.7509545779   -1.8046527283   -0.2083489347
H       -2.6540195419    0.5565722476    0.6422178638
H       -0.5511652313    2.1487281814    1.1623625944
C        1.2258342826   -0.4540686848   -1.1325887673
H        1.5980375504   -0.9387574606   -2.0263525962
13   
Frame   2 IRC: Energy =  -286.8832618610 ; +1.3725 kcal/mol
C        1.5088876210    0.6956509091   -0.4766108377
C        0.3300883352   -0.9130000014    0.0207154110
C       -1.1670391453   -0.9428111220    0.0302992719
C       -1.6230923857    0.2836553345    0.5162261335
C       -0.5482824813    1.1144077349    0.8246984756
N        0.6738336025    0.4202390421    0.6707370866
H        2.1654707096    1.5533087544   -0.5745500942
H        0.7889099019   -1.7643174352    0.5397671893
H       -1.7658599776   -1.8332616937   -0.1182531941
H       -2.6635313862    0.5504429515    0.6705610369
H       -0.5495617087    2.1641066254    1.0851092730
C        1.2263488425   -0.4302974273   -1.1480471689
H        1.6238280721   -0.8981236722   -2.0406525828
13   
Frame   3 IRC: Energy =  -286.8807343808 ; +2.9585 kcal/mol
C        1.5185359860    0.6935275161   -0.4594072935
C        0.3106823648   -0.9143820706   -0.0070410388
C       -1.1871116635   -0.9544309889    0.0434264276
C       -1.6351291048    0.2800085886    0.5215760853
C       -0.5537549075    1.1118618445    0.8017862086
N        0.6588333556    0.4059189125    0.6609240012
H        2.1971864520    1.5354939621   -0.5154015882
H        0.7847631991   -1.7746687415    0.4925084952
H       -1.7887652465   -1.8530151832   -0.0263048252
H       -2.6717353961    0.5544132457    0.6972232982
H       -0.5407201772    2.1730015881    1.0101506437
C        1.2311205417   -0.4104318196   -1.1664632627
H        1.6760945965   -0.8472968539   -2.0529771512
13   
Frame   4 IRC: Energy =  -286.8765475640 ; +5.5857 kcal/mol
C        1.5197682383    0.6804062457   -0.4533012437
C        0.2953801715   -0.9303054107   -0.0221909035
C       -1.2099386193   -0.9720255391    0.0844175501
C       -1.6495059128    0.2790466312    0.5381603307
C       -0.5605553520    1.1090805394    0.7747801507
N        0.6407090748    0.3883862353    0.6388012446
H        2.2081714615    1.5158367061   -0.4684007985
H        0.7865418389   -1.7794201067    0.4697724500
H       -1.8265218758   -1.8646055432    0.0439544223
H       -2.6805861881    0.5756241727    0.7116634327
H       -0.5282771797    2.1747343998    0.9549143935
C        1.2447915837   -0.4021344132   -1.1935985939
H        1.7600227590   -0.7746239172   -2.0789724350
13   
Frame   5 IRC: Energy =  -286.8689009145 ; +10.3841 kcal/mol
C        1.5235557021    0.6590028481   -0.4563362649
C        0.2671245178   -0.9459582800    0.0061606877
C       -1.2290734079   -0.9868939970    0.1558449922
C       -1.6678153479    0.2862559251    0.5574110602
C       -0.5683591578    1.1122343543    0.7535823444
N        0.6202046769    0.3755358431    0.6098614241
H        2.2038486200    1.5014664459   -0.4325427596
H        0.7939619359   -1.7947738641    0.4645823252
H       -1.8529165105   -1.8707218740    0.0763411045
H       -2.6982263580    0.6005388259    0.7112352467
H       -0.5195212384    2.1781497481    0.9294949753
C        1.2793585529   -0.3996007099   -1.2407811855
H        1.8478580148   -0.7152352654   -2.1348539504
13   
Frame   6 IRC: Energy =  -286.8580636415 ; +17.1846 kcal/mol
C        1.5299266642    0.6407368403   -0.4604016375
C        0.2075653421   -0.9621474999    0.1021792937
C       -1.2402929717   -0.9946418991    0.2063027356
C       -1.6797058914    0.2986785178    0.5661294911
C       -0.5736456478    1.1132604271    0.7437571654
N        0.5956673691    0.3622406193    0.5863093057
H        2.1977776097    1.4946475528   -0.4139427303
H        0.8017557311   -1.8064962846    0.4489447311
H       -1.8615204309   -1.8733808333    0.0902155350
H       -2.7079756536    0.6140569948    0.7086067389
H       -0.5138810791    2.1784650476    0.9174514424
C        1.3367839033   -0.3765417651   -1.3044820956
H        1.9075450548   -0.6888777177   -2.1910699754
13   
Frame   7 IRC: Energy =  -286.8554342030 ; +18.8346 kcal/mol (Transition State)
C        1.5338401841    0.6244994406   -0.4661930545
C        0.1455152258   -0.9795843922    0.2154264881
C       -1.2461182377   -1.0017108583    0.2425629941
C       -1.6880253659    0.3130125281    0.5710932640
C       -0.5784590927    1.1129244335    0.7349179281
N        0.5720249063    0.3434733946    0.5684735356
H        2.1908502778    1.4898011066   -0.4018116900
H        0.8073224899   -1.8105719368    0.4219628761
H       -1.8667826207   -1.8754664388    0.1014726819
H       -2.7150212073    0.6241258977    0.7063812335
H       -0.5090269431    2.1778486763    0.9082549668
C        1.4055885305   -0.3438642400   -1.3645325019
H        1.9482918530   -0.6744876113   -2.2380087218
13   
Frame   8 IRC: Energy =  -286.8617075782 ; +14.8980 kcal/mol
C        1.5327909925    0.6070773739   -0.4684268669
C        0.1029920386   -0.9979292462    0.3196114989
C       -1.2619188839   -1.0096974385    0.2878487380
C       -1.6991829605    0.3263840923    0.5745184073
C       -0.5854168632    1.1148271413    0.7191143984
N        0.5555043060    0.3219510179    0.5585215135
H        2.1778169665    1.4829496862   -0.3864485826
H        0.8096143459   -1.8127362686    0.3855544989
H       -1.8788748619   -1.8801067734    0.1186961869
H       -2.7250688219    0.6382904373    0.7034556719
H       -0.5027436478    2.1782681240    0.8963579906
C        1.4820645676   -0.3087301657   -1.4176293075
H        1.9924228222   -0.6605479806   -2.2911741474
13   
Frame   9 IRC: Energy =  -286.8676289066 ; +11.1823 kcal/mol
C        1.5329608546    0.5872513672   -0.4680338416
C        0.0766665207   -1.0174506816    0.3830326207
C       -1.2839995223   -1.0209430625    0.3468184112
C       -1.7110206953    0.3337291152    0.5824800864
C       -0.5897036430    1.1149422267    0.6946260451
N        0.5420159867    0.3014053915    0.5472321242
H        2.1549076862    1.4778953498   -0.3592835226
H        0.7996253627   -1.8181213921    0.3439177455
H       -1.9025396402   -1.8848821140    0.1595044651
H       -2.7361558068    0.6598318606    0.6986661293
H       -0.4935278981    2.1767040658    0.8716844174
C        1.5591086290   -0.2823270579   -1.4571176121
H        2.0516621659   -0.6280350687   -2.3435270686
13   
Frame  10 IRC: Energy =  -286.8720894620 ; +8.3832 kcal/mol
C        1.5377050742    0.5742616020   -0.4672732837
C        0.0543992703   -1.0347597125    0.3966092604
C       -1.3083707104   -1.0285368723    0.3955663457
C       -1.7215158268    0.3349632359    0.5974550344
C       -0.5915920909    1.1080554682    0.6702522397
N        0.5290024514    0.2780417902    0.5209120844
H        2.1330156948    1.4779196001   -0.3275671189
H        0.7742996065   -1.8336980125    0.3074284062
H       -1.9362398080   -1.8914306102    0.2297223222
H       -2.7414589199    0.6810290999    0.7006793961
H       -0.4806188153    2.1718739457    0.8291791455
C        1.6244063034   -0.2671779907   -1.4774377657
H        2.1269677707   -0.5705415440   -2.3755260663
13   
Frame  11 IRC: Energy =  -286.8759732723 ; +5.9461 kcal/mol
C        1.5433982971    0.5659323751   -0.4683317129
C        0.0308837382   -1.0511391637    0.3870082941
C       -1.3321954898   -1.0346705361    0.4294500899
C       -1.7309992798    0.3349127334    0.6135411330
C       -0.5923580929    1.0998037358    0.6480285766
N        0.5136902447    0.2572659632    0.4870916450
H        2.1183957689    1.4783588123   -0.3003488381
H        0.7423752914   -1.8551854698    0.2760200868
H       -1.9714957753   -1.8962658727    0.3071193955
H       -2.7452758658    0.6968113864    0.7174438465
H       -0.4668494773    2.1649477467    0.7802253563
C        1.6792272216   -0.2551291058   -1.4896127148
H        2.2112034189   -0.5056426049   -2.3876351579
13   
Frame  12 IRC: Energy =  -286.8794351776 ; +3.7737 kcal/mol
C        1.5480672998    0.5583325012   -0.4715526351
C        0.0074532885   -1.0652700664    0.3705765806
C       -1.3560510939   -1.0379226646    0.4581885761
C       -1.7408730227    0.3351358715    0.6310536216
C       -0.5955911950    1.0913219078    0.6259301040
N        0.4975870121    0.2374202209    0.4480422814
H        2.1072147147    1.4754145959   -0.2764122349
H        0.7084597963   -1.8765270359    0.2454105469
H       -2.0051086672   -1.8985489519    0.3804488022
H       -2.7485120217    0.7089486303    0.7461265142
H       -0.4553307733    2.1583612592    0.7318132173
C        1.7309571355   -0.2439715818   -1.5005948276
H        2.3017275269   -0.4426946863   -2.3890305467
13   
Frame  13 IRC: Energy =  -286.8825614802 ; +1.8119 kcal/mol
C        1.5519356190    0.5503954713   -0.4774114256
C       -0.0178508539   -1.0785643187    0.3499721608
C       -1.3790125844   -1.0405702346    0.4843560580
C       -1.7501763953    0.3357419580    0.6505442001
C       -0.5996191544    1.0840250116    0.6037546857
N        0.4788969980    0.2201009330    0.4050284888
H        2.0972312756    1.4695419022   -0.2545104786
H        0.6731048573   -1.8965660979    0.2125976761
H       -2.0360513947   -1.8980858823    0.4492689279
H       -2.7515842829    0.7197319825    0.7841728584
H       -0.4469835860    2.1513362263    0.6852960542
C        1.7834130019   -0.2336492988   -1.5117401419
H        2.3966964999   -0.3834376526   -2.3813290637
13   
Frame  14 IRC: Energy =  -286.8853254926 ; +0.0775 kcal/mol
C        1.5546428068    0.5415671507   -0.4861661310
C       -0.0432541496   -1.0899057987    0.3256821071
C       -1.4011708015   -1.0411830801    0.5081740515
C       -1.7593038583    0.3368722092    0.6716494282
C       -0.6054476071    1.0771012538    0.5819708249
N        0.4591234085    0.2036307587    0.3581437319
H        2.0870982309    1.4620921134   -0.2347004054
H        0.6366839232   -1.9148355755    0.1763086473
H       -2.0641794491   -1.8962287658    0.5130164964
H       -2.7527685726    0.7295507543    0.8294216453
H       -0.4415537791    2.1449409627    0.6418676872
C        1.8357549898   -0.2236243772   -1.5198408453
H        2.4943748581   -0.3299776057   -2.3655272382
13   
Frame  15 IRC: Energy =  -286.8877776705 ; -1.4613 kcal/mol
C        1.5561836827    0.5334180748   -0.4962046262
C       -0.0714130573   -1.1012402555    0.2981005226
C       -1.4212420873   -1.0430989449    0.5290831217
C       -1.7656868152    0.3387646140    0.6938347054
C       -0.6107135618    1.0720085818    0.5610240916
N        0.4365114196    0.1911435581    0.3092746173
H        2.0749285292    1.4541422546   -0.2175342658
H        0.5992221814   -1.9312886059    0.1356528567
H       -2.0881953861   -1.8919756619    0.5712960288
H       -2.7526429479    0.7393874708    0.8803512496
H       -0.4384398588    2.1376591469    0.6022733036
C        1.8896897732   -0.2158133370   -1.5272679513
H        2.5917981283   -0.2831068958   -2.3398836540
13   
Frame  16 IRC: Energy =  -286.8898462121 ; -2.7593 kcal/mol
C        1.5565649190    0.5249501500   -0.5085224679
C       -0.1001879523   -1.1118111560    0.2672457939
C       -1.4394600857   -1.0444509582    0.5471539430
C       -1.7702521102    0.3420462954    0.7169922501
C       -0.6170849352    1.0679081399    0.5413296522
N        0.4128173582    0.1798919667    0.2582256132
H        2.0592166384    1.4473840378   -0.2038891694
H        0.5602817670   -1.9457015866    0.0898694646
H       -2.1094300113   -1.8868327697    0.6238950877
H       -2.7494382027    0.7489987678    0.9358164113
H       -0.4366643895    2.1304971717    0.5669755810
C        1.9439512520   -0.2096401032   -1.5300099597
H        2.6896857524   -0.2432399556   -2.3050822001
13   
Frame  17 IRC: Energy =  -286.8916830091 ; -3.9119 kcal/mol
C        1.5535199748    0.5178645844   -0.5198185115
C       -0.1266341407   -1.1177744098    0.2334963339
C       -1.4580037733   -1.0411024777    0.5628871206
C       -1.7754715012    0.3436025402    0.7406519374
C       -0.6229280815    1.0621614995    0.5224867316
N        0.3903622431    0.1671622972    0.2050519536
H        2.0391680206    1.4421140092   -0.1948797448
H        0.5207162593   -1.9592736070    0.0395202419
H       -2.1286206715   -1.8819589564    0.6706954032
H       -2.7413860506    0.7580141542    0.9931213219
H       -0.4351771321    2.1259414315    0.5360633546
C        1.9980645001   -0.2064820102   -1.5278243004
H        2.7863903529   -0.2102690551   -2.2614518420
13   
Frame  18 IRC: Energy =  -286.8929601113 ; -4.7133 kcal/mol
C        1.5488692924    0.5140710212   -0.5354344711
C       -0.1557647326   -1.1217076164    0.1914733136
C       -1.4717793162   -1.0396100730    0.5703340066
C       -1.7766750831    0.3476593518    0.7645602533
C       -0.6314205375    1.0603905858    0.5043901076
N        0.3686616976    0.1598221259    0.1585169188
H        2.0159200615    1.4436709798   -0.1934453716
H        0.4790927563   -1.9666770752   -0.0245354505
H       -2.1436260239   -1.8768486122    0.7062436042
H       -2.7286196311    0.7647277667    1.0585905126
H       -0.4353396911    2.1217251892    0.5152047890
C        2.0515156184   -0.2102900214   -1.5155681634
H        2.8791655892   -0.1969336222   -2.2003300490
13   
Frame  19 IRC: Energy =  -286.8939746971 ; -5.3500 kcal/mol
C        1.5426634500    0.5152989819   -0.5524782461
C       -0.1848154702   -1.1218090184    0.1437913929
C       -1.4867529370   -1.0365904194    0.5726379420
C       -1.7772902727    0.3494424382    0.7879917681
C       -0.6402311047    1.0592416768    0.4849147884
N        0.3496132548    0.1565845634    0.1178955046
H        1.9929850386    1.4463695957   -0.1963766680
H        0.4373674359   -1.9696654724   -0.0975707405
H       -2.1550631849   -1.8713134612    0.7345541588
H       -2.7126571490    0.7685622923    1.1295574826
H       -0.4373567083    2.1197258273    0.5008820080
C        2.1020548010   -0.2170864655   -1.4946038410
H        2.9694828466   -0.1987605387   -2.1311955498
13   
Frame  20 IRC: Energy =  -286.8949210169 ; -5.9438 kcal/mol
C        1.5350885772    0.5122309751   -0.5713851715
C       -0.2123389951   -1.1248881345    0.1046233178
C       -1.5021237684   -1.0330978123    0.5723109150
C       -1.7762933221    0.3519015103    0.8065670687
C       -0.6430334950    1.0562255027    0.4750275690
N        0.3289617096    0.1510091593    0.0723331667
H        1.9541849860    1.4575454475   -0.2193346601
H        0.3954468407   -1.9767625511   -0.1593916832
H       -2.1694007796   -1.8639876834    0.7541887109
H       -2.6949584823    0.7746719464    1.1880754537
H       -0.4299601221    2.1149415803    0.5000132933
C        2.1557012999   -0.2265380650   -1.4679309869
H        3.0587255512   -0.1932518754   -2.0550969935
13   
Frame  21 IRC: Energy =  -286.8957817557 ; -6.4839 kcal/mol
C        1.5271024908    0.5060712900   -0.5892834972
C       -0.2384623225   -1.1293042475    0.0703796829
C       -1.5168698915   -1.0293488471    0.5700906649
C       -1.7733285915    0.3545510540    0.8228392089
C       -0.6415942395    1.0521581109    0.4715802500
N        0.3078870055    0.1442660302    0.0250383980
H        1.9048701122    1.4751029284   -0.2572357525
H        0.3533463666   -1.9853601611   -0.2163128862
H       -2.1851350853   -1.8557986369    0.7659179843
H       -2.6756481512    0.7817376935    1.2379975428
H       -0.4167231577    2.1085635984    0.5069517888
C        2.2103194897   -0.2386018597   -1.4346402126
H        3.1442359745   -0.1840369529   -1.9733231721
13   
Frame  22 IRC: Energy =  -286.8964096249 ; -6.8779 kcal/mol
C        1.5217845840    0.4981556689   -0.5947325917
C       -0.2622683078   -1.1304055473    0.0328532187
C       -1.5266583185   -1.0258789613    0.5667961658
C       -1.7651640094    0.3558124337    0.8438273069
C       -0.6381617290    1.0489727378    0.4694633756
N        0.2902648455    0.1394617212   -0.0140230835
H        1.8541467183    1.4977044139   -0.3063054714
H        0.3109448391   -1.9874481492   -0.2864799702
H       -2.1981714842   -1.8492696293    0.7647589925
H       -2.6535916381    0.7859027745    1.2848739580
H       -0.4048920112    2.1033553193    0.5088449860
C        2.2590973009   -0.2556946100   -1.3849045122
H        3.2126692104   -0.1806681723   -1.8849723745
13   
Frame  23 IRC: Energy =  -286.8967989098 ; -7.1222 kcal/mol
C        1.5136521244    0.4957860155   -0.6057592790
C       -0.2827501733   -1.1266016879   -0.0042951427
C       -1.5339829556   -1.0226590045    0.5595478684
C       -1.7571629227    0.3557103666    0.8639382797
C       -0.6329436151    1.0468460198    0.4774686018
N        0.2735523297    0.1407159315   -0.0507387602
H        1.8104646362    1.5192667943   -0.3660633964
H        0.2725753636   -1.9810645258   -0.3591215246
H       -2.2097285074   -1.8444434763    0.7507486537
H       -2.6355035973    0.7856189912    1.3246544630
H       -0.3922361428    2.0989102178    0.5263874975
C        2.3014574065   -0.2758797561   -1.3272123314
H        3.2726060537   -0.1922058861   -1.7895549297
13   
Frame  24 IRC: Energy =  -286.8970352814 ; -7.2705 kcal/mol
C        1.5096849527    0.4945552758   -0.6103760904
C       -0.3016932588   -1.1202462616   -0.0417692652
C       -1.5408016507   -1.0195725398    0.5480252111
C       -1.7488621394    0.3544614810    0.8843210147
C       -0.6289832707    1.0459629927    0.4867271631
N        0.2592743557    0.1447779815   -0.0812943301
H        1.7702959285    1.5409945476   -0.4361470250
H        0.2369351008   -1.9702022465   -0.4317600359
H       -2.2212652925   -1.8401783486    0.7280901948
H       -2.6181656991    0.7817780952    1.3640374616
H       -0.3814670776    2.0956324740    0.5481538530
C        2.3413780378   -0.2971778514   -1.2603117754
H        3.3236700134   -0.2107856000   -1.6976963763
13   
Frame  25 IRC: Energy =  -286.8971313098 ; -7.3308 kcal/mol
C        1.5081986894    0.4997781939   -0.6158081128
C       -0.3144812735   -1.1118623273   -0.0729550392
C       -1.5462577553   -1.0165651985    0.5318442963
C       -1.7440569659    0.3528922193    0.8960605933
C       -0.6247857743    1.0457783898    0.5002469973
N        0.2532018843    0.1506950908   -0.0934366051
H        1.7324869037    1.5646597223   -0.5148854201
H        0.2132895599   -1.9553476655   -0.4912325734
H       -2.2330305927   -1.8352831175    0.6961556864
H       -2.6086710770    0.7752292628    1.3885454960
H       -0.3678575231    2.0915646977    0.5847560820
C        2.3756636018   -0.3169773865   -1.1833792941
H        3.3563003226   -0.2445618813   -1.6259121068
