
Running Job 1 of 1 irc_transition.in
qchem irc_transition.in_96814.0 ./irc_transition.d/ 1
/home/leeping/opt/qchem/5.0.2-openmp/exe/qcprog.exe_s irc_transition.in_96814.0 ./irc_transition.d/
Check license passed

                  Welcome to Q-Chem
     A Quantum Leap Into The Future Of Chemistry


 Q-Chem 5.0, Q-Chem, Inc., Pleasanton, CA (2017)

 Yihan Shao,  Zhengting Gan,  E. Epifanovsky,  A. T. B. Gilbert,  M. Wormit,  
 J. Kussmann,  A. W. Lange,  A. Behn,  Jia Deng,  Xintian Feng,  D. Ghosh,  
 M. Goldey,  P. R. Horn,  L. D. Jacobson,  I. Kaliman,  T. Kus,  A. Landau,  
 Jie Liu,  E. I. Proynov,  R. M. Richard,  R. P. Steele,  E. J. Sundstrom,  
 H. L. Woodcock III,  P. M. Zimmerman,  D. Zuev,  B. Albrecht,  E. Alguire,  
 S. A. Baeppler,  D. Barton,  Z. Benda,  Y. A. Bernard,  E. J. Berquist,  
 K. B. Bravaya,  H. Burton,  D. Casanova,  Chun-Min Chang,  Yunqing Chen,  
 A. Chien,  K. D. Closser,  M. P. Coons,  S. Dasgupta,  A. L. Dempwolff,  
 M. Diedenhofen,  Hainam Do,  R. G. Edgar,  Po-Tung Fang,  S. Fatehi,  
 Qingguo Feng,  J. Fosso-Tande,  Qinghui Ge,  A. Ghysels,  G. Gidofalvi,  
 J. Gomes,  J. Gonthier,  A. Gunina,  M. W. D. Hanson-Heine,  
 P. H. P. Harbach,  A. W. Hauser,  J. E. Herr,  E. G. Hohenstein,  
 Z. C. Holden,  Kerwin Hui,  T.-C. Jagau,  Hyunjun Ji,  B. Kaduk,  
 K. Khistyaev,  Jaehoon Kim,  P. Klunzinger,  K. Koh,  D. Kosenkov,  
 L. Koulias,  T. Kowalczyk,  C. M. Krauter,  A. Kunitsa,  Ka Un Lao,  
 A. Laurent,  K. V. Lawler,  Joonho Lee,  D. Lefrancois,  S. Lehtola,  
 D. S. Levine,  Yi-Pei Li,  You-Sheng Lin,  Fenglai Liu,  E. Livshits,  
 A. Luenser,  P. Manohar,  E. Mansoor,  S. F. Manzer,  Shan-Ping Mao,  
 Yuezhi Mao,  N. Mardirossian,  A. V. Marenich,  T. Markovich,  
 L. A. Martinez-Martinez,  S. A. Maurer,  N. J. Mayhall,  S. C. McKenzie,  
 J.-M. Mewes,  A. F. Morrison,  J. W. Mullinax,  K. Nanda,  
 T. S. Nguyen-Beck,  R. Olivares-Amaya,  J. A. Parkhill,  T. M. Perrine,  
 F. Plasser,  S. Prager,  A. Prociuk,  E. Ramos,  D. R. Rehn,  F. Rob,  
 M. Schneider,  N. Sergueev,  S. M. Sharada,  S. Sharma,  D. W. Small,  
 T. Stauch,  T. Stein,  Yu-Chuan Su,  A. J. W. Thom,  A. Tkatchenko,  
 T. Tsuchimochi,  L. Vogt,  O. Vydrov,  M. A. Watson,  J. Wenzel,  
 M. de Wergifosse,  T. A. Wesolowski,  A. White,  J. Witte,  A. Yamada,  
 Jun Yang,  K. Yao,  S. Yeganeh,  S. R. Yost,  Zhi-Qiang You,  A. Zech,  
 Igor Ying Zhang,  Xing Zhang,  Yan Zhao,  Ying Zhu,  B. R. Brooks,  
 G. K. L. Chan,  C. J. Cramer,  M. S. Gordon,  W. J. Hehre,  A. Klamt,  
 M. W. Schmidt,  C. D. Sherrill,  D. G. Truhlar,  A. Aspuru-Guzik,  R. Baer,  
 A. T. Bell,  N. A. Besley,  Jeng-Da Chai,  R. A. DiStasio Jr.,  A. Dreuw,  
 B. D. Dunietz,  T. R. Furlani,  Chao-Ping Hsu,  Yousung Jung,  Jing Kong,  
 D. S. Lambrecht,  WanZhen Liang,  C. Ochsenfeld,  V. A. Rassolov,  
 L. V. Slipchenko,  J. E. Subotnik,  T. Van Voorhis,  J. M. Herbert,  
 A. I. Krylov,  P. M. W. Gill,  M. Head-Gordon

 Contributors to earlier versions of Q-Chem not listed above: 
 R. D. Adamson,  B. Austin,  J. Baker,  G. J. O. Beran,  K. Brandhorst,  
 S. T. Brown,  E. F. C. Byrd,  A. K. Chakraborty,  C.-L. Cheng,  
 Siu Hung Chien,  D. M. Chipman,  D. L. Crittenden,  H. Dachsel,  
 R. J. Doerksen,  A. D. Dutoi,  L. Fusti-Molnar,  W. A. Goddard III,  
 A. Golubeva-Zadorozhnaya,  S. R. Gwaltney,  G. Hawkins,  A. Heyden,  
 S. Hirata,  G. Kedziora,  F. J. Keil,  C. Kelley,  Jihan Kim,  R. A. King,  
 R. Z. Khaliullin,  P. P. Korambath,  W. Kurlancheek,  A. M. Lee,  M. S. Lee,  
 S. V. Levchenko,  Ching Yeh Lin,  D. Liotard,  R. C. Lochan,  I. Lotan,  
 P. E. Maslen,  N. Nair,  D. P. O'Neill,  D. Neuhauser,  E. Neuscamman,  
 C. M. Oana,  R. Olson,  B. Peters,  R. Peverati,  P. A. Pieniazek,  
 Y. M. Rhee,  J. Ritchie,  M. A. Rohrdanz,  E. Rosta,  N. J. Russ,  
 H. F. Schaefer III,  N. E. Schultz,  N. Shenvi,  A. C. Simmonett,  A. Sodt,  
 D. Stuck,  K. S. Thanthiriwatte,  V. Vanovschi,  Tao Wang,  A. Warshel,  
 C. F. Williams,  Q. Wu,  X. Xu,  W. Zhang

 Please cite Q-Chem as follows:
 Y. Shao et al., Mol. Phys. 113, 184-215 (2015)
 DOI: 10.1080/00268976.2014.952696

 Q-Chem 5.0.2 for Intel X86 EM64T Linux

 Parts of Q-Chem use Armadillo 5.200.1 (Boston Tea Smuggler).
 http://arma.sourceforge.net/

 Q-Chem begins on Tue Mar  1 16:55:23 2022  

Host: 
0

     Scratch files written to ./irc_transition.d//
 Dec517 15110_ 26548  26544 5633   
Processing $rem in /home/leeping/opt/qchem/5.0.2-openmp/config/preferences.
 MEM_STATIC 2000
 MEM_TOTAL  8000
 SYMMETRY   OFF
 SYM_IGNORE TRUE 

Checking the input file for inconsistencies... 	...done.

--------------------------------------------------------------
User input:
--------------------------------------------------------------
$molecule
0 2
C        1.5274819430    0.6164978298   -0.4609263992
C        0.1637743143   -0.9918618398    0.1782326539
C       -1.2444471552   -1.0214135441    0.2321067793
C       -1.6893703191    0.2843323370    0.5736893981
C       -0.5827810601    1.0915903181    0.7432211409
N        0.5751960187    0.3322982669    0.5771327680
H        2.1856546774    1.4796601691   -0.4011169159
H        0.8071303917   -1.8269028672    0.4304555562
H       -1.8635983016   -1.8980535425    0.0976529761
H       -2.7175190008    0.5939976937    0.7123091589
H       -0.5194719889    2.1565481259    0.9184615217
C        1.3787127891   -0.3675397618   -1.3437596245
H        1.9323579513   -0.6878615021   -2.2219982755
$end

$rem
method                b3lyp
basis                 6-31+g(d,p)
unrestricted          true
symmetry              off
sym_ignore            true
incdft                false
incfock               0
scf_convergence       8
thresh                14
jobtype               sp
scf_guess             read
scf_algorithm         diis
max_scf_cycles        100
scf_final_print       1
$end

--------------------------------------------------------------
 ----------------------------------------------------------------
             Standard Nuclear Orientation (Angstroms)
    I     Atom           X                Y                Z
 ----------------------------------------------------------------
    1      C       1.5274819430     0.6164978298    -0.4609263992
    2      C       0.1637743143    -0.9918618398     0.1782326539
    3      C      -1.2444471552    -1.0214135441     0.2321067793
    4      C      -1.6893703191     0.2843323370     0.5736893981
    5      C      -0.5827810601     1.0915903181     0.7432211409
    6      N       0.5751960187     0.3322982669     0.5771327680
    7      H       2.1856546774     1.4796601691    -0.4011169159
    8      H       0.8071303917    -1.8269028672     0.4304555562
    9      H      -1.8635983016    -1.8980535425     0.0976529761
   10      H      -2.7175190008     0.5939976937     0.7123091589
   11      H      -0.5194719889     2.1565481259     0.9184615217
   12      C       1.3787127891    -0.3675397618    -1.3437596245
   13      H       1.9323579513    -0.6878615021    -2.2219982755
 ----------------------------------------------------------------
 Nuclear Repulsion Energy =   270.3502851647 hartrees
 There are       25 alpha and       24 beta electrons
 Requested basis set is 6-31+G(d,p)
 There are 53 shells and 163 basis functions

 Total QAlloc Memory Limit   8000 MB
 Mega-Array Size      1956 MB
 MEM_STATIC part      2000 MB

                       Distance Matrix (Angstroms)
             C (  1)   C (  2)   C (  3)   C (  4)   C (  5)   N (  6)
   C (  2)  2.203416
   C (  3)  3.293424  1.409561
   C (  4)  3.395424  2.284557  1.421129
   C (  5)  2.475660  2.284148  2.272405  1.380198
   N (  6)  1.437075  1.442841  2.294053  2.265077  1.394640
   H (  7)  1.087114  3.245315  4.292079  4.170716  3.020653  2.206125
   H (  8)  2.698828  1.083890  2.212945  3.272666  3.247657  2.176570
   H (  9)  4.258451  2.222142  1.081630  2.240485  3.315904  3.339474
   H ( 10)  4.404205  3.331972  2.238323  1.082681  2.192182  3.305863
   H ( 11)  2.909379  3.305639  3.331083  2.234440  1.081135  2.154690
   C ( 12)  1.330360  2.045071  3.129197  3.676232  3.214344  2.196643
   H ( 13)  2.228599  2.996901  4.028148  4.677387  4.276085  3.273797
             H (  7)   H (  8)   H (  9)   H ( 10)   H ( 11)   C ( 12)
   H (  8)  3.677662
   H (  9)  5.296619  2.692325
   H ( 10)  5.105412  4.285248  2.705051
   H ( 11)  3.084992  4.226808  4.349735  2.704713
   C ( 12)  2.225282  2.367337  3.864288  4.683064  3.884813
   H ( 13)  2.842168  3.098236  4.610274  5.645766  4.895368  1.086477

 
 A cutoff of  1.0D-14 yielded   1380 shell pairs
 There are     13420 function pairs
 
 -------------------------------------------------------
 OpenMP Integral Computing Module                       
 Release: version 1.0, May 2013, Q-Chem Inc. Pittsburgh 
 -------------------------------------------------------
 Integral Job Info:
 Integral job number is                      11
 Integral operator is                         1
 short-range coefficients                     0
 long-range coefficients              100000000
 Omega coefficients                           0
 if combine SR and LR in K                    0
 Integral screening is                        0
 Integral computing path is                   2
 max size of driver memory is            800000
 size of driver memory is                593474
 size of scratch memory is              2361544
 max col of scratch BK array               1296
 max len of scratch array in speh3          155
 max len of scratch index in speh4           18
 max int batch size is                      520
 min int batch size is                       52
 fixed nKL is                                52
 max L of basis functions is                  2
 order of int derivative is                   0
 number of shells is                         53
 number of basis is                         163
 number of cartesian basis is               163
 number of contracted shell pairs          1380
 number of primitive shell pairs           4650
 maxK2 (contraction) of shell pair           36
 max number of K2 of shell pair               1
 max number of CS2 of shell pair            130
 max number of PS2 of shell pair            678
 mem total for path MDJ                  534060
 -------------------------------------------------------
 Smallest overlap matrix eigenvalue = 1.63E-05

 Scale SEOQF with 1.000000e-01/1.000000e-01/1.000000e-01

 Standard Electronic Orientation quadrupole field applied
 Nucleus-field energy     =     0.0000000026 hartrees
 Guess MOs from SCF MO coefficient file
 Reading MOs from coefficient file
 Reading MOs from coefficient file
 An unrestricted hybrid HF-DFT SCF calculation will be
 performed using Pulay DIIS extrapolation
 Exchange:     0.2000 Hartree-Fock + 0.0800 Slater + 0.7200 B88
 Correlation:  0.1900 VWN1RPA + 0.8100 LYP
 Using SG-1 standard quadrature grid
 SCF converges when DIIS error is below 1.0E-08
Using Q-Chem read-in guess as SCF_GUESS READ specified.

 using 4 threads for integral computing
 -------------------------------------------------------
 OpenMP Integral computing Module                
 Release: version 1.0, May 2013, Q-Chem Inc. Pittsburgh 
 -------------------------------------------------------
 -------------------------------------------------------
 OpenMP BLAS3 based DFT computing Module                
 Release: version 1.0, May 2013, Q-Chem Inc. Pittsburgh 
 -------------------------------------------------------
 ---------------------------------------
  Cycle       Energy         DIIS Error
 ---------------------------------------
    1    -286.8545406148      6.67E-10
    2    -286.8545406148      1.00E-09 Convergence criterion met
 ---------------------------------------
 One-Electron    Energy =  -921.0351298229
 Total Coulomb   Energy =   405.4037486691
 Alpha Exchange  Energy =    -4.0160635344
 Beta  Exchange  Energy =    -3.9170508923
 DFT   Exchange  Energy =   -31.5345447142
 DFT Correlation Energy =    -2.1057854874
 Nuclear Repu.   Energy =   270.3502851673
 Nuclear Attr.   Energy = -1205.1099305899
 Kinetic         Energy =   284.0748007670
 <S^2> = 0.7803
 SCF time:  CPU 9.73 s  wall 3.47 s
 Final Alpha MO Eigenvalues
            1           2           3           4           5           6
    1 -14.3802423 -10.2383487 -10.2306589 -10.2299794 -10.2022241 -10.1995869
            7           8           9          10          11          12
    1 -10.1976100  -0.9957986  -0.8198264  -0.7508531  -0.7093106  -0.6108853
           13          14          15          16          17          18
    1  -0.5815713  -0.5537039  -0.5166513  -0.4909925  -0.4348326  -0.4204272
           19          20          21          22          23          24
    1  -0.4102302  -0.3991684  -0.3682972  -0.3045266  -0.2852034  -0.2473434
           25          26          27          28          29          30
    1  -0.1711199  -0.0139210   0.0020358   0.0112002   0.0228390   0.0247826
 Final Beta MO Eigenvalues
            1           2           3           4           5           6
    1 -14.3782840 -10.2402572 -10.2316895 -10.2263312 -10.2006662 -10.1927894
            7           8           9          10          11          12
    1 -10.1920458  -0.9913083  -0.8137595  -0.7424941  -0.7041689  -0.6009874
           13          14          15          16          17          18
    1  -0.5773378  -0.5493902  -0.5117438  -0.4844072  -0.4273533  -0.4169255
           19          20          21          22          23          24
    1  -0.4082460  -0.3963478  -0.3612852  -0.2934782  -0.2588619  -0.2340018
           25          26          27          28          29
    1  -0.0810822  -0.0047329   0.0077687   0.0123066   0.0246890
 SCF   energy in the final basis set = -286.85454061
 Total energy in the final basis set = -286.85454061
 
 --------------------------------------------------------------
 
                    Orbital Energies (a.u.)
 --------------------------------------------------------------
 
 Alpha MOs
 -- Occupied --
-14.380 -10.238 -10.231 -10.230 -10.202 -10.200 -10.198  -0.996
 -0.820  -0.751  -0.709  -0.611  -0.582  -0.554  -0.517  -0.491
 -0.435  -0.420  -0.410  -0.399  -0.368  -0.305  -0.285  -0.247
 -0.171
 -- Virtual --
 -0.014   0.002   0.011   0.023   0.025   0.037   0.041   0.047
  0.054   0.064   0.074   0.082   0.091   0.097   0.113   0.115
  0.126   0.129   0.143   0.149   0.155   0.163   0.179   0.193
  0.197   0.203   0.207   0.218   0.223   0.229   0.239   0.253
  0.260   0.266   0.280   0.287   0.296   0.303   0.331   0.343
  0.390   0.420   0.458   0.507   0.642   0.654   0.672   0.699
  0.705   0.719   0.727   0.738   0.751   0.761   0.782   0.801
  0.846   0.854   0.859   0.892   0.905   0.917   0.941   0.957
  0.980   1.014   1.038   1.057   1.069   1.126   1.139   1.162
  1.183   1.213   1.235   1.310   1.352   1.373   1.391   1.445
  1.461   1.506   1.615   1.661   1.714   1.783   1.839   1.854
  1.877   1.910   1.920   1.930   1.966   1.990   2.024   2.059
  2.122   2.151   2.179   2.236   2.266   2.278   2.361   2.384
  2.390   2.436   2.459   2.473   2.492   2.516   2.544   2.568
  2.591   2.627   2.632   2.672   2.691   2.748   2.759   2.799
  2.881   2.900   2.955   3.047   3.207   3.254   3.262   3.339
  3.530   3.693   3.763   4.258   4.349   4.382   4.419   4.559
  4.674   4.773
 
 Beta MOs
 -- Occupied --
-14.378 -10.240 -10.232 -10.226 -10.201 -10.193 -10.192  -0.991
 -0.814  -0.742  -0.704  -0.601  -0.577  -0.549  -0.512  -0.484
 -0.427  -0.417  -0.408  -0.396  -0.361  -0.293  -0.259  -0.234
 -- Virtual --
 -0.081  -0.005   0.008   0.012   0.025   0.025   0.040   0.043
  0.047   0.057   0.066   0.075   0.085   0.094   0.100   0.114
  0.118   0.127   0.132   0.145   0.151   0.157   0.165   0.181
  0.193   0.198   0.204   0.210   0.220   0.224   0.232   0.241
  0.256   0.262   0.269   0.283   0.290   0.298   0.304   0.337
  0.347   0.393   0.424   0.463   0.515   0.647   0.658   0.679
  0.703   0.713   0.721   0.732   0.744   0.754   0.768   0.790
  0.806   0.851   0.858   0.861   0.896   0.906   0.921   0.944
  0.964   0.985   1.019   1.042   1.060   1.077   1.131   1.143
  1.166   1.187   1.216   1.239   1.316   1.358   1.379   1.396
  1.450   1.469   1.516   1.622   1.676   1.729   1.792   1.844
  1.861   1.883   1.918   1.923   1.937   1.969   1.996   2.030
  2.064   2.128   2.160   2.186   2.242   2.271   2.285   2.363
  2.387   2.394   2.440   2.466   2.480   2.499   2.517   2.553
  2.571   2.600   2.632   2.637   2.677   2.696   2.752   2.764
  2.804   2.884   2.904   2.957   3.054   3.208   3.255   3.267
  3.341   3.532   3.702   3.766   4.264   4.353   4.385   4.429
  4.565   4.681   4.777
 --------------------------------------------------------------
 
          Ground-State Mulliken Net Atomic Charges

     Atom                 Charge (a.u.)    Spin (a.u.)
  --------------------------------------------------------
      1 C                    -0.133431      -0.094528
      2 C                    -0.331342      -0.167126
      3 C                    -0.023111       0.381496
      4 C                    -0.108635      -0.124435
      5 C                    -0.043155       0.314018
      6 N                    -0.054696       0.045282
      7 H                     0.135938       0.016121
      8 H                     0.163306       0.023380
      9 H                     0.131369      -0.017421
     10 H                     0.131729       0.002396
     11 H                     0.139202      -0.014142
     12 C                    -0.136444       0.612352
     13 H                     0.129269       0.022607
  --------------------------------------------------------
  Sum of atomic charges =     0.000000
  Sum of spin   charges =     1.000000

 -----------------------------------------------------------------
                    Cartesian Multipole Moments
 -----------------------------------------------------------------
    Charge (ESU x 10^10)
                 0.0000
    Dipole Moment (Debye)
         X      -0.0689      Y       0.3872      Z       0.1126
       Tot       0.4091
    Quadrupole Moments (Debye-Ang)
        XX     -38.8598     XY       0.7111     YY     -37.1305
        XZ      -1.9461     YZ       1.0618     ZZ     -45.2764
    Octopole Moments (Debye-Ang^2)
       XXX     -10.1079    XXY       2.5259    XYY      -0.1142
       YYY       3.3915    XXZ      -3.5543    XYZ      -1.2162
       YYZ       1.2091    XZZ       3.4036    YZZ      -0.5761
       ZZZ     -11.5897
    Hexadecapole Moments (Debye-Ang^3)
      XXXX    -417.1006   XXXY      -4.5643   XXYY    -100.1428
      XYYY      -7.5785   YYYY    -212.2941   XXXZ      68.8161
      XXYZ      -4.1122   XYYZ      25.8319   YYYZ     -15.5679
      XXZZ    -103.2757   XYZZ     -10.0680   YYZZ     -73.5685
      XZZZ      73.9541   YZZZ     -16.2312   ZZZZ    -197.1976
 -----------------------------------------------------------------
 Mayer SCF Bond Order, atomic valence on the diagonal:

            1           2           3           4           5           6
    1   3.8668914  -0.0228609   0.0164353  -0.0443980  -0.0847719   0.9660564
    2  -0.0228609   4.1438518   1.3896739   0.0402609   0.0383367   1.1106506
    3   0.0164353   1.3896739   3.8974551   1.4945903   0.0853681  -0.1018948
    4  -0.0443980   0.0402609   1.4945903   4.3242471   1.7349137   0.0588174
    5  -0.0847719   0.0383367   0.0853681   1.7349137   3.7276033   0.9553763
    6   0.9660564   1.1106506  -0.1018948   0.0588174   0.9553763   2.7714683
    7   0.9108123   0.0533039  -0.0080601   0.0088514  -0.0091571  -0.0357699
    8   0.0184947   0.8947604   0.0194182   0.0113348   0.0140097  -0.0134324
    9  -0.0016268   0.0094446   0.8884800   0.0281551   0.0127471   0.0085078
   10   0.0005603   0.0065166   0.0402181   0.8503015   0.0453998   0.0061985
   11   0.0072308   0.0145974   0.0148811   0.0247603   0.9268241  -0.0354476
   12   2.0600826   0.5984826   0.0510122   0.1159717   0.0023356  -0.1571467
   13   0.0408767   0.0106851   0.0073331   0.0006881   0.0062212   0.0095526
            7           8           9          10          11          12
    1   0.9108123   0.0184947  -0.0016268   0.0005603   0.0072308   2.0600826
    2   0.0533039   0.8947604   0.0094446   0.0065166   0.0145974   0.5984826
    3  -0.0080601   0.0194182   0.8884800   0.0402181   0.0148811   0.0510122
    4   0.0088514   0.0113348   0.0281551   0.8503015   0.0247603   0.1159717
    5  -0.0091571   0.0140097   0.0127471   0.0453998   0.9268241   0.0023356
    6  -0.0357699  -0.0134324   0.0085078   0.0061985  -0.0354476  -0.1571467
    7   0.9502498   0.0002665   0.0006066   0.0000757   0.0005631   0.0281399
    8   0.0002665   0.9384407   0.0003200   0.0015426   0.0016365  -0.0104563
    9   0.0006066   0.0003200   0.9550527   0.0006341   0.0015532   0.0061962
   10   0.0000757   0.0015426   0.0006341   0.9530499   0.0005032   0.0010772
   11   0.0005631   0.0016365   0.0015532   0.0005032   0.9531338  -0.0040469
   12   0.0281399  -0.0104563   0.0061962   0.0010772  -0.0040469   3.5750943
   13   0.0006175   0.0005460   0.0000348   0.0000223   0.0000787   0.8834463
           13
    1   0.0408767
    2   0.0106851
    3   0.0073331
    4   0.0006881
    5   0.0062212
    6   0.0095526
    7   0.0006175
    8   0.0005460
    9   0.0000348
   10   0.0000223
   11   0.0000787
   12   0.8834463
   13   0.9601024


Archival summary:
1\1\c8-90\SP\ProcedureUnspecified\6-31+G**\166(2)\hpark21\TueMar116:55:322022TueMar116:55:322022\0\\#,ProcedureUnspecified,6-31+G**,\\0,2\N\C,1,1.39464\H,2,1.08113,1,120.462\C,2,1.3802,1,109.429,3,176.835,0\H,4,1.08268,2,125.336,1,175.606,0\C,4,1.42113,2,108.416,1,-2.51985,0\H,6,1.08163,4,126.537,2,175.701,0\C,6,1.40956,4,107.62,2,-0.779537,0\H,8,1.08389,6,124.608,4,148.081,0\C,1,1.43708,2,121.908,3,-58.3006,0\H,10,1.08711,1,121.23,2,73.1687,0\C,10,1.33036,1,105.009,2,-107.9,0\H,12,1.08648,10,134.227,1,-170.497,0\\\@

 Total job time:  8.44s(wall), 11.13s(cpu) 
 Tue Mar  1 16:55:32 2022

        *************************************************************
        *                                                           *
        *  Thank you very much for using Q-Chem.  Have a nice day.  *
        *                                                           *
        *************************************************************


