
Running Job 1 of 1 qcfsm.in
qchem qcfsm.in_25439.0 ./qcfsm.d/ 1
/home/leeping/opt/qchem/5.0.2-openmp/exe/qcprog.exe_s qcfsm.in_25439.0 ./qcfsm.d/
Check license passed

                  Welcome to Q-Chem
     A Quantum Leap Into The Future Of Chemistry


 Q-Chem 5.0, Q-Chem, Inc., Pleasanton, CA (2017)

 Yihan Shao,  Zhengting Gan,  E. Epifanovsky,  A. T. B. Gilbert,  M. Wormit,  
 J. Kussmann,  A. W. Lange,  A. Behn,  Jia Deng,  Xintian Feng,  D. Ghosh,  
 M. Goldey,  P. R. Horn,  L. D. Jacobson,  I. Kaliman,  T. Kus,  A. Landau,  
 Jie Liu,  E. I. Proynov,  R. M. Richard,  R. P. Steele,  E. J. Sundstrom,  
 H. L. Woodcock III,  P. M. Zimmerman,  D. Zuev,  B. Albrecht,  E. Alguire,  
 S. A. Baeppler,  D. Barton,  Z. Benda,  Y. A. Bernard,  E. J. Berquist,  
 K. B. Bravaya,  H. Burton,  D. Casanova,  Chun-Min Chang,  Yunqing Chen,  
 A. Chien,  K. D. Closser,  M. P. Coons,  S. Dasgupta,  A. L. Dempwolff,  
 M. Diedenhofen,  Hainam Do,  R. G. Edgar,  Po-Tung Fang,  S. Fatehi,  
 Qingguo Feng,  J. Fosso-Tande,  Qinghui Ge,  A. Ghysels,  G. Gidofalvi,  
 J. Gomes,  J. Gonthier,  A. Gunina,  M. W. D. Hanson-Heine,  
 P. H. P. Harbach,  A. W. Hauser,  J. E. Herr,  E. G. Hohenstein,  
 Z. C. Holden,  Kerwin Hui,  T.-C. Jagau,  Hyunjun Ji,  B. Kaduk,  
 K. Khistyaev,  Jaehoon Kim,  P. Klunzinger,  K. Koh,  D. Kosenkov,  
 L. Koulias,  T. Kowalczyk,  C. M. Krauter,  A. Kunitsa,  Ka Un Lao,  
 A. Laurent,  K. V. Lawler,  Joonho Lee,  D. Lefrancois,  S. Lehtola,  
 D. S. Levine,  Yi-Pei Li,  You-Sheng Lin,  Fenglai Liu,  E. Livshits,  
 A. Luenser,  P. Manohar,  E. Mansoor,  S. F. Manzer,  Shan-Ping Mao,  
 Yuezhi Mao,  N. Mardirossian,  A. V. Marenich,  T. Markovich,  
 L. A. Martinez-Martinez,  S. A. Maurer,  N. J. Mayhall,  S. C. McKenzie,  
 J.-M. Mewes,  A. F. Morrison,  J. W. Mullinax,  K. Nanda,  
 T. S. Nguyen-Beck,  R. Olivares-Amaya,  J. A. Parkhill,  T. M. Perrine,  
 F. Plasser,  S. Prager,  A. Prociuk,  E. Ramos,  D. R. Rehn,  F. Rob,  
 M. Schneider,  N. Sergueev,  S. M. Sharada,  S. Sharma,  D. W. Small,  
 T. Stauch,  T. Stein,  Yu-Chuan Su,  A. J. W. Thom,  A. Tkatchenko,  
 T. Tsuchimochi,  L. Vogt,  O. Vydrov,  M. A. Watson,  J. Wenzel,  
 M. de Wergifosse,  T. A. Wesolowski,  A. White,  J. Witte,  A. Yamada,  
 Jun Yang,  K. Yao,  S. Yeganeh,  S. R. Yost,  Zhi-Qiang You,  A. Zech,  
 Igor Ying Zhang,  Xing Zhang,  Yan Zhao,  Ying Zhu,  B. R. Brooks,  
 G. K. L. Chan,  C. J. Cramer,  M. S. Gordon,  W. J. Hehre,  A. Klamt,  
 M. W. Schmidt,  C. D. Sherrill,  D. G. Truhlar,  A. Aspuru-Guzik,  R. Baer,  
 A. T. Bell,  N. A. Besley,  Jeng-Da Chai,  R. A. DiStasio Jr.,  A. Dreuw,  
 B. D. Dunietz,  T. R. Furlani,  Chao-Ping Hsu,  Yousung Jung,  Jing Kong,  
 D. S. Lambrecht,  WanZhen Liang,  C. Ochsenfeld,  V. A. Rassolov,  
 L. V. Slipchenko,  J. E. Subotnik,  T. Van Voorhis,  J. M. Herbert,  
 A. I. Krylov,  P. M. W. Gill,  M. Head-Gordon

 Contributors to earlier versions of Q-Chem not listed above: 
 R. D. Adamson,  B. Austin,  J. Baker,  G. J. O. Beran,  K. Brandhorst,  
 S. T. Brown,  E. F. C. Byrd,  A. K. Chakraborty,  C.-L. Cheng,  
 Siu Hung Chien,  D. M. Chipman,  D. L. Crittenden,  H. Dachsel,  
 R. J. Doerksen,  A. D. Dutoi,  L. Fusti-Molnar,  W. A. Goddard III,  
 A. Golubeva-Zadorozhnaya,  S. R. Gwaltney,  G. Hawkins,  A. Heyden,  
 S. Hirata,  G. Kedziora,  F. J. Keil,  C. Kelley,  Jihan Kim,  R. A. King,  
 R. Z. Khaliullin,  P. P. Korambath,  W. Kurlancheek,  A. M. Lee,  M. S. Lee,  
 S. V. Levchenko,  Ching Yeh Lin,  D. Liotard,  R. C. Lochan,  I. Lotan,  
 P. E. Maslen,  N. Nair,  D. P. O'Neill,  D. Neuhauser,  E. Neuscamman,  
 C. M. Oana,  R. Olson,  B. Peters,  R. Peverati,  P. A. Pieniazek,  
 Y. M. Rhee,  J. Ritchie,  M. A. Rohrdanz,  E. Rosta,  N. J. Russ,  
 H. F. Schaefer III,  N. E. Schultz,  N. Shenvi,  A. C. Simmonett,  A. Sodt,  
 D. Stuck,  K. S. Thanthiriwatte,  V. Vanovschi,  Tao Wang,  A. Warshel,  
 C. F. Williams,  Q. Wu,  X. Xu,  W. Zhang

 Please cite Q-Chem as follows:
 Y. Shao et al., Mol. Phys. 113, 184-215 (2015)
 DOI: 10.1080/00268976.2014.952696

 Q-Chem 5.0.2 for Intel X86 EM64T Linux

 Parts of Q-Chem use Armadillo 5.200.1 (Boston Tea Smuggler).
 http://arma.sourceforge.net/

 Q-Chem begins on Tue Mar  1 05:42:16 2022  

Host: 
0

     Scratch files written to ./qcfsm.d//
 Dec517 15110_ 26548  26544 5633   
Processing $rem in /home/leeping/opt/qchem/5.0.2-openmp/config/preferences.
 MEM_STATIC 2000
 MEM_TOTAL  8000
 SYMMETRY   OFF
 SYM_IGNORE TRUE 
 Now reading second FSM geometry

Checking the input file for inconsistencies... 	...done.

--------------------------------------------------------------
User input:
--------------------------------------------------------------
$molecule
0 2
C        1.3474869406    0.8471001124   -0.5697777411
C        0.2490375546   -1.4171812593   -0.2303871444
C       -0.9302069982   -1.0642963781    0.3547474483
C       -1.3746982504    0.2693859506    0.6698884406
C       -0.7127301464    1.4634708896    0.4556439758
N        0.4884936252    1.7744687665   -0.0859559543
H        2.2580764442    1.3017070838   -0.9663872920
H        0.4252343762   -2.4780783497   -0.3966659290
H       -1.6166538675   -1.8670772986    0.6162310157
H       -2.3528024560    0.3518423940    1.1377209736
H       -1.2544346136    2.3530580177    0.7845821709
C        1.3014918557   -0.5316964602   -0.6593645415
H        2.1717055355   -1.0027034685   -1.1102754222
****
C        1.5318036026    0.2376704625   -0.7051446845
C       -0.2663822870   -1.2891438191    0.0244490077
C       -1.4968454115   -1.1576114542    0.6171748834
C       -1.7176875461    0.2385673433    0.8317602775
C       -0.6162002806    0.9098443364    0.3620420183
N        0.2780124456   -0.0237771152   -0.1326696085
H        2.0512690981   -0.6709624628   -1.0213829841
H        0.2796264255   -2.1623311283   -0.3036296638
H       -2.1671552187   -1.9674156180    0.8716009903
H       -2.5902095825    0.6943491784    1.2804741772
H       -0.3749725142    1.9618162106    0.3294628536
C        2.0836501416    1.4231165387   -0.8718502313
H        3.0050911270    1.8058775279   -1.2822870359
$end

$rem
method                b3lyp
basis                 6-31g(d)
unrestricted          true
symmetry              off
sym_ignore            true
incdft                false
incfock               0
scf_convergence       8
thresh                14
jobtype               fsm
scf_guess             core
scf_guess_mix         5
scf_algorithm         diis
max_scf_cycles        100
fsm_nnode             21
fsm_ngrad             6
fsm_mode              2
fsm_opt_mode          2
$end

--------------------------------------------------------------
 ----------------------------------------------------------------
             Standard Nuclear Orientation (Angstroms)
    I     Atom           X                Y                Z
 ----------------------------------------------------------------
    1      C       1.3474869406     0.8471001124    -0.5697777411
    2      C       0.2490375546    -1.4171812593    -0.2303871444
    3      C      -0.9302069982    -1.0642963781     0.3547474483
    4      C      -1.3746982504     0.2693859506     0.6698884406
    5      C      -0.7127301464     1.4634708896     0.4556439758
    6      N       0.4884936252     1.7744687665    -0.0859559543
    7      H       2.2580764442     1.3017070838    -0.9663872920
    8      H       0.4252343762    -2.4780783497    -0.3966659290
    9      H      -1.6166538675    -1.8670772986     0.6162310157
   10      H      -2.3528024560     0.3518423940     1.1377209736
   11      H      -1.2544346136     2.3530580177     0.7845821709
   12      C       1.3014918557    -0.5316964602    -0.6593645415
   13      H       2.1717055355    -1.0027034685    -1.1102754222
 ----------------------------------------------------------------
 Nuclear Repulsion Energy =   260.7268116202 hartrees
 There are       25 alpha and       24 beta electrons
 Requested basis set is 6-31G(d)
 There are 40 shells and 117 basis functions

 Total QAlloc Memory Limit   8000 MB
 Mega-Array Size      1956 MB
 MEM_STATIC part      2000 MB
 beginning FSman 

*******************************************
*******************************************
******** Starting FSM Calculation *********
*******************************************
*******************************************
-FSM parameters:
 Maximum displacement of each coordinate during optimization (Angstrom)      0.05
 Maximum optimization steps for each new node                                6
 The scaling factor for optimization (hartrees/Angstrom^2)                   1.75
 The number of LST interpolations used for reparameterization                100
-Aligning product structure to maximum coincidence with the reactant structure
 Total R --> P Distance 4.876696
 New node interpolation distace (Angstroms): 0.23
-Performing force calculation on reactant structure in state:0
 ----------------------------------------------------------------
             Standard Nuclear Orientation (Angstroms)
    I     Atom           X                Y                Z
 ----------------------------------------------------------------
    1      C       1.3474869406     0.8471001124    -0.5697777411
    2      C       0.2490375546    -1.4171812593    -0.2303871444
    3      C      -0.9302069982    -1.0642963781     0.3547474483
    4      C      -1.3746982504     0.2693859506     0.6698884406
    5      C      -0.7127301464     1.4634708896     0.4556439758
    6      N       0.4884936252     1.7744687665    -0.0859559543
    7      H       2.2580764442     1.3017070838    -0.9663872920
    8      H       0.4252343762    -2.4780783497    -0.3966659290
    9      H      -1.6166538675    -1.8670772986     0.6162310157
   10      H      -2.3528024560     0.3518423940     1.1377209736
   11      H      -1.2544346136     2.3530580177     0.7845821709
   12      C       1.3014918557    -0.5316964602    -0.6593645415
   13      H       2.1717055355    -1.0027034685    -1.1102754222
 ----------------------------------------------------------------
 Nuclear Repulsion Energy =   260.7268116202 hartrees
 There are       25 alpha and       24 beta electrons

                       Distance Matrix (Angstroms)
             C (  1)   C (  2)   C (  3)   C (  4)   C (  5)   N (  6)
   C (  2)  2.539438
   C (  3)  3.113852  1.362912
   C (  4)  3.046444  2.508291  1.440692
   C (  5)  2.382414  3.113486  2.539111  1.382006
   N (  6)  1.353501  3.203877  3.203985  2.511585  1.353879
   H (  7)  1.092309  3.459810  4.184318  4.115840  3.297580  2.032261
   H (  8)  3.455044  1.088208  2.097766  3.453383  4.190132  4.264352
   H (  9)  4.190406  2.097611  1.088136  2.150790  3.454767  4.264454
   H ( 10)  4.105237  3.430851  2.154594  1.087361  2.095420  3.405028
   H ( 11)  3.297301  4.183933  3.459508  2.090289  1.092250  2.032339
   C ( 12)  1.382469  1.440752  2.508499  3.093645  3.046478  2.511605
   H ( 13)  2.096007  2.154680  3.431027  4.167034  4.105373  3.405161
             H (  7)   H (  8)   H (  9)   H ( 10)   H ( 11)   C ( 12)
   H (  8)  4.239183
   H (  9)  5.249706  2.359786
   H ( 10)  5.156522  4.252092  2.395302
   H ( 11)  4.063123  5.249430  4.238996  2.309975
   C ( 12)  2.090618  2.150637  3.453398  4.167016  4.115769
   H ( 13)  2.310513  2.395022  4.252015  5.230627  5.156555  1.087401

 
 Requested basis set is 6-31G(d)
 There are 40 shells and 117 basis functions
 A cutoff of  1.0D-14 yielded    791 shell pairs
 There are      7063 function pairs
 
 -------------------------------------------------------
 OpenMP Integral Computing Module                       
 Release: version 1.0, May 2013, Q-Chem Inc. Pittsburgh 
 -------------------------------------------------------
 Integral Job Info:
 Integral job number is                      11
 Integral operator is                         1
 short-range coefficients                     0
 long-range coefficients              100000000
 Omega coefficients                           0
 if combine SR and LR in K                    0
 Integral screening is                        0
 Integral computing path is                   2
 max size of driver memory is            800000
 size of driver memory is                593474
 size of scratch memory is              2361544
 max col of scratch BK array               1296
 max len of scratch array in speh3          155
 max len of scratch index in speh4           18
 max int batch size is                      520
 min int batch size is                       52
 fixed nKL is                                52
 max L of basis functions is                  2
 order of int derivative is                   0
 number of shells is                         40
 number of basis is                         117
 number of cartesian basis is               117
 number of contracted shell pairs           791
 number of primitive shell pairs           3395
 maxK2 (contraction) of shell pair           36
 max number of K2 of shell pair               1
 max number of CS2 of shell pair             94
 max number of PS2 of shell pair            402
 mem total for path MDJ                  535308
 -------------------------------------------------------
 Smallest overlap matrix eigenvalue = 1.33E-03

 Scale SEOQF with 1.000000e-01/1.000000e-01/1.000000e+00

 Standard Electronic Orientation quadrupole field applied
 Nucleus-field energy     =    -0.0000000074 hartrees
 Guess MOs from core Hamiltonian diagonalization
 Mixing HOMO and LUMO in initial guess
 Adding  50% of the LUMO to the HOMO
 An unrestricted hybrid HF-DFT SCF calculation will be
 performed using Pulay DIIS extrapolation
 Exchange:     0.2000 Hartree-Fock + 0.0800 Slater + 0.7200 B88
 Correlation:  0.1900 VWN1RPA + 0.8100 LYP
 Using SG-1 standard quadrature grid
 SCF converges when DIIS error is below 1.0E-08
 using 4 threads for integral computing
 -------------------------------------------------------
 OpenMP Integral computing Module                
 Release: version 1.0, May 2013, Q-Chem Inc. Pittsburgh 
 -------------------------------------------------------
 -------------------------------------------------------
 OpenMP BLAS3 based DFT computing Module                
 Release: version 1.0, May 2013, Q-Chem Inc. Pittsburgh 
 -------------------------------------------------------
 ---------------------------------------
  Cycle       Energy         DIIS Error
 ---------------------------------------
    1    -239.4889631165      1.26E-01
    2    -227.9178982098      1.03E-01
    3    -250.2631579331      1.03E-01
    4    -281.9137902207      4.85E-02
    5    -282.4506405601      4.74E-02
    6    -285.5282978111      2.31E-02
    7    -286.6133540583      1.25E-02
    8    -286.8606162878      4.95E-03
    9    -286.9210292339      8.97E-04
   10    -286.9229764999      7.37E-04
   11    -286.9239952037      1.86E-04
   12    -286.9241898354      9.37E-05
   13    -286.9242632603      5.49E-05
   14    -286.9243351206      1.18E-05
   15    -286.9243441781      4.60E-06
   16    -286.9243460157      2.71E-06
   17    -286.9243464374      7.68E-07
   18    -286.9243464789      3.08E-07
   19    -286.9243464847      1.81E-07
   20    -286.9243464874      1.50E-07
   21    -286.9243464885      6.48E-08
   22    -286.9243464889      1.70E-08
   23    -286.9243464889      3.17E-09 Convergence criterion met
 ---------------------------------------
 <S^2> = 0.7684
 SCF time:  CPU 59.23 s  wall 63.40 s
 SCF   energy in the final basis set = -286.92434649
 Total energy in the final basis set = -286.92434649
 
 --------------------------------------------------------------
 
                    Orbital Energies (a.u.)
 --------------------------------------------------------------
 
 Alpha MOs
 -- Occupied --
-14.322 -10.232 -10.232 -10.212 -10.211 -10.201 -10.201  -0.922
 -0.818  -0.784  -0.693  -0.667  -0.551  -0.537  -0.518  -0.449
 -0.439  -0.414  -0.394  -0.387  -0.349  -0.322  -0.299  -0.251
 -0.162
 -- Virtual --
 -0.072   0.077   0.097   0.101   0.117   0.142   0.181   0.184
  0.193   0.213   0.266   0.320   0.356   0.390   0.412   0.483
  0.496   0.521   0.547   0.576   0.584   0.587   0.591   0.610
  0.619   0.624   0.646   0.658   0.713   0.718   0.833   0.840
  0.847   0.854   0.868   0.872   0.885   0.922   0.965   0.975
  1.024   1.027   1.043   1.127   1.177   1.185   1.300   1.303
  1.326   1.401   1.429   1.480   1.482   1.546   1.574   1.586
  1.682   1.732   1.769   1.829   1.850   1.919   1.925   2.030
  2.046   2.048   2.100   2.141   2.141   2.191   2.247   2.391
  2.410   2.414   2.446   2.545   2.577   2.601   2.614   2.739
  2.749   2.808   3.052   3.249   3.250   4.018   4.046   4.102
  4.196   4.239   4.532   4.595
 
 Beta MOs
 -- Occupied --
-14.314 -10.233 -10.233 -10.210 -10.210 -10.196 -10.196  -0.911
 -0.809  -0.777  -0.681  -0.665  -0.546  -0.535  -0.514  -0.447
 -0.438  -0.411  -0.383  -0.373  -0.348  -0.295  -0.276  -0.241
 -- Virtual --
 -0.078  -0.070   0.078   0.118   0.124   0.125   0.142   0.182
  0.187   0.196   0.219   0.268   0.324   0.360   0.393   0.415
  0.486   0.505   0.525   0.551   0.587   0.588   0.592   0.596
  0.614   0.624   0.629   0.649   0.676   0.716   0.729   0.834
  0.843   0.846   0.869   0.875   0.880   0.887   0.925   0.967
  0.979   1.026   1.030   1.045   1.133   1.180   1.189   1.311
  1.315   1.333   1.411   1.429   1.489   1.492   1.560   1.582
  1.597   1.685   1.737   1.781   1.831   1.854   1.922   1.933
  2.036   2.058   2.061   2.110   2.141   2.147   2.203   2.259
  2.399   2.422   2.426   2.448   2.558   2.579   2.611   2.624
  2.742   2.761   2.810   3.054   3.252   3.254   4.030   4.053
  4.109   4.200   4.239   4.537   4.601
 --------------------------------------------------------------
 
          Ground-State Mulliken Net Atomic Charges

     Atom                 Charge (a.u.)    Spin (a.u.)
  --------------------------------------------------------
      1 C                     0.035400      -0.113222
      2 C                    -0.111254       0.092580
      3 C                    -0.111333       0.094871
      4 C                    -0.131221       0.345939
      5 C                     0.035318      -0.112038
      6 N                    -0.423205       0.387013
      7 H                     0.142650       0.003432
      8 H                     0.141957      -0.006581
      9 H                     0.141912      -0.006690
     10 H                     0.134350      -0.018284
     11 H                     0.142626       0.003374
     12 C                    -0.131569       0.347988
     13 H                     0.134369      -0.018381
  --------------------------------------------------------
  Sum of atomic charges =     0.000000
  Sum of spin   charges =     1.000000

 -----------------------------------------------------------------
                    Cartesian Multipole Moments
 -----------------------------------------------------------------
    Charge (ESU x 10^10)
                -0.0000
    Dipole Moment (Debye)
         X      -0.5942      Y      -2.1607      Z       0.1046
       Tot       2.2433
    Quadrupole Moments (Debye-Ang)
        XX     -36.5030     XY      -1.7823     YY     -41.8190
        XZ      -3.3946     YZ       0.9520     ZZ     -41.6765
    Octopole Moments (Debye-Ang^2)
       XXX      -3.9882    XXY      -6.0618    XYY      -7.9357
       YYY     -36.9567    XXZ      -0.1398    XYZ      -0.4035
       YYZ       1.7041    XZZ      -1.4236    YZZ      -5.5018
       ZZZ       0.7888
    Hexadecapole Moments (Debye-Ang^3)
      XXXX    -322.2980   XXXY      -3.1150   XXYY    -118.3473
      XYYY     -23.1293   YYYY    -428.8920   XXXZ      53.9187
      XXYZ      -4.4122   XYYZ      16.1465   YYYZ      -4.1495
      XXZZ     -70.7602   XYZZ      -2.7779   YYZZ     -88.1399
      XZZZ      71.8965   YZZZ     -12.3860   ZZZZ    -116.0955
 -----------------------------------------------------------------
 Calculating analytic gradient of the SCF energy
 Gradient of SCF Energy
            1           2           3           4           5           6
    1  -0.0000233   0.0000109  -0.0000050  -0.0000018  -0.0000700   0.0000845
    2   0.0000140   0.0000196  -0.0000035   0.0000201  -0.0000379   0.0000172
    3   0.0000295  -0.0000032   0.0000104  -0.0000635  -0.0000026   0.0000163
            7           8           9          10          11          12
    1  -0.0000191   0.0000022   0.0000038  -0.0000118   0.0000294   0.0000038
    2   0.0000043  -0.0000056   0.0000016   0.0000088   0.0000017  -0.0000380
    3  -0.0000360   0.0000240   0.0000080  -0.0000214   0.0000189   0.0000212
           13
    1  -0.0000037
    2  -0.0000023
    3  -0.0000015
 Max gradient component =       8.450E-05
 RMS gradient           =       2.629E-05
 Gradient time:  CPU 7.67 s  wall 6.52 s
-Performing force calculation on product structure in state0
 ----------------------------------------------------------------
             Standard Nuclear Orientation (Angstroms)
    I     Atom           X                Y                Z
 ----------------------------------------------------------------
    1      C       1.5317916920     0.2375336781    -0.7052166445
    2      C      -0.2668146982    -1.2890667639     0.0237877747
    3      C      -1.4971558591    -1.1574387900     0.6167455573
    4      C      -1.7174981532     0.2386984590     0.8321136833
    5      C      -0.6158454903     0.9098568303     0.3626138522
    6      N       0.2779870602    -0.0237993943    -0.1327187979
    7      H       2.0509087969    -0.6711037939    -1.0220134755
    8      H       0.2788560526    -2.1622612006    -0.3048337599
    9      H      -2.1677060292    -1.9671537180     0.8708220616
   10      H      -2.5898074945     0.6945326746     1.2811877641
   11      H      -0.3742665174     1.9617645860     0.3305711506
   12      C       2.0840169974     1.4228830955    -0.8713542746
   13      H       3.0055336426     1.8055543374    -1.2817048910
 ----------------------------------------------------------------
 Nuclear Repulsion Energy =   262.3947078770 hartrees
 There are       25 alpha and       24 beta electrons

                       Distance Matrix (Angstroms)
             C (  1)   C (  2)   C (  3)   C (  4)   C (  5)   N (  6)
   C (  2)  2.469199
   C (  3)  3.587207  1.372102
   C (  4)  3.594617  2.256533  1.429732
   C (  5)  2.490909  2.252086  2.261637  1.372779
   N (  6)  1.402881  1.386436  2.235613  2.231987  1.384198
   H (  7)  1.093373  2.616758  3.938377  4.297257  3.395321  2.086408
   H (  8)  2.736635  1.080841  2.239016  3.323054  3.268621  2.145377
   H (  9)  4.585938  2.188757  1.081587  2.251659  3.308132  3.281027
   H ( 10)  4.598068  3.303334  2.250593  1.081839  2.187846  3.277099
   H ( 11)  2.771080  3.267042  3.327492  2.241601  1.079767  2.140686
   C ( 12)  1.318184  3.698968  4.658036  4.330775  3.012496  2.429036
   H ( 13)  2.227766  4.689270  5.714688  5.406505  4.076818  3.479399
             H (  7)   H (  8)   H (  9)   H ( 10)   H ( 11)   C ( 12)
   H (  8)  2.424473
   H (  9)  4.802008  2.721378
   H ( 10)  5.357793  4.348099  2.726012
   H ( 11)  3.826612  4.223493  4.352550  2.723632
   C ( 12)  2.099661  4.053740  5.710050  5.196977  2.788938
   H ( 13)  2.666943  4.912495  6.754932  6.253849  3.747917  1.078897

 
 Applying Cartesian multipole field
    Component          Value
    ---------          -----
     (2,0,0)        1.00000E-11
     (0,2,0)        2.00000E-11
     (0,0,2)       -3.00000E-10
 Nucleus-field energy     =    -0.0000000143 hartrees
 Requested basis set is 6-31G(d)
 There are 40 shells and 117 basis functions
 A cutoff of  1.0D-14 yielded    781 shell pairs
 There are      6992 function pairs
 Smallest overlap matrix eigenvalue = 1.00E-03
 Guess MOs from core Hamiltonian diagonalization
 Mixing HOMO and LUMO in initial guess
 Adding  50% of the LUMO to the HOMO
 An unrestricted hybrid HF-DFT SCF calculation will be
 performed using Pulay DIIS extrapolation
 Exchange:     0.2000 Hartree-Fock + 0.0800 Slater + 0.7200 B88
 Correlation:  0.1900 VWN1RPA + 0.8100 LYP
 Using SG-1 standard quadrature grid
 SCF converges when DIIS error is below 1.0E-08
 using 4 threads for integral computing
 -------------------------------------------------------
 OpenMP Integral computing Module                
 Release: version 1.0, May 2013, Q-Chem Inc. Pittsburgh 
 -------------------------------------------------------
 -------------------------------------------------------
 OpenMP BLAS3 based DFT computing Module                
 Release: version 1.0, May 2013, Q-Chem Inc. Pittsburgh 
 -------------------------------------------------------
 ---------------------------------------
  Cycle       Energy         DIIS Error
 ---------------------------------------
    1    -222.2782544084      1.50E-01
    2    -184.1890542197      1.46E-01
    3    -236.3570255485      1.13E-01
    4    -235.4752242167      1.30E-01
    5    -283.5423068362      2.90E-02
    6    -280.7315012639      4.63E-02
    7    -286.3296486434      1.35E-02
    8    -286.7755932948      7.08E-03
    9    -286.8620309846      2.18E-03
   10    -286.8703493483      9.22E-04
   11    -286.8719572718      2.97E-04
   12    -286.8722222232      1.24E-04
   13    -286.8723070681      7.62E-05
   14    -286.8723483629      4.60E-05
   15    -286.8723731761      2.27E-05
   16    -286.8723855099      7.52E-06
   17    -286.8723875915      1.85E-06
   18    -286.8723880468      6.37E-07
   19    -286.8723883073      2.66E-07
   20    -286.8723884248      1.21E-07
   21    -286.8723884470      2.10E-08
   22    -286.8723884470      4.06E-09 Convergence criterion met
 ---------------------------------------
 <S^2> = 0.7625
 SCF time:  CPU 55.25 s  wall 44.62 s
 SCF   energy in the final basis set = -286.87238845
 Total energy in the final basis set = -286.87238845
 
 --------------------------------------------------------------
 
                    Orbital Energies (a.u.)
 --------------------------------------------------------------
 
 Alpha MOs
 -- Occupied --
-14.392 -10.242 -10.214 -10.205 -10.201 -10.171 -10.170  -0.988
 -0.817  -0.737  -0.720  -0.618  -0.574  -0.544  -0.513  -0.476
 -0.428  -0.423  -0.417  -0.386  -0.374  -0.303  -0.255  -0.224
 -0.210
 -- Virtual --
 -0.008   0.076   0.091   0.101   0.127   0.136   0.165   0.176
  0.179   0.223   0.237   0.282   0.339   0.362   0.391   0.456
  0.488   0.507   0.536   0.556   0.561   0.589   0.590   0.596
  0.606   0.619   0.622   0.650   0.673   0.704   0.800   0.810
  0.829   0.847   0.856   0.857   0.888   0.921   0.928   0.956
  0.982   1.034   1.083   1.128   1.201   1.217   1.274   1.346
  1.385   1.387   1.429   1.458   1.494   1.496   1.551   1.558
  1.676   1.742   1.818   1.878   1.929   1.982   2.003   2.006
  2.071   2.080   2.153   2.178   2.211   2.251   2.269   2.302
  2.337   2.338   2.533   2.549   2.592   2.648   2.682   2.719
  2.776   2.858   3.044   3.100   3.178   3.977   4.069   4.121
  4.171   4.273   4.472   4.474
 
 Beta MOs
 -- Occupied --
-14.391 -10.243 -10.205 -10.201 -10.198 -10.171 -10.170  -0.987
 -0.812  -0.725  -0.717  -0.605  -0.573  -0.543  -0.500  -0.466
 -0.424  -0.424  -0.414  -0.385  -0.374  -0.301  -0.216  -0.211
 -- Virtual --
 -0.087   0.001   0.077   0.091   0.109   0.128   0.143   0.165
  0.176   0.181   0.228   0.239   0.286   0.342   0.372   0.403
  0.461   0.498   0.507   0.539   0.560   0.567   0.589   0.594
  0.601   0.619   0.628   0.633   0.666   0.672   0.705   0.806
  0.811   0.831   0.849   0.857   0.859   0.901   0.927   0.934
  0.958   0.988   1.040   1.092   1.129   1.204   1.221   1.278
  1.346   1.387   1.388   1.441   1.461   1.495   1.497   1.551
  1.559   1.736   1.762   1.840   1.886   1.948   1.985   2.006
  2.013   2.076   2.086   2.165   2.180   2.211   2.250   2.273
  2.306   2.338   2.340   2.534   2.563   2.595   2.655   2.685
  2.719   2.787   2.861   3.044   3.102   3.185   3.977   4.102
  4.121   4.171   4.277   4.474   4.474
 --------------------------------------------------------------
 
          Ground-State Mulliken Net Atomic Charges

     Atom                 Charge (a.u.)    Spin (a.u.)
  --------------------------------------------------------
      1 C                     0.068186      -0.140507
      2 C                     0.027607      -0.002620
      3 C                    -0.193502      -0.005389
      4 C                    -0.186544      -0.008654
      5 C                     0.037284       0.008954
      6 N                    -0.401250       0.019482
      7 H                     0.163165       0.068835
      8 H                     0.144886       0.000098
      9 H                     0.128607       0.001017
     10 H                     0.128867       0.000826
     11 H                     0.154924       0.000532
     12 C                    -0.244496       1.062439
     13 H                     0.172268      -0.005013
  --------------------------------------------------------
  Sum of atomic charges =    -0.000000
  Sum of spin   charges =     1.000000

 -----------------------------------------------------------------
                    Cartesian Multipole Moments
 -----------------------------------------------------------------
    Charge (ESU x 10^10)
                -0.0000
    Dipole Moment (Debye)
         X       1.2463      Y      -0.3575      Z      -0.6243
       Tot       1.4391
    Quadrupole Moments (Debye-Ang)
        XX     -36.3881     XY      -0.1597     YY     -37.2216
        XZ      -4.0465     YZ       0.6685     ZZ     -42.9041
    Octopole Moments (Debye-Ang^2)
       XXX       9.8487    XXY       1.0566    XYY       1.7430
       YYY      -7.7059    XXZ      -3.4698    XYZ      -1.4220
       YYZ      -1.1671    XZZ       2.3996    YZZ      -1.3338
       ZZZ      -2.7559
    Hexadecapole Moments (Debye-Ang^3)
      XXXX    -481.9523   XXXY     -61.2559   XXYY    -119.9806
      XYYY     -76.0570   YYYY    -280.4041   XXXZ      71.3654
      XXYZ      -1.0666   XYYZ      25.6514   YYYZ      28.6877
      XXZZ    -101.9507   XYZZ     -26.1689   YYZZ     -74.6027
      XZZZ     111.8382   YZZZ      30.4282   ZZZZ    -151.8001
 -----------------------------------------------------------------
 Calculating analytic gradient of the SCF energy
 Gradient of SCF Energy
            1           2           3           4           5           6
    1   0.0000209  -0.0000668   0.0000117   0.0000367  -0.0000833   0.0000550
    2   0.0000395  -0.0000133   0.0000231   0.0000293   0.0000229  -0.0000585
    3  -0.0000366  -0.0001205  -0.0000227   0.0000544  -0.0001405   0.0002111
            7           8           9          10          11          12
    1   0.0000047   0.0000041   0.0000173   0.0000106  -0.0000212   0.0000658
    2  -0.0000166  -0.0000022   0.0000051   0.0000002   0.0000044  -0.0000578
    3   0.0000378  -0.0000113   0.0000250   0.0000284  -0.0000508   0.0001074
           13
    1  -0.0000554
    2   0.0000239
    3  -0.0000816
 Max gradient component =       2.111E-04
 RMS gradient           =       6.063E-05
 Gradient time:  CPU 7.15 s  wall 2.95 s

STARTING FREEZING STRING ITERATION # 1
 The distance between the innermost nodes (Angstroms): 4.877
-Adding two new nodes
 The distance between the previous and current R_nodes (Angstroms): 0.2175
 The distance between the previous and current P_nodes (Angstroms): 0.2357
-Optimizing new reactant side node
 Using BFGS, step: 2 E_tol 0.0520
 max_steps 6, node_spacing 0.2322, sigma 0.7000
 ----------------------------------------------------------------
             Standard Nuclear Orientation (Angstroms)
    I     Atom           X                Y                Z
 ----------------------------------------------------------------
    1      C       1.3664599227     0.8451123259    -0.5806718167
    2      C       0.1993002269    -1.4185284910    -0.2072005686
    3      C      -0.9789836272    -1.0732786039     0.3773763681
    4      C      -1.4085178958     0.2615252569     0.6850225442
    5      C      -0.7228658009     1.4330421913     0.4558495463
    6      N       0.4773681402     1.7230564468    -0.0847789419
    7      H       2.2645147084     1.3313948013    -0.9665047102
    8      H       0.3874359831    -2.4769853895    -0.3798322929
    9      H      -1.6657081853    -1.8753316862     0.6404414173
   10      H      -2.3831610948     0.3646797628     1.1559642431
   11      H      -1.2286389970     2.3471948721     0.7731127300
   12      C       1.3926947501    -0.5121907258    -0.7097989220
   13      H       2.2814769258    -0.9519165598    -1.1525253803
 ----------------------------------------------------------------
 Nuclear Repulsion Energy =   258.9257498000 hartrees
 There are       25 alpha and       24 beta electrons

                       Distance Matrix (Angstroms)
             C (  1)   C (  2)   C (  3)   C (  4)   C (  5)   N (  6)
   C (  2)  2.574065
   C (  3)  3.177922  1.359883
   C (  4)  3.105327  2.490727  1.435565
   C (  5)  2.405269  3.069443  2.520595  1.376623
   N (  6)  1.344314  3.156242  3.186540  2.507037  1.347942
   H (  7)  1.091714  3.521893  4.255438  4.166933  3.310267  2.030944
   H (  8)  3.469172  1.088819  2.100205  3.443662  4.149632  4.211353
   H (  9)  4.252761  2.098910  1.088156  2.152741  3.445049  4.250543
   H ( 10)  4.160094  3.421572  2.155374  1.087362  2.094789  3.401067
   H ( 11)  3.289912  4.144960  3.452329  2.095265  1.091851  2.008977
   C ( 12)  1.363684  1.580583  2.668638  3.223501  3.101333  2.494955
   H ( 13)  2.096088  2.333844  3.603600  4.297102  4.159444  3.398584
             H (  7)   H (  8)   H (  9)   H ( 10)   H ( 11)   C ( 12)
   H (  8)  4.286183
   H (  9)  5.320904  2.370305
   H ( 10)  5.200029  4.255578  2.407936
   H ( 11)  4.032399  5.216675  4.247159  2.325911
   C ( 12)  2.055426  2.231556  3.610420  4.301983  4.152891
   H ( 13)  2.290939  2.551525  4.432572  5.368556  5.187787  1.085955

 
 Applying Cartesian multipole field
    Component          Value
    ---------          -----
     (2,0,0)        1.00000E-11
     (0,2,0)        2.00000E-11
     (0,0,2)       -3.00000E-10
 Nucleus-field energy     =    -0.0000000083 hartrees
 Requested basis set is 6-31G(d)
 There are 40 shells and 117 basis functions
 A cutoff of  1.0D-14 yielded    789 shell pairs
 There are      7061 function pairs
 Smallest overlap matrix eigenvalue = 1.46E-03
 Guess MOs from core Hamiltonian diagonalization
 Mixing HOMO and LUMO in initial guess
 Adding  50% of the LUMO to the HOMO
 An unrestricted hybrid HF-DFT SCF calculation will be
 performed using Pulay DIIS extrapolation
 Exchange:     0.2000 Hartree-Fock + 0.0800 Slater + 0.7200 B88
 Correlation:  0.1900 VWN1RPA + 0.8100 LYP
 Using SG-1 standard quadrature grid
 SCF converges when DIIS error is below 1.0E-08
 using 4 threads for integral computing
 -------------------------------------------------------
 OpenMP Integral computing Module                
 Release: version 1.0, May 2013, Q-Chem Inc. Pittsburgh 
 -------------------------------------------------------
 -------------------------------------------------------
 OpenMP BLAS3 based DFT computing Module                
 Release: version 1.0, May 2013, Q-Chem Inc. Pittsburgh 
 -------------------------------------------------------
 ---------------------------------------
  Cycle       Energy         DIIS Error
 ---------------------------------------
    1    -238.5917218526      1.27E-01
    2    -221.8139868808      1.04E-01
    3    -237.9138919688      1.09E-01
    4    -282.9155861757      4.02E-02
    5    -284.1078424151      3.73E-02
    6    -286.6676532028      1.09E-02
    7    -286.8269607677      6.37E-03
    8    -286.8895536758      3.10E-03
    9    -286.9087531537      9.60E-04
   10    -286.9105490212      6.44E-04
   11    -286.9115066319      1.38E-04
   12    -286.9116761368      6.53E-05
   13    -286.9117196633      3.57E-05
   14    -286.9117512016      1.82E-05
   15    -286.9117782652      1.23E-05
   16    -286.9117839413      3.06E-06
   17    -286.9117849059      1.30E-06
   18    -286.9117852482      1.03E-06
   19    -286.9117854032      5.17E-07
   20    -286.9117854124      1.23E-07
   21    -286.9117854141      3.35E-08
   22    -286.9117854142      7.37E-09 Convergence criterion met
 ---------------------------------------
 <S^2> = 0.7744
 SCF time:  CPU 56.39 s  wall 51.49 s
 SCF   energy in the final basis set = -286.91178541
 Total energy in the final basis set = -286.91178541
 
 --------------------------------------------------------------
 
                    Orbital Energies (a.u.)
 --------------------------------------------------------------
 
 Alpha MOs
 -- Occupied --
-14.322 -10.230 -10.226 -10.220 -10.213 -10.210 -10.201  -0.922
 -0.812  -0.782  -0.698  -0.659  -0.555  -0.530  -0.513  -0.453
 -0.433  -0.418  -0.393  -0.391  -0.338  -0.320  -0.296  -0.246
 -0.170
 -- Virtual --
 -0.065   0.079   0.088   0.104   0.117   0.142   0.157   0.183
  0.192   0.202   0.263   0.312   0.348   0.379   0.413   0.481
  0.497   0.498   0.559   0.574   0.581   0.585   0.585   0.609
  0.617   0.635   0.648   0.653   0.715   0.720   0.828   0.839
  0.852   0.857   0.868   0.877   0.888   0.920   0.945   0.972
  1.012   1.035   1.043   1.130   1.169   1.188   1.294   1.306
  1.321   1.408   1.426   1.471   1.494   1.542   1.577   1.587
  1.646   1.694   1.788   1.819   1.861   1.923   1.928   1.989
  2.010   2.071   2.074   2.128   2.168   2.170   2.247   2.355
  2.368   2.433   2.451   2.521   2.572   2.593   2.617   2.724
  2.747   2.802   3.041   3.184   3.281   4.018   4.028   4.097
  4.209   4.245   4.520   4.572
 
 Beta MOs
 -- Occupied --
-14.314 -10.232 -10.227 -10.217 -10.213 -10.205 -10.196  -0.911
 -0.803  -0.774  -0.686  -0.656  -0.550  -0.528  -0.509  -0.451
 -0.432  -0.415  -0.388  -0.371  -0.337  -0.295  -0.271  -0.237
 -- Virtual --
 -0.084  -0.062   0.081   0.114   0.119   0.129   0.142   0.163
  0.185   0.193   0.206   0.265   0.316   0.351   0.381   0.416
  0.484   0.501   0.505   0.564   0.584   0.585   0.589   0.590
  0.612   0.621   0.640   0.650   0.672   0.722   0.726   0.831
  0.842   0.851   0.869   0.879   0.884   0.891   0.923   0.949
  0.976   1.014   1.037   1.044   1.135   1.174   1.191   1.305
  1.312   1.334   1.417   1.427   1.480   1.504   1.556   1.588
  1.595   1.653   1.698   1.795   1.824   1.866   1.928   1.934
  2.006   2.016   2.083   2.084   2.131   2.171   2.180   2.259
  2.362   2.379   2.443   2.455   2.535   2.576   2.602   2.626
  2.728   2.759   2.804   3.043   3.187   3.284   4.026   4.038
  4.105   4.214   4.244   4.526   4.578
 --------------------------------------------------------------
 
          Ground-State Mulliken Net Atomic Charges

     Atom                 Charge (a.u.)    Spin (a.u.)
  --------------------------------------------------------
      1 C                     0.040204      -0.118923
      2 C                    -0.137768       0.170731
      3 C                    -0.103010      -0.000735
      4 C                    -0.124405       0.389611
      5 C                     0.032267      -0.145782
      6 N                    -0.419278       0.383511
      7 H                     0.135707       0.003599
      8 H                     0.137439      -0.010451
      9 H                     0.147754      -0.002058
     10 H                     0.134945      -0.020144
     11 H                     0.141217       0.005185
     12 C                    -0.129294       0.364939
     13 H                     0.144221      -0.019483
  --------------------------------------------------------
  Sum of atomic charges =    -0.000000
  Sum of spin   charges =     1.000000

 -----------------------------------------------------------------
                    Cartesian Multipole Moments
 -----------------------------------------------------------------
    Charge (ESU x 10^10)
                -0.0000
    Dipole Moment (Debye)
         X      -0.6004      Y      -2.1039      Z       0.1222
       Tot       2.1913
    Quadrupole Moments (Debye-Ang)
        XX     -36.0925     XY      -1.6387     YY     -41.7549
        XZ      -3.6084     YZ       0.8843     ZZ     -41.6896
    Octopole Moments (Debye-Ang^2)
       XXX      -2.9402    XXY      -6.4294    XYY      -7.6920
       YYY     -34.1239    XXZ      -0.4814    XYZ       0.0425
       YYZ       1.7785    XZZ      -1.1660    YZZ      -5.1094
       ZZZ       0.9616
    Hexadecapole Moments (Debye-Ang^3)
      XXXX    -335.7668   XXXY      -6.1043   XXYY    -119.5698
      XYYY     -22.3661   YYYY    -418.4002   XXXZ      55.8461
      XXYZ      -3.4790   XYYZ      17.5859   YYYZ      -4.0046
      XXZZ     -73.4170   XYZZ      -3.6470   YYZZ     -87.5708
      XZZZ      75.8296   YZZZ     -11.0609   ZZZZ    -120.2831
 -----------------------------------------------------------------
 Calculating analytic gradient of the SCF energy
 Gradient of SCF Energy
            1           2           3           4           5           6
    1  -0.0119506  -0.0503031  -0.0082947   0.0049321  -0.0078469   0.0069521
    2  -0.0012287  -0.0133545  -0.0074833   0.0069621  -0.0104018  -0.0077267
    3   0.0060282   0.0238418   0.0033433  -0.0017344   0.0022761  -0.0036373
            7           8           9          10          11          12
    1  -0.0006869   0.0014270  -0.0009656   0.0001093   0.0027739   0.0591416
    2  -0.0040672   0.0003185   0.0006073  -0.0000964   0.0011316   0.0284955
    3  -0.0001502  -0.0007835   0.0004053  -0.0000002  -0.0010101  -0.0274689
           13
    1   0.0047117
    2   0.0068438
    3  -0.0011101
 Max gradient component =       5.914E-02
 RMS gradient           =       1.530E-02
 Gradient time:  CPU 7.67 s  wall 7.63 s
 ----------------------------------------------------------------
             Standard Nuclear Orientation (Angstroms)
    I     Atom           X                Y                Z
 ----------------------------------------------------------------
    1      C       1.3777137990     0.8444951481    -0.5866008824
    2      C       0.2257978987    -1.4084624889    -0.2195101062
    3      C      -0.9811192674    -1.0691699802     0.3786848182
    4      C      -1.4174249187     0.2559266834     0.6886726300
    5      C      -0.7191605272     1.4352966471     0.4543428051
    6      N       0.4711007912     1.7185128620    -0.0820502159
    7      H       2.2657725859     1.3385010560    -0.9661654758
    8      H       0.3805630025    -2.4758228720    -0.3764328674
    9      H      -1.6728933663    -1.8765351852     0.6439294729
   10      H      -2.3881979868     0.3672817414     1.1588982885
   11      H      -1.2258962685     2.3457126539     0.7716854266
   12      C       1.3681018638    -0.5292063531    -0.7001258186
   13      H       2.2970170134    -0.9487530964    -1.1588742166
 ----------------------------------------------------------------
 Nuclear Repulsion Energy =   258.8294178315 hartrees
 There are       25 alpha and       24 beta electrons

                       Distance Matrix (Angstroms)
             C (  1)   C (  2)   C (  3)   C (  4)   C (  5)   N (  6)
   C (  2)  2.556850
   C (  3)  3.187159  1.389102
   C (  4)  3.128184  2.509017  1.429103
   C (  5)  2.414434  3.071480  2.519266  1.390467
   N (  6)  1.356623  3.139593  3.176853  2.509921  1.335908
   H (  7)  1.084785  3.502114  4.260025  4.180478  3.307119  2.036398
   H (  8)  3.473182  1.089879  2.098345  3.439428  4.146859  4.205628
   H (  9)  4.269006  2.137674  1.095785  2.148176  3.451634  4.248309
   H ( 10)  4.178109  3.447644  2.156849  1.084395  2.103031  3.397259
   H ( 11)  3.298087  4.145325  3.446127  2.100186  1.089195  2.000511
   C ( 12)  1.378418  1.519520  2.640877  3.210040  3.090103  2.497773
   H ( 13)  2.094840  2.320277  3.622812  4.319926  4.169351  3.407026
             H (  7)   H (  8)   H (  9)   H ( 10)   H ( 11)   C ( 12)
   H (  8)  4.295447
   H (  9)  5.333100  2.370014
   H ( 10)  5.207553  4.255176  2.410719
   H ( 11)  4.028195  5.210191  4.247765  2.327030
   C ( 12)  2.089239  2.206655  3.587399  4.285960  4.142489
   H ( 13)  2.295571  2.572344  4.457698  5.390293  5.195333  1.117745

 
 Applying Cartesian multipole field
    Component          Value
    ---------          -----
     (2,0,0)        1.00000E-11
     (0,2,0)        2.00000E-11
     (0,0,2)       -3.00000E-10
 Nucleus-field energy     =    -0.0000000083 hartrees
 Requested basis set is 6-31G(d)
 There are 40 shells and 117 basis functions
 A cutoff of  1.0D-14 yielded    789 shell pairs
 There are      7061 function pairs
 Smallest overlap matrix eigenvalue = 1.46E-03
 Guess MOs from core Hamiltonian diagonalization
 Mixing HOMO and LUMO in initial guess
 Adding  50% of the LUMO to the HOMO
 An unrestricted hybrid HF-DFT SCF calculation will be
 performed using Pulay DIIS extrapolation
 Exchange:     0.2000 Hartree-Fock + 0.0800 Slater + 0.7200 B88
 Correlation:  0.1900 VWN1RPA + 0.8100 LYP
 Using SG-1 standard quadrature grid
 SCF converges when DIIS error is below 1.0E-08
 using 4 threads for integral computing
 -------------------------------------------------------
 OpenMP Integral computing Module                
 Release: version 1.0, May 2013, Q-Chem Inc. Pittsburgh 
 -------------------------------------------------------
 -------------------------------------------------------
 OpenMP BLAS3 based DFT computing Module                
 Release: version 1.0, May 2013, Q-Chem Inc. Pittsburgh 
 -------------------------------------------------------
 ---------------------------------------
  Cycle       Energy         DIIS Error
 ---------------------------------------
    1    -238.8262365146      1.26E-01
    2    -227.0398979266      1.04E-01
    3    -243.4125764551      1.08E-01
    4    -282.0257888901      5.05E-02
    5    -281.2765276232      4.79E-02
    6    -286.4251436525      1.39E-02
    7    -286.5363998817      1.29E-02
    8    -286.8821973206      3.97E-03
    9    -286.9070384864      2.31E-03
   10    -286.9155707695      4.28E-04
   11    -286.9160513561      2.07E-04
   12    -286.9161945001      9.98E-05
   13    -286.9162927128      3.52E-05
   14    -286.9163267868      2.03E-05
   15    -286.9163387491      8.25E-06
   16    -286.9163438285      4.80E-06
   17    -286.9163443931      2.71E-06
   18    -286.9163449989      1.61E-06
   19    -286.9163451808      6.76E-07
   20    -286.9163452210      2.19E-07
   21    -286.9163452252      5.81E-08
   22    -286.9163452254      1.77E-08
   23    -286.9163452254      8.45E-09 Convergence criterion met
 ---------------------------------------
 <S^2> = 0.7724
 SCF time:  CPU 59.68 s  wall 61.22 s
 SCF   energy in the final basis set = -286.91634523
 Total energy in the final basis set = -286.91634523
 
 --------------------------------------------------------------
 
                    Orbital Energies (a.u.)
 --------------------------------------------------------------
 
 Alpha MOs
 -- Occupied --
-14.320 -10.232 -10.229 -10.219 -10.218 -10.211 -10.199  -0.921
 -0.810  -0.782  -0.691  -0.664  -0.554  -0.533  -0.510  -0.451
 -0.434  -0.415  -0.392  -0.390  -0.347  -0.317  -0.298  -0.244
 -0.163
 -- Virtual --
 -0.071   0.077   0.089   0.101   0.115   0.143   0.163   0.183
  0.191   0.210   0.258   0.312   0.349   0.376   0.413   0.482
  0.498   0.503   0.556   0.575   0.579   0.583   0.586   0.607
  0.619   0.623   0.646   0.654   0.710   0.715   0.818   0.836
  0.851   0.857   0.869   0.875   0.885   0.924   0.948   0.973
  1.011   1.030   1.038   1.127   1.167   1.189   1.296   1.309
  1.311   1.407   1.425   1.472   1.491   1.548   1.573   1.575
  1.666   1.714   1.779   1.824   1.851   1.911   1.917   2.003
  2.013   2.065   2.070   2.116   2.160   2.170   2.247   2.367
  2.377   2.407   2.441   2.521   2.568   2.584   2.614   2.725
  2.742   2.792   3.044   3.188   3.266   4.018   4.021   4.098
  4.196   4.243   4.525   4.574
 
 Beta MOs
 -- Occupied --
-14.313 -10.234 -10.230 -10.218 -10.216 -10.207 -10.194  -0.911
 -0.801  -0.775  -0.679  -0.661  -0.549  -0.531  -0.506  -0.449
 -0.432  -0.412  -0.387  -0.371  -0.346  -0.292  -0.273  -0.235
 -- Virtual --
 -0.079  -0.069   0.079   0.114   0.116   0.126   0.143   0.168
  0.185   0.193   0.215   0.260   0.317   0.352   0.378   0.416
  0.484   0.506   0.506   0.560   0.583   0.585   0.587   0.590
  0.611   0.623   0.628   0.649   0.672   0.712   0.726   0.820
  0.838   0.851   0.870   0.878   0.883   0.887   0.927   0.951
  0.977   1.013   1.032   1.040   1.132   1.172   1.192   1.307
  1.316   1.323   1.416   1.426   1.482   1.501   1.562   1.581
  1.586   1.671   1.719   1.788   1.828   1.855   1.915   1.924
  2.010   2.027   2.077   2.079   2.119   2.161   2.181   2.258
  2.374   2.388   2.419   2.443   2.533   2.570   2.595   2.624
  2.729   2.754   2.795   3.046   3.192   3.269   4.026   4.030
  4.105   4.200   4.243   4.531   4.581
 --------------------------------------------------------------
 
          Ground-State Mulliken Net Atomic Charges

     Atom                 Charge (a.u.)    Spin (a.u.)
  --------------------------------------------------------
      1 C                     0.035798      -0.085936
      2 C                    -0.137637       0.205702
      3 C                    -0.103969      -0.011152
      4 C                    -0.132271       0.408082
      5 C                     0.042321      -0.148478
      6 N                    -0.421304       0.365888
      7 H                     0.142714       0.002056
      8 H                     0.138277      -0.012122
      9 H                     0.148157      -0.001551
     10 H                     0.134233      -0.021141
     11 H                     0.141496       0.005286
     12 C                    -0.128552       0.310759
     13 H                     0.140736      -0.017393
  --------------------------------------------------------
  Sum of atomic charges =    -0.000000
  Sum of spin   charges =     1.000000

 -----------------------------------------------------------------
                    Cartesian Multipole Moments
 -----------------------------------------------------------------
    Charge (ESU x 10^10)
                -0.0000
    Dipole Moment (Debye)
         X      -0.5683      Y      -2.0145      Z       0.1151
       Tot       2.0963
    Quadrupole Moments (Debye-Ang)
        XX     -36.0708     XY      -1.3829     YY     -41.7437
        XZ      -3.6315     YZ       0.7675     ZZ     -41.7623
    Octopole Moments (Debye-Ang^2)
       XXX      -2.6575    XXY      -5.7547    XYY      -7.7739
       YYY     -33.6511    XXZ      -0.5481    XYZ      -0.2040
       YYZ       1.8359    XZZ      -1.1535    YZZ      -4.8216
       ZZZ       1.0383
    Hexadecapole Moments (Debye-Ang^3)
      XXXX    -335.9756   XXXY      -3.9778   XXYY    -119.1121
      XYYY     -20.7214   YYYY    -417.5529   XXXZ      55.7559
      XXYZ      -4.2027   XYYZ      17.5172   YYYZ      -4.7698
      XXZZ     -73.5937   XYZZ      -3.1242   YYZZ     -87.4858
      XZZZ      76.1670   YZZZ     -11.5209   ZZZZ    -120.8704
 -----------------------------------------------------------------
 Calculating analytic gradient of the SCF energy
 Gradient of SCF Energy
            1           2           3           4           5           6
    1   0.0065026  -0.0128337  -0.0227338  -0.0012442  -0.0014473  -0.0038713
    2   0.0119056  -0.0061393  -0.0006715  -0.0005077  -0.0006144  -0.0087493
    3  -0.0017177   0.0065098   0.0107630   0.0005703   0.0000820   0.0014636
            7           8           9          10          11          12
    1  -0.0037247  -0.0014886  -0.0058943   0.0017318   0.0037407   0.0198736
    2  -0.0030590  -0.0011031  -0.0018603   0.0003325  -0.0008398   0.0082747
    3   0.0014337   0.0005129   0.0025412  -0.0007210  -0.0016617  -0.0107709
           13
    1   0.0213891
    2   0.0030316
    3  -0.0090053
 Max gradient component =       2.273E-02
 RMS gradient           =       7.820E-03
 Gradient time:  CPU 7.62 s  wall 4.58 s
 FSM gradient convergence criteria satisfied
done with opt_step_by_gradient, Reactant, iter1
-Optimizing new product side node
 Using BFGS, step: 2 E_tol 0.0519580
 max_steps 6, node_spacing 0.2322236, sigma 0.7000000
 ----------------------------------------------------------------
             Standard Nuclear Orientation (Angstroms)
    I     Atom           X                Y                Z
 ----------------------------------------------------------------
    1      C       1.5324696265     0.2411753783    -0.7036284267
    2      C      -0.2525888554    -1.3370182202     0.0149774841
    3      C      -1.4746220724    -1.1614810932     0.6057729446
    4      C      -1.7096051949     0.2310040900     0.8262647227
    5      C      -0.6389273761     0.9605137552     0.3778686439
    6      N       0.2947037605     0.0998584850    -0.1306961079
    7      H       2.0751472971    -0.6460231753    -1.0295578572
    8      H       0.2568056071    -2.2345784223    -0.3041254907
    9      H      -2.1461856971    -1.9688077227     0.8650390072
   10      H      -2.5906928121     0.6609518345     1.2832637934
   11      H      -0.4541932316     2.0235691330     0.3736626413
   12      C       2.0728061622     1.4270996969    -0.8858344275
   13      H       3.0322437773     1.6997681690    -1.2991627406
 ----------------------------------------------------------------
 Nuclear Repulsion Energy =   260.4209456203 hartrees
 There are       25 alpha and       24 beta electrons

                       Distance Matrix (Angstroms)
             C (  1)   C (  2)   C (  3)   C (  4)   C (  5)   N (  6)
   C (  2)  2.488679
   C (  3)  3.567153  1.368655
   C (  4)  3.584930  2.289056  1.429283
   C (  5)  2.530227  2.357881  2.291983  1.370983
   N (  6)  1.371235  1.544463  2.294314  2.224911  1.367857
   H (  7)  1.089885  2.643271  3.942191  4.305532  3.453695  2.129383
   H (  8)  2.813588  1.080242  2.230985  3.350172  3.387635  2.341177
   H (  9)  4.569163  2.169671  1.081662  2.243051  3.330178  3.350942
   H ( 10)  4.596131  3.326735  2.241845  1.081674  2.172295  3.261843
   H ( 11)  2.878248  3.385683  3.352565  2.234770  1.078995  2.125062
   C ( 12)  1.315895  3.722804  4.637876  4.320713  3.027895  2.343811
   H ( 13)  2.175196  4.662527  5.668101  5.399985  4.103222  3.379223
             H (  7)   H (  8)   H (  9)   H ( 10)   H ( 11)   C ( 12)
   H (  8)  2.521136
   H (  9)  4.812370  2.685507
   H ( 10)  5.369115  4.360292  2.699654
   H ( 11)  3.936155  4.369981  4.363870  2.692347
   C ( 12)  2.078100  4.128454  5.691892  5.200018  2.885799
   H ( 13)  2.547834  4.916527  6.705099  6.274192  3.880520  1.079680

 
 Applying Cartesian multipole field
    Component          Value
    ---------          -----
     (2,0,0)        1.00000E-11
     (0,2,0)        2.00000E-11
     (0,0,2)       -3.00000E-10
 Nucleus-field energy     =    -0.0000000144 hartrees
 Requested basis set is 6-31G(d)
 There are 40 shells and 117 basis functions
 A cutoff of  1.0D-14 yielded    783 shell pairs
 There are      7003 function pairs
 Smallest overlap matrix eigenvalue = 1.08E-03
 Guess MOs from core Hamiltonian diagonalization
 Mixing HOMO and LUMO in initial guess
 Adding  50% of the LUMO to the HOMO
 An unrestricted hybrid HF-DFT SCF calculation will be
 performed using Pulay DIIS extrapolation
 Exchange:     0.2000 Hartree-Fock + 0.0800 Slater + 0.7200 B88
 Correlation:  0.1900 VWN1RPA + 0.8100 LYP
 Using SG-1 standard quadrature grid
 SCF converges when DIIS error is below 1.0E-08
 using 4 threads for integral computing
 -------------------------------------------------------
 OpenMP Integral computing Module                
 Release: version 1.0, May 2013, Q-Chem Inc. Pittsburgh 
 -------------------------------------------------------
 -------------------------------------------------------
 OpenMP BLAS3 based DFT computing Module                
 Release: version 1.0, May 2013, Q-Chem Inc. Pittsburgh 
 -------------------------------------------------------
 ---------------------------------------
  Cycle       Energy         DIIS Error
 ---------------------------------------
    1    -224.2794599722      1.48E-01
    2    -187.7599738489      1.34E-01
    3    -233.1926926401      1.18E-01
    4    -256.5309943520      1.08E-01
    5    -283.0606487304      3.20E-02
    6    -284.3257812611      3.10E-02
    7    -286.7652460526      5.90E-03
    8    -286.8264883786      3.66E-03
    9    -286.8488705439      1.22E-03
   10    -286.8514500232      5.08E-04
   11    -286.8521286727      1.86E-04
   12    -286.8522575897      1.05E-04
   13    -286.8523255858      2.17E-05
   14    -286.8523388515      8.72E-06
   15    -286.8523479150      3.25E-06
   16    -286.8523541007      1.41E-06
   17    -286.8523585310      1.17E-06
   18    -286.8523593806      4.30E-07
   19    -286.8523594768      1.24E-07
   20    -286.8523594863      3.47E-08
   21    -286.8523594889      1.44E-08
   22    -286.8523594894      5.50E-09 Convergence criterion met
 ---------------------------------------
 <S^2> = 0.7632
 SCF time:  CPU 55.28 s  wall 43.52 s
 SCF   energy in the final basis set = -286.85235949
 Total energy in the final basis set = -286.85235949
 
 --------------------------------------------------------------
 
                    Orbital Energies (a.u.)
 --------------------------------------------------------------
 
 Alpha MOs
 -- Occupied --
-14.390 -10.233 -10.214 -10.211 -10.203 -10.178 -10.172  -0.970
 -0.817  -0.733  -0.717  -0.614  -0.569  -0.547  -0.508  -0.471
 -0.441  -0.413  -0.399  -0.384  -0.375  -0.304  -0.257  -0.226
 -0.206
 -- Virtual --
 -0.009   0.064   0.096   0.098   0.112   0.136   0.152   0.174
  0.174   0.207   0.229   0.288   0.327   0.372   0.406   0.430
  0.482   0.509   0.536   0.547   0.562   0.588   0.592   0.593
  0.606   0.622   0.628   0.661   0.672   0.704   0.778   0.818
  0.825   0.846   0.848   0.854   0.889   0.916   0.928   0.950
  0.991   1.031   1.091   1.119   1.180   1.217   1.289   1.336
  1.349   1.386   1.420   1.468   1.491   1.512   1.532   1.540
  1.683   1.741   1.775   1.867   1.905   1.980   1.999   2.005
  2.041   2.111   2.127   2.136   2.219   2.249   2.254   2.305
  2.332   2.385   2.481   2.525   2.596   2.613   2.666   2.693
  2.772   2.881   3.006   3.069   3.207   3.948   4.070   4.116
  4.157   4.276   4.452   4.471
 
 Beta MOs
 -- Occupied --
-14.390 -10.234 -10.214 -10.211 -10.187 -10.178 -10.172  -0.969
 -0.813  -0.727  -0.708  -0.604  -0.567  -0.545  -0.495  -0.463
 -0.438  -0.414  -0.398  -0.383  -0.373  -0.302  -0.223  -0.201
 -- Virtual --
 -0.085  -0.001   0.067   0.098   0.102   0.112   0.137   0.156
  0.174   0.179   0.210   0.233   0.291   0.328   0.388   0.411
  0.437   0.495   0.510   0.537   0.549   0.568   0.588   0.594
  0.601   0.616   0.628   0.638   0.671   0.686   0.705   0.784
  0.819   0.827   0.846   0.851   0.856   0.902   0.923   0.931
  0.953   0.997   1.036   1.101   1.121   1.182   1.221   1.293
  1.338   1.348   1.386   1.428   1.472   1.492   1.513   1.532
  1.541   1.742   1.744   1.814   1.878   1.910   1.982   2.002
  2.010   2.052   2.122   2.138   2.140   2.219   2.250   2.261
  2.307   2.336   2.385   2.482   2.543   2.601   2.617   2.669
  2.693   2.782   2.883   3.008   3.071   3.215   3.948   4.104
  4.116   4.158   4.280   4.453   4.472
 --------------------------------------------------------------
 
          Ground-State Mulliken Net Atomic Charges

     Atom                 Charge (a.u.)    Spin (a.u.)
  --------------------------------------------------------
      1 C                     0.077655      -0.128363
      2 C                    -0.006949      -0.009138
      3 C                    -0.163687      -0.000950
      4 C                    -0.196690      -0.015385
      5 C                     0.072041       0.011596
      6 N                    -0.430144       0.013767
      7 H                     0.171538       0.059848
      8 H                     0.157604       0.000438
      9 H                     0.132887       0.000518
     10 H                     0.128488       0.001109
     11 H                     0.161334       0.000301
     12 C                    -0.260755       1.062473
     13 H                     0.156677       0.003788
  --------------------------------------------------------
  Sum of atomic charges =    -0.000000
  Sum of spin   charges =     1.000000

 -----------------------------------------------------------------
                    Cartesian Multipole Moments
 -----------------------------------------------------------------
    Charge (ESU x 10^10)
                 0.0000
    Dipole Moment (Debye)
         X       0.8358      Y      -0.6761      Z      -0.4154
       Tot       1.1525
    Quadrupole Moments (Debye-Ang)
        XX     -36.8642     XY      -0.9233     YY     -36.9166
        XZ      -3.8778     YZ       1.1387     ZZ     -43.1129
    Octopole Moments (Debye-Ang^2)
       XXX       7.9497    XXY      -2.2804    XYY      -0.8500
       YYY     -11.6681    XXZ      -2.8703    XYZ      -0.0835
       YYZ       0.0223    XZZ       1.8384    YZZ      -2.4356
       ZZZ      -1.8887
    Hexadecapole Moments (Debye-Ang^3)
      XXXX    -484.0589   XXXY     -66.6554   XXYY    -126.5965
      XYYY     -80.2276   YYYY    -285.3523   XXXZ      73.2806
      XXYZ       1.6895   XYYZ      28.1081   YYYZ      31.4192
      XXZZ    -102.5326   XYZZ     -27.1928   YYZZ     -77.2899
      XZZZ     112.5043   YZZZ      30.9010   ZZZZ    -153.1724
 -----------------------------------------------------------------
 Calculating analytic gradient of the SCF energy
 Gradient of SCF Energy
            1           2           3           4           5           6
    1  -0.0057521   0.0008998  -0.0057014   0.0075336  -0.0048974   0.0248680
    2  -0.0284707  -0.0716081   0.0020872  -0.0026499   0.0062904   0.1073029
    3   0.0018124  -0.0058779   0.0024988  -0.0041871   0.0028754  -0.0034004
            7           8           9          10          11          12
    1   0.0063754  -0.0069802   0.0018704   0.0007350   0.0002789  -0.0186085
    2   0.0044483  -0.0065404  -0.0002670   0.0003992  -0.0012119  -0.0035066
    3  -0.0031226   0.0026028  -0.0006619  -0.0000503  -0.0003283   0.0076224
           13
    1  -0.0006218
    2  -0.0062734
    3   0.0002167
 Max gradient component =       1.073E-01
 RMS gradient           =       2.206E-02
 Gradient time:  CPU 7.25 s  wall 2.00 s
 ----------------------------------------------------------------
             Standard Nuclear Orientation (Angstroms)
    I     Atom           X                Y                Z
 ----------------------------------------------------------------
    1      C       1.5359372896     0.2597561224    -0.7033570132
    2      C      -0.2487546839    -1.2977114219     0.0161854221
    3      C      -1.4646951657    -1.1633167506     0.6006883320
    4      C      -1.7126698525     0.2313964379     0.8272835569
    5      C      -0.6410994292     0.9684463909     0.3795598955
    6      N       0.2816752158     0.0565544405    -0.1266249773
    7      H       2.0757276220    -0.6445988133    -1.0281506924
    8      H       0.2574037128    -2.2450127791    -0.3059349975
    9      H      -2.1419971765    -1.9682919758     0.8630159021
   10      H      -2.5913378809     0.6531443267     1.2829794768
   11      H      -0.4729347746     2.0386981603     0.3841145566
   12      C       2.0827439580     1.4283389847    -0.8940288894
   13      H       3.0373632121     1.6786293049    -1.3018871733
 ----------------------------------------------------------------
 Nuclear Repulsion Energy =   260.9107757035 hartrees
 There are       25 alpha and       24 beta electrons

                       Distance Matrix (Angstroms)
             C (  1)   C (  2)   C (  3)   C (  4)   C (  5)   N (  6)
   C (  2)  2.475595
   C (  3)  3.567838  1.355809
   C (  4)  3.591255  2.266958  1.434595
   C (  5)  2.532674  2.328400  2.296001  1.375486
   N (  6)  1.395380  1.461433  2.250973  2.217639  1.392581
   H (  7)  1.102144  2.630668  3.931511  4.308359  3.459005  2.126732
   H (  8)  2.840151  1.121311  2.226580  3.361246  3.406396  2.308669
   H (  9)  4.576563  2.179717  1.084223  2.241479  3.333295  3.309619
   H ( 10)  4.597248  3.301258  2.243741  1.075912  2.172329  3.255320
   H ( 11)  2.895306  3.364113  3.359076  2.235997  1.083392  2.181556
   C ( 12)  1.304201  3.700774  4.640602  4.335984  3.041850  2.390513
   H ( 13)  2.150749  4.625418  5.653758  5.402839  4.106423  3.406785
             H (  7)   H (  8)   H (  9)   H ( 10)   H ( 11)   C ( 12)
   H (  8)  2.527691
   H (  9)  4.808105  2.683309
   H ( 10)  5.367212  4.363404  2.692620
   H ( 11)  3.961093  4.399971  4.367045  2.686140
   C ( 12)  2.077284  4.143819  5.698486  5.214147  2.921931
   H ( 13)  2.529242  4.910709  6.694222  6.278171  3.910811  1.067844

 
 Applying Cartesian multipole field
    Component          Value
    ---------          -----
     (2,0,0)        1.00000E-11
     (0,2,0)        2.00000E-11
     (0,0,2)       -3.00000E-10
 Nucleus-field energy     =    -0.0000000145 hartrees
 Requested basis set is 6-31G(d)
 There are 40 shells and 117 basis functions
 A cutoff of  1.0D-14 yielded    781 shell pairs
 There are      6992 function pairs
 Smallest overlap matrix eigenvalue = 1.06E-03
 Guess MOs from core Hamiltonian diagonalization
 Mixing HOMO and LUMO in initial guess
 Adding  50% of the LUMO to the HOMO
 An unrestricted hybrid HF-DFT SCF calculation will be
 performed using Pulay DIIS extrapolation
 Exchange:     0.2000 Hartree-Fock + 0.0800 Slater + 0.7200 B88
 Correlation:  0.1900 VWN1RPA + 0.8100 LYP
 Using SG-1 standard quadrature grid
 SCF converges when DIIS error is below 1.0E-08
 using 4 threads for integral computing
 -------------------------------------------------------
 OpenMP Integral computing Module                
 Release: version 1.0, May 2013, Q-Chem Inc. Pittsburgh 
 -------------------------------------------------------
 -------------------------------------------------------
 OpenMP BLAS3 based DFT computing Module                
 Release: version 1.0, May 2013, Q-Chem Inc. Pittsburgh 
 -------------------------------------------------------
 ---------------------------------------
  Cycle       Energy         DIIS Error
 ---------------------------------------
    1    -224.1761384851      1.47E-01
    2    -180.8652705721      1.46E-01
    3    -232.5816852717      1.15E-01
    4    -238.0001794215      1.29E-01
    5    -283.5245845390      2.91E-02
    6    -280.7620329718      4.64E-02
    7    -286.3129961478      1.34E-02
    8    -286.7611304311      7.35E-03
    9    -286.8558955143      1.70E-03
   10    -286.8616516782      5.81E-04
   11    -286.8623813981      2.67E-04
   12    -286.8625831975      1.16E-04
   13    -286.8626581518      6.79E-05
   14    -286.8626931731      4.03E-05
   15    -286.8627132472      1.99E-05
   16    -286.8627238172      7.20E-06
   17    -286.8627260864      1.33E-06
   18    -286.8627265755      5.60E-07
   19    -286.8627267225      3.03E-07
   20    -286.8627268171      1.43E-07
   21    -286.8627268289      2.21E-08
   22    -286.8627268290      6.04E-09 Convergence criterion met
 ---------------------------------------
 <S^2> = 0.7618
 SCF time:  CPU 55.82 s  wall 54.96 s
 SCF   energy in the final basis set = -286.86272683
 Total energy in the final basis set = -286.86272683
 
 --------------------------------------------------------------
 
                    Orbital Energies (a.u.)
 --------------------------------------------------------------
 
 Alpha MOs
 -- Occupied --
-14.392 -10.235 -10.213 -10.209 -10.205 -10.172 -10.171  -0.973
 -0.816  -0.734  -0.721  -0.612  -0.567  -0.546  -0.506  -0.473
 -0.431  -0.415  -0.410  -0.384  -0.374  -0.304  -0.258  -0.223
 -0.213
 -- Virtual --
 -0.005   0.071   0.093   0.099   0.113   0.138   0.155   0.173
  0.176   0.216   0.228   0.282   0.334   0.372   0.392   0.436
  0.488   0.508   0.536   0.550   0.561   0.589   0.593   0.602
  0.603   0.622   0.624   0.652   0.673   0.706   0.783   0.804
  0.823   0.844   0.849   0.852   0.890   0.917   0.929   0.953
  0.984   1.034   1.097   1.122   1.184   1.214   1.283   1.339
  1.349   1.385   1.413   1.466   1.495   1.497   1.535   1.545
  1.680   1.760   1.796   1.870   1.913   1.978   2.006   2.017
  2.046   2.097   2.144   2.166   2.209   2.245   2.256   2.302
  2.344   2.366   2.500   2.547   2.596   2.621   2.668   2.705
  2.770   2.872   3.028   3.052   3.186   3.949   4.075   4.121
  4.160   4.269   4.460   4.471
 
 Beta MOs
 -- Occupied --
-14.391 -10.236 -10.213 -10.209 -10.189 -10.173 -10.171  -0.972
 -0.811  -0.723  -0.717  -0.602  -0.565  -0.545  -0.493  -0.464
 -0.428  -0.416  -0.407  -0.383  -0.374  -0.301  -0.219  -0.208
 -- Virtual --
 -0.088   0.003   0.074   0.094   0.104   0.115   0.141   0.156
  0.176   0.178   0.221   0.229   0.286   0.336   0.387   0.398
  0.443   0.500   0.508   0.537   0.554   0.567   0.589   0.594
  0.606   0.619   0.628   0.628   0.672   0.680   0.707   0.788
  0.805   0.824   0.849   0.850   0.853   0.900   0.928   0.930
  0.956   0.991   1.039   1.106   1.125   1.186   1.219   1.287
  1.341   1.349   1.385   1.422   1.470   1.497   1.498   1.535
  1.545   1.739   1.780   1.813   1.881   1.918   1.981   2.008
  2.025   2.054   2.112   2.154   2.168   2.212   2.245   2.263
  2.306   2.346   2.367   2.502   2.564   2.601   2.626   2.672
  2.705   2.779   2.875   3.029   3.054   3.194   3.950   4.108
  4.121   4.160   4.273   4.461   4.472
 --------------------------------------------------------------
 
          Ground-State Mulliken Net Atomic Charges

     Atom                 Charge (a.u.)    Spin (a.u.)
  --------------------------------------------------------
      1 C                     0.076703      -0.128514
      2 C                     0.022783      -0.004796
      3 C                    -0.176339      -0.003059
      4 C                    -0.191692      -0.011250
      5 C                     0.055097       0.009581
      6 N                    -0.436385       0.016164
      7 H                     0.167009       0.067610
      8 H                     0.154484       0.000167
      9 H                     0.130084       0.000708
     10 H                     0.126580       0.000946
     11 H                     0.163085       0.000188
     12 C                    -0.252134       1.051048
     13 H                     0.160724       0.001207
  --------------------------------------------------------
  Sum of atomic charges =    -0.000000
  Sum of spin   charges =     1.000000

 -----------------------------------------------------------------
                    Cartesian Multipole Moments
 -----------------------------------------------------------------
    Charge (ESU x 10^10)
                -0.0000
    Dipole Moment (Debye)
         X       0.9703      Y      -0.5796      Z      -0.4650
       Tot       1.2221
    Quadrupole Moments (Debye-Ang)
        XX     -36.7491     XY      -0.7860     YY     -36.9506
        XZ      -3.8888     YZ       1.0775     ZZ     -43.0806
    Octopole Moments (Debye-Ang^2)
       XXX       8.8551    XXY      -1.6466    XYY      -0.6674
       YYY     -11.1861    XXZ      -3.0836    XYZ      -0.4093
       YYZ       0.0224    XZZ       1.9854    YZZ      -2.4055
       ZZZ      -2.0257
    Hexadecapole Moments (Debye-Ang^3)
      XXXX    -482.3445   XXXY     -64.7885   XXYY    -126.2732
      XYYY     -79.8887   YYYY    -283.1811   XXXZ      72.9279
      XXYZ       1.2149   XYYZ      28.1898   YYYZ      31.4485
      XXZZ    -102.3451   XYZZ     -26.7116   YYZZ     -76.9365
      XZZZ     112.5592   YZZZ      30.5398   ZZZZ    -153.2788
 -----------------------------------------------------------------
 Calculating analytic gradient of the SCF energy
 Gradient of SCF Energy
            1           2           3           4           5           6
    1   0.0086391  -0.0169675   0.0128849   0.0001306  -0.0014786   0.0049456
    2   0.0045453  -0.0212584  -0.0055144  -0.0020456   0.0203965   0.0520805
    3  -0.0024743   0.0065961  -0.0068070  -0.0006993   0.0022705   0.0019800
            7           8           9          10          11          12
    1   0.0072707   0.0032158  -0.0012500   0.0044146  -0.0033878  -0.0103623
    2  -0.0025082  -0.0285239  -0.0004311  -0.0011205   0.0037623  -0.0107632
    3  -0.0041953  -0.0041932   0.0008397  -0.0018903   0.0017874   0.0032318
           13
    1  -0.0080551
    2  -0.0086193
    3   0.0035539
 Max gradient component =       5.208E-02
 RMS gradient           =       1.204E-02
 Gradient time:  CPU 6.91 s  wall 3.20 s
 FSM gradient convergence criteria satisfied
 After opt distance between the previous and current R_nodes (Angstroms): 0.2175
 After opt distance between the previous and current P_nodes (Angstroms): 0.2357
-Printing perpgrad.txt, Vfile.txt, and stringfile.txt

STARTING FREEZING STRING ITERATION # 2
 The distance between the innermost nodes (Angstroms): 4.604
-Adding two new nodes
 The distance between the previous and current R_nodes (Angstroms): 0.2343
 The distance between the previous and current P_nodes (Angstroms): 0.2357
-Optimizing new reactant side node
 Using BFGS, step: 3 E_tol 0.0520
 max_steps 6, node_spacing 0.2322, sigma 0.7000
 ----------------------------------------------------------------
             Standard Nuclear Orientation (Angstroms)
    I     Atom           X                Y                Z
 ----------------------------------------------------------------
    1      C       1.3976876203     0.8361473445    -0.5975710256
    2      C       0.1738182762    -1.4086578431    -0.1940122646
    3      C      -1.0297584967    -1.0788448693     0.4012425057
    4      C      -1.4519087007     0.2485866785     0.7041054097
    5      C      -0.7324452057     1.4049025153     0.4558386420
    6      N       0.4604314968     1.6532230364    -0.0815254980
    7      H       2.2728090456     1.3619108308    -0.9662034736
    8      H       0.3423799865    -2.4765053821    -0.3593579256
    9      H      -1.7213315967    -1.8850847916     0.6684145563
   10      H      -2.4181791228     0.3798168469     1.1776548486
   11      H      -1.2015289547     2.3393785531     0.7608763359
   12      C       1.4652664764    -0.5107628320    -0.7585929660
   13      H       2.4121006630    -0.8917921735    -1.2012986082
 ----------------------------------------------------------------
 Nuclear Repulsion Energy =   257.2134193344 hartrees
 There are       25 alpha and       24 beta electrons

                       Distance Matrix (Angstroms)
             C (  1)   C (  2)   C (  3)   C (  4)   C (  5)   N (  6)
   C (  2)  2.588410
   C (  3)  3.249203  1.382643
   C (  4)  3.187442  2.489189  1.425486
   C (  5)  2.443485  3.026506  2.502075  1.384316
   N (  6)  1.346241  3.077323  3.149274  2.499453  1.331682
   H (  7)  1.085428  3.560631  4.328296  4.231187  3.324997  2.037702
   H (  8)  3.484837  1.093641  2.101126  3.431698  4.109151  4.140747
   H (  9)  4.328522  2.135967  1.095298  2.150911  3.441962  4.223994
   H ( 10)  4.233262  3.434904  2.158291  1.084043  2.100837  3.390206
   H ( 11)  3.295605  4.105018  3.441380  2.106496  1.089189  1.985589
   C ( 12)  1.358183  1.671169  2.809463  3.350524  3.158252  2.480111
   H ( 13)  2.092677  2.508323  3.801253  4.456635  4.231912  3.397059
             H (  7)   H (  8)   H (  9)   H ( 10)   H ( 11)   C ( 12)
   H (  8)  4.339154
   H (  9)  5.400751  2.380126
   H ( 10)  5.250334  4.259304  2.423778
   H ( 11)  4.001159  5.179896  4.257327  2.343891
   C ( 12)  2.049911  2.298784  3.752268  4.429824  4.188543
   H ( 13)  2.270209  2.739329  4.644106  5.532451  5.229619  1.112505

 
 Applying Cartesian multipole field
    Component          Value
    ---------          -----
     (2,0,0)        1.00000E-11
     (0,2,0)        2.00000E-11
     (0,0,2)       -3.00000E-10
 Nucleus-field energy     =    -0.0000000093 hartrees
 Requested basis set is 6-31G(d)
 There are 40 shells and 117 basis functions
 A cutoff of  1.0D-14 yielded    789 shell pairs
 There are      7061 function pairs
 Smallest overlap matrix eigenvalue = 1.61E-03
 Guess MOs from core Hamiltonian diagonalization
 Mixing HOMO and LUMO in initial guess
 Adding  50% of the LUMO to the HOMO
 An unrestricted hybrid HF-DFT SCF calculation will be
 performed using Pulay DIIS extrapolation
 Exchange:     0.2000 Hartree-Fock + 0.0800 Slater + 0.7200 B88
 Correlation:  0.1900 VWN1RPA + 0.8100 LYP
 Using SG-1 standard quadrature grid
 SCF converges when DIIS error is below 1.0E-08
 using 4 threads for integral computing
 -------------------------------------------------------
 OpenMP Integral computing Module                
 Release: version 1.0, May 2013, Q-Chem Inc. Pittsburgh 
 -------------------------------------------------------
 -------------------------------------------------------
 OpenMP BLAS3 based DFT computing Module                
 Release: version 1.0, May 2013, Q-Chem Inc. Pittsburgh 
 -------------------------------------------------------
 ---------------------------------------
  Cycle       Energy         DIIS Error
 ---------------------------------------
    1    -237.2562303960      1.29E-01
    2    -219.9926216504      1.08E-01
    3    -240.1899079675      1.03E-01
    4    -278.3489967215      6.23E-02
    5    -280.6189954761      4.66E-02
    6    -286.4442226451      1.37E-02
    7    -286.2798682557      1.59E-02
    8    -286.8207591930      5.30E-03
    9    -286.8630666517      3.51E-03
   10    -286.8879883470      7.75E-04
   11    -286.8892914034      2.72E-04
   12    -286.8895272894      8.98E-05
   13    -286.8896214683      4.93E-05
   14    -286.8896780292      1.80E-05
   15    -286.8896897542      9.12E-06
   16    -286.8896935586      3.11E-06
   17    -286.8896944248      1.64E-06
   18    -286.8896946653      1.13E-06
   19    -286.8896946859      5.88E-07
   20    -286.8896946975      1.97E-07
   21    -286.8896947008      8.96E-08
   22    -286.8896947016      3.52E-08
   23    -286.8896947017      1.37E-08
   24    -286.8896947017      5.46E-09 Convergence criterion met
 ---------------------------------------
 <S^2> = 0.7818
 SCF time:  CPU 61.60 s  wall 54.18 s
 SCF   energy in the final basis set = -286.88969470
 Total energy in the final basis set = -286.88969470
 
 --------------------------------------------------------------
 
                    Orbital Energies (a.u.)
 --------------------------------------------------------------
 
 Alpha MOs
 -- Occupied --
-14.320 -10.229 -10.227 -10.224 -10.219 -10.218 -10.200  -0.921
 -0.808  -0.778  -0.696  -0.655  -0.557  -0.526  -0.506  -0.454
 -0.430  -0.418  -0.392  -0.391  -0.334  -0.318  -0.293  -0.238
 -0.173
 -- Virtual --
 -0.063   0.075   0.079   0.107   0.111   0.125   0.144   0.183
  0.190   0.199   0.256   0.312   0.341   0.370   0.416   0.478
  0.486   0.498   0.566   0.571   0.575   0.578   0.586   0.605
  0.618   0.638   0.646   0.649   0.713   0.723   0.815   0.835
  0.853   0.862   0.870   0.880   0.886   0.903   0.946   0.971
  0.997   1.038   1.056   1.130   1.160   1.200   1.280   1.291
  1.339   1.407   1.412   1.463   1.503   1.550   1.577   1.593
  1.610   1.673   1.787   1.822   1.853   1.923   1.931   1.942
  1.999   2.055   2.088   2.110   2.159   2.191   2.248   2.311
  2.331   2.433   2.449   2.500   2.548   2.594   2.623   2.700
  2.753   2.799   3.043   3.119   3.306   3.997   4.026   4.095
  4.202   4.256   4.493   4.569
 
 Beta MOs
 -- Occupied --
[...]
      4 C                    -0.157275       0.459847
      5 C                     0.077379      -0.137843
      6 N                    -0.335130       0.286267
      7 H                     0.156210       0.025983
      8 H                     0.159252      -0.026059
      9 H                     0.148827      -0.010251
     10 H                     0.138884      -0.022692
     11 H                     0.142533       0.007298
     12 C                    -0.240200       0.572678
     13 H                     0.134237       0.015961
  --------------------------------------------------------
  Sum of atomic charges =     0.000000
  Sum of spin   charges =     1.000000

 -----------------------------------------------------------------
                    Cartesian Multipole Moments
 -----------------------------------------------------------------
    Charge (ESU x 10^10)
                 0.0000
    Dipole Moment (Debye)
         X      -0.3268      Y       0.3794      Z       1.2504
       Tot       1.3469
    Quadrupole Moments (Debye-Ang)
        XX     -36.4194     XY       0.0850     YY     -36.6150
        XZ      -2.0632     YZ       0.1119     ZZ     -42.8390
    Octopole Moments (Debye-Ang^2)
       XXX       3.6591    XXY       0.8897    XYY      -4.4324
       YYY      -7.4593    XXZ       4.7878    XYZ       1.4535
       YYZ       5.4885    XZZ       1.3792    YZZ      -0.9755
       ZZZ       4.3779
    Hexadecapole Moments (Debye-Ang^3)
      XXXX    -430.3555   XXXY     -14.4634   XXYY    -121.4753
      XYYY     -23.2499   YYYY    -254.8975   XXXZ      80.8029
      XXYZ      -3.7993   XYYZ      31.4887   YYYZ     -18.0395
      XXZZ     -95.7144   XYZZ      -8.4762   YYZZ     -80.3776
      XZZZ      93.7509   YZZZ     -19.5838   ZZZZ    -179.3010
 -----------------------------------------------------------------
 Calculating analytic gradient of the SCF energy
 Gradient of SCF Energy
            1           2           3           4           5           6
    1   0.0028179  -0.0007784   0.0073504   0.0028631  -0.0008958  -0.0120462
    2  -0.0051930  -0.0042818   0.0126294  -0.0139805   0.0108076   0.0116699
    3  -0.0152140   0.0023231   0.0027130  -0.0064933  -0.0027369  -0.0017353
            7           8           9          10          11          12
    1  -0.0054750  -0.0001740  -0.0024947  -0.0005161   0.0055596  -0.0077062
    2  -0.0198591  -0.0136031  -0.0064819   0.0050436  -0.0053390   0.0229849
    3   0.0084162   0.0021210   0.0074255   0.0044946  -0.0031421   0.0013862
           13
    1   0.0114954
    2   0.0056029
    3   0.0004419
 Max gradient component =       2.298E-02
 RMS gradient           =       8.509E-03
 Gradient time:  CPU 7.31 s  wall 2.52 s
 ----------------------------------------------------------------
             Standard Nuclear Orientation (Angstroms)
    I     Atom           X                Y                Z
 ----------------------------------------------------------------
    1      C       1.6255518541     0.6675446265    -0.4012053163
    2      C      -0.0942150869    -1.3198588517    -0.3110082878
    3      C      -1.2263253066    -1.0355853664     0.4168451984
    4      C      -1.6943380846     0.2583087293     0.7152021702
    5      C      -0.7147981704     1.2872187046     0.4964624788
    6      N       0.4313289501     0.8027732129     0.2283266501
    7      H       2.5182521246     0.9493921281     0.1495667689
    8      H       0.3946280001    -2.3075455459    -0.2563537461
    9      H      -1.7894590625    -1.9020814224     0.8208921528
   10      H      -2.6474585555     0.4986796069     1.1875843153
   11      H      -0.9172088754     2.3552396457     0.5211869705
   12      C       1.6175000479    -0.1992699627    -1.4059957021
   13      H       2.4496600447    -0.2935352684    -2.1260240182
 ----------------------------------------------------------------
 Nuclear Repulsion Energy =   257.3129868332 hartrees
 There are       25 alpha and       24 beta electrons

                       Distance Matrix (Angstroms)
             C (  1)   C (  2)   C (  3)   C (  4)   C (  5)   N (  6)
   C (  2)  2.629735
   C (  3)  3.420974  1.375593
   C (  4)  3.526402  2.470651  1.407911
   C (  5)  2.582062  2.798926  2.379794  1.437359
   N (  6)  1.356748  2.252253  2.482523  2.247654  1.272867
   H (  7)  1.086141  3.490933  4.246579  4.306211  3.269110  2.093549
   H (  8)  3.222936  1.103395  2.167618  3.448378  3.836651  3.148070
   H (  9)  4.445087  2.119914  1.109590  2.165064  3.381092  3.549545
   H ( 10)  4.561950  3.474466  2.228818  1.090579  2.198777  3.239071
   H ( 11)  3.188221  3.856970  3.406484  2.244703  1.087313  2.077131
   C ( 12)  1.327040  2.320493  3.479873  3.959436  3.356875  2.254352
   H ( 13)  2.139586  3.289213  4.530970  5.054683  4.403409  3.289152
             H (  7)   H (  8)   H (  9)   H ( 10)   H ( 11)   C ( 12)
   H (  8)  3.909245
   H (  9)  5.209410  2.468825
   H ( 10)  5.288212  4.383395  2.575710
   H ( 11)  3.730536  4.905818  4.356079  2.623864
   C ( 12)  2.133203  2.694795  4.412025  5.040205  4.082193
   H ( 13)  2.593817  3.431481  5.407575  6.130923  5.035826  1.104453

 
 Applying Cartesian multipole field
    Component          Value
    ---------          -----
     (2,0,0)        1.00000E-11
     (0,2,0)        2.00000E-11
     (0,0,2)       -3.00000E-10
 Nucleus-field energy     =    -0.0000000215 hartrees
 Requested basis set is 6-31G(d)
 There are 40 shells and 117 basis functions
 A cutoff of  1.0D-14 yielded    788 shell pairs
 There are      7040 function pairs
 Smallest overlap matrix eigenvalue = 1.70E-03
 Guess MOs from core Hamiltonian diagonalization
 Mixing HOMO and LUMO in initial guess
 Adding  50% of the LUMO to the HOMO
 An unrestricted hybrid HF-DFT SCF calculation will be
 performed using Pulay DIIS extrapolation
 Exchange:     0.2000 Hartree-Fock + 0.0800 Slater + 0.7200 B88
 Correlation:  0.1900 VWN1RPA + 0.8100 LYP
 Using SG-1 standard quadrature grid
 SCF converges when DIIS error is below 1.0E-08
 using 4 threads for integral computing
 -------------------------------------------------------
 OpenMP Integral computing Module                
 Release: version 1.0, May 2013, Q-Chem Inc. Pittsburgh 
 -------------------------------------------------------
 -------------------------------------------------------
 OpenMP BLAS3 based DFT computing Module                
 Release: version 1.0, May 2013, Q-Chem Inc. Pittsburgh 
 -------------------------------------------------------
 ---------------------------------------
  Cycle       Energy         DIIS Error
 ---------------------------------------
    1    -232.5194738647      1.36E-01
    2    -205.2093804581      1.12E-01
    3    -239.8718355730      1.08E-01
    4    -270.3725203463      7.99E-02
    5    -283.7186044535      3.83E-02
    6    -285.7887797123      1.76E-02
    7    -285.9723972566      1.73E-02
    8    -286.6112217473      6.09E-03
    9    -286.6282304529      5.14E-03
   10    -286.6958489769      1.01E-03
   11    -286.6981993567      3.70E-04
   12    -286.6991718199      9.51E-05
   13    -286.6996638149      5.74E-05
   14    -286.6999231065      4.14E-05
   15    -286.7000883630      2.81E-05
   16    -286.7002672635      2.74E-05
   17    -286.7003845979      2.24E-05
   18    -286.7005740505      9.42E-06
   19    -286.7006309066      5.82E-06
   20    -286.7006316300      1.77E-06
   21    -286.7006320013      1.38E-06
   22    -286.7006321691      4.41E-07
   23    -286.7006321881      2.35E-07
   24    -286.7006322017      1.72E-07
   25    -286.7006322028      5.26E-08
   26    -286.7006322031      3.32E-08
   27    -286.7006322034      1.70E-08
   28    -286.7006322034      1.04E-08
   29    -286.7006322034      2.66E-09 Convergence criterion met
 ---------------------------------------
 <S^2> = 0.8870
 SCF time:  CPU 74.50 s  wall 102.89 s
 SCF   energy in the final basis set = -286.70063220
 Total energy in the final basis set = -286.70063220
 
 --------------------------------------------------------------
 
                    Orbital Energies (a.u.)
 --------------------------------------------------------------
 
 Alpha MOs
 -- Occupied --
-14.339 -10.241 -10.234 -10.220 -10.200 -10.198 -10.187  -0.943
 -0.807  -0.762  -0.684  -0.623  -0.556  -0.529  -0.498  -0.476
 -0.433  -0.404  -0.401  -0.376  -0.318  -0.288  -0.248  -0.193
 -0.183
 -- Virtual --
 -0.066  -0.018   0.047   0.082   0.110   0.148   0.150   0.163
  0.173   0.185   0.253   0.291   0.321   0.355   0.398   0.427
  0.481   0.506   0.538   0.549   0.571   0.581   0.591   0.611
  0.628   0.633   0.648   0.687   0.708   0.751   0.766   0.789
  0.809   0.829   0.860   0.877   0.887   0.898   0.926   0.932
  0.965   1.017   1.030   1.061   1.114   1.149   1.177   1.210
  1.303   1.335   1.432   1.482   1.498   1.587   1.609   1.664
  1.733   1.766   1.776   1.841   1.875   1.889   1.931   1.967
  1.994   2.047   2.084   2.120   2.165   2.187   2.215   2.262
  2.293   2.371   2.424   2.483   2.510   2.568   2.614   2.714
  2.766   2.851   2.907   3.139   3.259   4.018   4.071   4.126
  4.145   4.282   4.387   4.490
 
 Beta MOs
 -- Occupied --
-14.333 -10.243 -10.233 -10.222 -10.200 -10.193 -10.178  -0.933
 -0.801  -0.758  -0.671  -0.614  -0.552  -0.528  -0.492  -0.471
 -0.425  -0.404  -0.398  -0.367  -0.314  -0.269  -0.227  -0.183
 -- Virtual --
 -0.089  -0.048  -0.007   0.052   0.100   0.110   0.149   0.152
  0.167   0.178   0.185   0.257   0.293   0.324   0.361   0.398
  0.430   0.486   0.517   0.542   0.551   0.573   0.588   0.599
  0.613   0.637   0.646   0.657   0.693   0.716   0.760   0.769
  0.787   0.811   0.830   0.862   0.879   0.893   0.904   0.929
  0.933   0.971   1.021   1.037   1.067   1.120   1.153   1.183
  1.217   1.310   1.342   1.440   1.490   1.505   1.593   1.623
  1.670   1.740   1.774   1.790   1.854   1.889   1.894   1.940
  1.973   2.005   2.055   2.097   2.126   2.177   2.187   2.228
  2.270   2.297   2.373   2.430   2.492   2.517   2.578   2.615
  2.721   2.767   2.852   2.914   3.141   3.265   4.021   4.076
  4.132   4.162   4.281   4.390   4.495
 --------------------------------------------------------------
 
          Ground-State Mulliken Net Atomic Charges

     Atom                 Charge (a.u.)    Spin (a.u.)
  --------------------------------------------------------
      1 C                     0.014141      -0.117671
      2 C                    -0.117367       0.102558
      3 C                    -0.120929      -0.140605
      4 C                    -0.156371       0.469565
      5 C                     0.076771      -0.140533
      6 N                    -0.333404       0.285485
      7 H                     0.155919       0.025023
      8 H                     0.158806      -0.026147
      9 H                     0.149103      -0.009390
     10 H                     0.139108      -0.023185
     11 H                     0.141196       0.007124
     12 C                    -0.241474       0.552918
     13 H                     0.134502       0.014858
  --------------------------------------------------------
  Sum of atomic charges =    -0.000000
  Sum of spin   charges =     1.000000

 -----------------------------------------------------------------
                    Cartesian Multipole Moments
 -----------------------------------------------------------------
    Charge (ESU x 10^10)
                -0.0000
    Dipole Moment (Debye)
         X      -0.3270      Y       0.3717      Z       1.2411
       Tot       1.3362
    Quadrupole Moments (Debye-Ang)
        XX     -36.3770     XY       0.1133     YY     -36.7147
        XZ      -2.0979     YZ       0.0804     ZZ     -42.7928
    Octopole Moments (Debye-Ang^2)
       XXX       3.6274    XXY       0.9338    XYY      -4.4171
       YYY      -7.5262    XXZ       4.7431    XYZ       1.4258
       YYZ       5.4580    XZZ       1.4006    YZZ      -0.9690
       ZZZ       4.3700
    Hexadecapole Moments (Debye-Ang^3)
      XXXX    -429.3836   XXXY     -14.1378   XXYY    -121.4975
      XYYY     -22.9379   YYYY    -256.2186   XXXZ      80.3543
      XXYZ      -3.9809   XYYZ      31.3502   YYYZ     -18.4924
      XXZZ     -95.4175   XYZZ      -8.3921   YYZZ     -80.4258
      XZZZ      93.3480   YZZZ     -19.8536   ZZZZ    -178.8018
 -----------------------------------------------------------------
 Calculating analytic gradient of the SCF energy
 Gradient of SCF Energy
            1           2           3           4           5           6
    1   0.0031308  -0.0014300   0.0068710   0.0026499  -0.0008316  -0.0125499
    2  -0.0049120  -0.0031642   0.0125153  -0.0139589   0.0104419   0.0090228
    3  -0.0160117   0.0036490   0.0029386  -0.0061521  -0.0028216  -0.0018089
            7           8           9          10          11          12
    1  -0.0056714   0.0001041  -0.0032526  -0.0008528   0.0060678  -0.0067806
    2  -0.0199316  -0.0129580  -0.0067337   0.0053472  -0.0057660   0.0242855
    3   0.0086065   0.0025371   0.0075593   0.0045735  -0.0033271   0.0002832
           13
    1   0.0125453
    2   0.0058118
    3  -0.0000260
 Max gradient component =       2.429E-02
 RMS gradient           =       8.589E-03
 Gradient time:  CPU 7.20 s  wall 9.55 s
 E1 = -286.7005109, E2 = -286.7006322, Emax = -286.7005580
 Iteration 5, Curvature = -0.5944529
 Curvature, final (in Hartree/Bohr^2) = -0.1664638
 ----------------------------------------------------------------
             Standard Nuclear Orientation (Angstroms)
    I     Atom           X                Y                Z
 ----------------------------------------------------------------
    1      C       1.6262992212     0.6680463696    -0.4024449459
    2      C      -0.0954912101    -1.3190393619    -0.3092030556
    3      C      -1.2276962567    -1.0357038796     0.4175738841
    4      C      -1.6946423395     0.2585224017     0.7156597209
    5      C      -0.7147810477     1.2866039832     0.4966423266
    6      N       0.4305618346     0.7987510107     0.2280239899
    7      H       2.5181206150     0.9490101193     0.1502517492
    8      H       0.3950826450    -2.3062856325    -0.2558558646
    9      H      -1.7902256926    -1.9022880588     0.8208901928
   10      H      -2.6476537739     0.4988954511     1.1875403659
   11      H      -0.9167656948     2.3549046294     0.5210226743
   12      C       1.6192322698    -0.1971658432    -1.4079333760
   13      H       2.4510796897    -0.2929595059    -2.1267069235
 ----------------------------------------------------------------
 Nuclear Repulsion Energy =   257.3127581794 hartrees
 There are       25 alpha and       24 beta electrons
 Requested basis set is 6-31G(d)
 There are 40 shells and 117 basis functions
 Geometry Optimization Parameters
   NAtoms,    NIC,     NZ,  NCons,   NDum,   NFix, NCnnct, MaxDiis
       13      69       0       0       0       0       0       0


** GEOMETRY OPTIMIZATION IN DELOCALIZED INTERNAL COORDINATES **
   Searching for a Minimum

   Optimization Cycle:   1

                       Coordinates (Angstroms)
     ATOM                X               Y               Z
      1  C         1.6262992212    0.6680463696   -0.4024449459
      2  C        -0.0954912101   -1.3190393619   -0.3092030556
      3  C        -1.2276962567   -1.0357038796    0.4175738841
      4  C        -1.6946423395    0.2585224017    0.7156597209
      5  C        -0.7147810477    1.2866039832    0.4966423266
      6  N         0.4305618346    0.7987510107    0.2280239899
      7  H         2.5181206150    0.9490101193    0.1502517492
      8  H         0.3950826450   -2.3062856325   -0.2558558646
      9  H        -1.7902256926   -1.9022880588    0.8208901928
     10  H        -2.6476537739    0.4988954511    1.1875403659
     11  H        -0.9167656948    2.3549046294    0.5210226743
     12  C         1.6192322698   -0.1971658432   -1.4079333760
     13  H         2.4510796897   -0.2929595059   -2.1267069235
   Point Group: c1    Number of degrees of freedom:    33


   Energy is   -286.700632203


 Attempting to Generate Delocalized Internal Coordinates

 33 Hessian modes will be used to form the next step
  Hessian Eigenvalues:
     0.017509    0.019936    0.021192    0.021374    0.022363    0.022826
     0.025726    0.032127    0.032370    0.034037    0.155780    0.159009
     0.159957    0.159970    0.160000    0.160000    0.220010    0.220016
     0.220148    0.221869    0.250000    0.326970    0.332757    0.332946
     0.347818    0.351030    0.352593    0.399959    0.443511    0.500450
     0.533389    0.603358    0.751038

 Minimum Search - Taking Simple RFO Step
 Searching for Lamda that Minimizes Along All modes
 Value Taken    Lamda =  -0.11204925
 Calculated Step too Large.  Step scaled by  0.367133
 Step Taken.  Stepsize is  0.300000

                             Maximum     Tolerance    Cnvgd?
         Gradient           0.108901      0.000300      NO
         Displacement       0.180224      0.001200      NO
         Energy change     *********      0.000001      NO


 New Cartesian Coordinates Obtained by Inverse Iteration

 Displacement from previous Coordinates is:  1.728975
 ----------------------------------------------------------------
             Standard Nuclear Orientation (Angstroms)
    I     Atom           X                Y                Z
 ----------------------------------------------------------------
    1      C       1.5650218825     0.6261808337    -0.3924519307
    2      C      -0.0187843361    -1.0613368149    -0.4313665440
    3      C      -1.1518050304    -0.9704753334     0.3427699214
    4      C      -1.6920230221     0.2594126296     0.7560827256
    5      C      -0.7424204607     1.3132333662     0.5597791731
    6      N       0.3999731495     0.8210763411     0.2741985528
    7      H       2.4795259045     1.0613257086     0.0063376464
    8      H       0.5753383547    -1.9825358805    -0.5038920963
    9      H      -1.6354254658    -1.9117319738     0.6601866457
   10      H      -2.6520048374     0.4256135093     1.2417782840
   11      H      -0.9689327807     2.3794864227     0.5867541948
   12      C       1.5196081317    -0.4637797627    -1.1565894860
   13      H       2.2750487701    -0.7351773627    -1.9081263487
 ----------------------------------------------------------------
 Nuclear Repulsion Energy =   265.4659260264 hartrees
 There are       25 alpha and       24 beta electrons

































 Eigenvalues after right structure
 -0.1934718 -0.0000000 -0.0000000 -0.0000000 0.0000000 0.0000000 0.0000001 0.0018729 0.0034554 0.0053072 0.0148569 0.0166863 0.0266206 0.0353010 0.0509764 0.0525566 0.0603579 0.0679089 0.0775110 0.0855450 0.1080925 0.1252370 0.1359126 0.1623263 0.2163082 0.2477246 0.3297468 0.3961053 0.4923448 0.5114263 0.6536812 0.7549963 0.8442675 1.0768353 1.1108215 1.3117188 1.4706867 1.6090695 2.0842380
Archival summary:
1\1\c8-90\JobtypUnspecified\ProcedureUnspecified\6-31G*\166(2)\hpark21\TueMar107:57:072022TueMar107:57:072022\0\\#,JobtypUnspecified,ProcedureUnspecified,6-31G*,\\0,2\N\C,1,1.27626\H,2,1.09038,1,124.651\C,1,1.35637,2,159.106,3,-47.0023,0\H,4,1.08844,1,118.957,2,101.759,0\C,4,1.33191,1,111.733,2,-101.756,0\H,6,1.09962,4,124.796,1,169.554,0\C,2,1.43207,1,109.904,3,176.466,0\H,8,1.08862,2,122.246,1,164.522,0\C,8,1.40545,2,110.412,1,-10.6477,0\H,10,1.10481,8,119.524,2,164.204,0\C,10,1.37524,8,122.686,2,-14.6381,0\H,12,1.09857,10,122.556,8,160.936,0\\\@

 Total job time:  8090.80s(wall), 8267.57s(cpu) 
 Tue Mar  1 07:57:07 2022

        *************************************************************
        *                                                           *
        *  Thank you very much for using Q-Chem.  Have a nice day.  *
        *                                                           *
        *************************************************************


