
Running Job 1 of 1 qcopt_rct.in
qchem qcopt_rct.in_24868.0 ./qcopt_rct.d/ 1
/home/leeping/opt/qchem/5.0.2-openmp/exe/qcprog.exe_s qcopt_rct.in_24868.0 ./qcopt_rct.d/
Check license passed

                  Welcome to Q-Chem
     A Quantum Leap Into The Future Of Chemistry


 Q-Chem 5.0, Q-Chem, Inc., Pleasanton, CA (2017)

 Yihan Shao,  Zhengting Gan,  E. Epifanovsky,  A. T. B. Gilbert,  M. Wormit,  
 J. Kussmann,  A. W. Lange,  A. Behn,  Jia Deng,  Xintian Feng,  D. Ghosh,  
 M. Goldey,  P. R. Horn,  L. D. Jacobson,  I. Kaliman,  T. Kus,  A. Landau,  
 Jie Liu,  E. I. Proynov,  R. M. Richard,  R. P. Steele,  E. J. Sundstrom,  
 H. L. Woodcock III,  P. M. Zimmerman,  D. Zuev,  B. Albrecht,  E. Alguire,  
 S. A. Baeppler,  D. Barton,  Z. Benda,  Y. A. Bernard,  E. J. Berquist,  
 K. B. Bravaya,  H. Burton,  D. Casanova,  Chun-Min Chang,  Yunqing Chen,  
 A. Chien,  K. D. Closser,  M. P. Coons,  S. Dasgupta,  A. L. Dempwolff,  
 M. Diedenhofen,  Hainam Do,  R. G. Edgar,  Po-Tung Fang,  S. Fatehi,  
 Qingguo Feng,  J. Fosso-Tande,  Qinghui Ge,  A. Ghysels,  G. Gidofalvi,  
 J. Gomes,  J. Gonthier,  A. Gunina,  M. W. D. Hanson-Heine,  
 P. H. P. Harbach,  A. W. Hauser,  J. E. Herr,  E. G. Hohenstein,  
 Z. C. Holden,  Kerwin Hui,  T.-C. Jagau,  Hyunjun Ji,  B. Kaduk,  
 K. Khistyaev,  Jaehoon Kim,  P. Klunzinger,  K. Koh,  D. Kosenkov,  
 L. Koulias,  T. Kowalczyk,  C. M. Krauter,  A. Kunitsa,  Ka Un Lao,  
 A. Laurent,  K. V. Lawler,  Joonho Lee,  D. Lefrancois,  S. Lehtola,  
 D. S. Levine,  Yi-Pei Li,  You-Sheng Lin,  Fenglai Liu,  E. Livshits,  
 A. Luenser,  P. Manohar,  E. Mansoor,  S. F. Manzer,  Shan-Ping Mao,  
 Yuezhi Mao,  N. Mardirossian,  A. V. Marenich,  T. Markovich,  
 L. A. Martinez-Martinez,  S. A. Maurer,  N. J. Mayhall,  S. C. McKenzie,  
 J.-M. Mewes,  A. F. Morrison,  J. W. Mullinax,  K. Nanda,  
 T. S. Nguyen-Beck,  R. Olivares-Amaya,  J. A. Parkhill,  T. M. Perrine,  
 F. Plasser,  S. Prager,  A. Prociuk,  E. Ramos,  D. R. Rehn,  F. Rob,  
 M. Schneider,  N. Sergueev,  S. M. Sharada,  S. Sharma,  D. W. Small,  
 T. Stauch,  T. Stein,  Yu-Chuan Su,  A. J. W. Thom,  A. Tkatchenko,  
 T. Tsuchimochi,  L. Vogt,  O. Vydrov,  M. A. Watson,  J. Wenzel,  
 M. de Wergifosse,  T. A. Wesolowski,  A. White,  J. Witte,  A. Yamada,  
 Jun Yang,  K. Yao,  S. Yeganeh,  S. R. Yost,  Zhi-Qiang You,  A. Zech,  
 Igor Ying Zhang,  Xing Zhang,  Yan Zhao,  Ying Zhu,  B. R. Brooks,  
 G. K. L. Chan,  C. J. Cramer,  M. S. Gordon,  W. J. Hehre,  A. Klamt,  
 M. W. Schmidt,  C. D. Sherrill,  D. G. Truhlar,  A. Aspuru-Guzik,  R. Baer,  
 A. T. Bell,  N. A. Besley,  Jeng-Da Chai,  R. A. DiStasio Jr.,  A. Dreuw,  
 B. D. Dunietz,  T. R. Furlani,  Chao-Ping Hsu,  Yousung Jung,  Jing Kong,  
 D. S. Lambrecht,  WanZhen Liang,  C. Ochsenfeld,  V. A. Rassolov,  
 L. V. Slipchenko,  J. E. Subotnik,  T. Van Voorhis,  J. M. Herbert,  
 A. I. Krylov,  P. M. W. Gill,  M. Head-Gordon

 Contributors to earlier versions of Q-Chem not listed above: 
 R. D. Adamson,  B. Austin,  J. Baker,  G. J. O. Beran,  K. Brandhorst,  
 S. T. Brown,  E. F. C. Byrd,  A. K. Chakraborty,  C.-L. Cheng,  
 Siu Hung Chien,  D. M. Chipman,  D. L. Crittenden,  H. Dachsel,  
 R. J. Doerksen,  A. D. Dutoi,  L. Fusti-Molnar,  W. A. Goddard III,  
 A. Golubeva-Zadorozhnaya,  S. R. Gwaltney,  G. Hawkins,  A. Heyden,  
 S. Hirata,  G. Kedziora,  F. J. Keil,  C. Kelley,  Jihan Kim,  R. A. King,  
 R. Z. Khaliullin,  P. P. Korambath,  W. Kurlancheek,  A. M. Lee,  M. S. Lee,  
 S. V. Levchenko,  Ching Yeh Lin,  D. Liotard,  R. C. Lochan,  I. Lotan,  
 P. E. Maslen,  N. Nair,  D. P. O'Neill,  D. Neuhauser,  E. Neuscamman,  
 C. M. Oana,  R. Olson,  B. Peters,  R. Peverati,  P. A. Pieniazek,  
 Y. M. Rhee,  J. Ritchie,  M. A. Rohrdanz,  E. Rosta,  N. J. Russ,  
 H. F. Schaefer III,  N. E. Schultz,  N. Shenvi,  A. C. Simmonett,  A. Sodt,  
 D. Stuck,  K. S. Thanthiriwatte,  V. Vanovschi,  Tao Wang,  A. Warshel,  
 C. F. Williams,  Q. Wu,  X. Xu,  W. Zhang

 Please cite Q-Chem as follows:
 Y. Shao et al., Mol. Phys. 113, 184-215 (2015)
 DOI: 10.1080/00268976.2014.952696

 Q-Chem 5.0.2 for Intel X86 EM64T Linux

 Parts of Q-Chem use Armadillo 5.200.1 (Boston Tea Smuggler).
 http://arma.sourceforge.net/

 Q-Chem begins on Tue Mar  1 05:36:44 2022  

Host: 
0

     Scratch files written to ./qcopt_rct.d//
 Dec517 15110_ 26548  26544 5633   
Processing $rem in /home/leeping/opt/qchem/5.0.2-openmp/config/preferences.
 MEM_STATIC 2000
 MEM_TOTAL  8000
 SYMMETRY   OFF
 SYM_IGNORE TRUE 

Checking the input file for inconsistencies... 	...done.

--------------------------------------------------------------
User input:
--------------------------------------------------------------
$molecule
0 2
C        1.3472515847    0.8471269015   -0.5704831078
C        0.2493269033   -1.4171693927   -0.2298456718
C       -0.9303587591   -1.0642376942    0.3544671919
C       -1.3751082017    0.2694510511    0.6690993065
C       -0.7124542785    1.4634158877    0.4565457979
N        0.4890174313    1.7744295363   -0.0849378111
H        2.2578093568    1.3015884455   -0.9674658055
H        0.4258924868   -2.4781684505   -0.3950965960
H       -1.6167315406   -1.8670413326    0.6160883127
H       -2.3535799602    0.3520229829    1.1361447548
H       -1.2541165101    2.3528849344    0.7859345114
C        1.3014963144   -0.5317091505   -0.6595939709
H        2.1715551728   -1.0025937188   -1.1108569119
$end

$rem
method                b3lyp
basis                 6-31g(d)
unrestricted          true
symmetry              off
sym_ignore            true
incdft                false
incfock               0
scf_convergence       8
thresh                14
jobtype               opt
scf_guess             core
scf_guess_mix         5
scf_algorithm         diis
max_scf_cycles        100
geom_opt_max_cycles   300
$end

--------------------------------------------------------------
 ----------------------------------------------------------------
             Standard Nuclear Orientation (Angstroms)
    I     Atom           X                Y                Z
 ----------------------------------------------------------------
    1      C       1.3472515847     0.8471269015    -0.5704831078
    2      C       0.2493269033    -1.4171693927    -0.2298456718
    3      C      -0.9303587591    -1.0642376942     0.3544671919
    4      C      -1.3751082017     0.2694510511     0.6690993065
    5      C      -0.7124542785     1.4634158877     0.4565457979
    6      N       0.4890174313     1.7744295363    -0.0849378111
    7      H       2.2578093568     1.3015884455    -0.9674658055
    8      H       0.4258924868    -2.4781684505    -0.3950965960
    9      H      -1.6167315406    -1.8670413326     0.6160883127
   10      H      -2.3535799602     0.3520229829     1.1361447548
   11      H      -1.2541165101     2.3528849344     0.7859345114
   12      C       1.3014963144    -0.5317091505    -0.6595939709
   13      H       2.1715551728    -1.0025937188    -1.1108569119
 ----------------------------------------------------------------
 Nuclear Repulsion Energy =   260.7201825373 hartrees
 There are       25 alpha and       24 beta electrons
 Requested basis set is 6-31G(d)
 There are 40 shells and 117 basis functions

 Total QAlloc Memory Limit   8000 MB
 Mega-Array Size      1956 MB
 MEM_STATIC part      2000 MB
 A cutoff of  1.0D-14 yielded    791 shell pairs
 There are      7063 function pairs
 
 -------------------------------------------------------
 OpenMP Integral Computing Module                       
 Release: version 1.0, May 2013, Q-Chem Inc. Pittsburgh 
 -------------------------------------------------------
 Integral Job Info:
 Integral job number is                      11
 Integral operator is                         1
 short-range coefficients                     0
 long-range coefficients              100000000
 Omega coefficients                           0
 if combine SR and LR in K                    0
 Integral screening is                        0
 Integral computing path is                   2
 max size of driver memory is            800000
 size of driver memory is                593474
 size of scratch memory is              2361544
 max col of scratch BK array               1296
 max len of scratch array in speh3          155
 max len of scratch index in speh4           18
 max int batch size is                      520
 min int batch size is                       52
 fixed nKL is                                52
 max L of basis functions is                  2
 order of int derivative is                   0
 number of shells is                         40
 number of basis is                         117
 number of cartesian basis is               117
 number of contracted shell pairs           791
 number of primitive shell pairs           3395
 maxK2 (contraction) of shell pair           36
 max number of K2 of shell pair               1
 max number of CS2 of shell pair             94
 max number of PS2 of shell pair            402
 mem total for path MDJ                  535308
 -------------------------------------------------------
 Smallest overlap matrix eigenvalue = 1.33E-03

 Scale SEOQF with 1.000000e-01/1.000000e-01/1.000000e+00

 Standard Electronic Orientation quadrupole field applied
 Nucleus-field energy     =    -0.0000000074 hartrees
 Guess MOs from core Hamiltonian diagonalization
 Mixing HOMO and LUMO in initial guess
 Adding  50% of the LUMO to the HOMO
 An unrestricted hybrid HF-DFT SCF calculation will be
 performed using Pulay DIIS extrapolation
 Exchange:     0.2000 Hartree-Fock + 0.0800 Slater + 0.7200 B88
 Correlation:  0.1900 VWN1RPA + 0.8100 LYP
 Using SG-1 standard quadrature grid
 SCF converges when DIIS error is below 1.0E-08
 using 4 threads for integral computing
 -------------------------------------------------------
 OpenMP Integral computing Module                
 Release: version 1.0, May 2013, Q-Chem Inc. Pittsburgh 
 -------------------------------------------------------
 -------------------------------------------------------
 OpenMP BLAS3 based DFT computing Module                
 Release: version 1.0, May 2013, Q-Chem Inc. Pittsburgh 
 -------------------------------------------------------
 ---------------------------------------
  Cycle       Energy         DIIS Error
 ---------------------------------------
    1    -239.4918885182      1.26E-01
    2    -227.9267575873      1.03E-01
    3    -250.2661191712      1.03E-01
    4    -281.9138809250      4.85E-02
    5    -282.4481465623      4.74E-02
    6    -285.5267228103      2.31E-02
    7    -286.6131162559      1.25E-02
    8    -286.8604571785      4.96E-03
    9    -286.9210189213      8.99E-04
   10    -286.9229696102      7.39E-04
   11    -286.9239929420      1.87E-04
   12    -286.9241860565      9.67E-05
   13    -286.9242599313      5.55E-05
   14    -286.9243343197      1.18E-05
   15    -286.9243434028      4.70E-06
   16    -286.9243451936      2.80E-06
   17    -286.9243456883      7.94E-07
   18    -286.9243457322      3.36E-07
   19    -286.9243457395      2.04E-07
   20    -286.9243457434      1.38E-07
   21    -286.9243457445      5.80E-08
   22    -286.9243457448      1.80E-08
   23    -286.9243457448      3.26E-09 Convergence criterion met
 ---------------------------------------
 <S^2> = 0.7684
 SCF time:  CPU 58.89 s  wall 77.19 s
 SCF   energy in the final basis set = -286.92434574
 Total energy in the final basis set = -286.92434574
 
 --------------------------------------------------------------
 
                    Orbital Energies (a.u.)
 --------------------------------------------------------------
 
 Alpha MOs
 -- Occupied --
-14.322 -10.232 -10.232 -10.212 -10.211 -10.201 -10.201  -0.922
 -0.818  -0.784  -0.693  -0.667  -0.551  -0.537  -0.518  -0.449
 -0.439  -0.414  -0.394  -0.387  -0.349  -0.322  -0.299  -0.251
 -0.162
 -- Virtual --
 -0.072   0.077   0.097   0.101   0.117   0.142   0.181   0.184
  0.193   0.213   0.266   0.320   0.356   0.390   0.412   0.483
  0.496   0.521   0.547   0.576   0.584   0.587   0.591   0.610
  0.619   0.624   0.646   0.658   0.713   0.718   0.833   0.840
  0.847   0.854   0.868   0.872   0.885   0.922   0.965   0.975
  1.024   1.027   1.043   1.127   1.177   1.185   1.300   1.303
  1.326   1.402   1.429   1.480   1.482   1.546   1.574   1.586
  1.682   1.732   1.769   1.829   1.850   1.919   1.924   2.030
  2.046   2.048   2.100   2.141   2.141   2.191   2.247   2.391
  2.410   2.414   2.446   2.545   2.577   2.601   2.614   2.739
  2.748   2.807   3.052   3.249   3.250   4.018   4.046   4.102
  4.196   4.239   4.532   4.595
 
 Beta MOs
 -- Occupied --
-14.314 -10.233 -10.233 -10.210 -10.210 -10.196 -10.196  -0.911
 -0.809  -0.777  -0.681  -0.665  -0.546  -0.535  -0.514  -0.447
 -0.438  -0.411  -0.383  -0.373  -0.348  -0.295  -0.276  -0.241
 -- Virtual --
 -0.078  -0.070   0.078   0.118   0.124   0.125   0.142   0.182
  0.187   0.196   0.219   0.268   0.324   0.360   0.393   0.415
  0.486   0.505   0.525   0.551   0.587   0.588   0.592   0.596
  0.614   0.624   0.629   0.649   0.676   0.716   0.729   0.834
  0.843   0.846   0.869   0.875   0.880   0.887   0.925   0.967
  0.979   1.026   1.030   1.045   1.133   1.180   1.189   1.311
  1.315   1.333   1.411   1.429   1.489   1.492   1.560   1.582
  1.597   1.685   1.737   1.781   1.831   1.854   1.922   1.933
  2.036   2.058   2.061   2.110   2.141   2.146   2.203   2.259
  2.399   2.422   2.425   2.448   2.558   2.578   2.611   2.624
  2.742   2.761   2.810   3.054   3.252   3.254   4.030   4.053
  4.109   4.200   4.239   4.537   4.601
 --------------------------------------------------------------
 
          Ground-State Mulliken Net Atomic Charges

     Atom                 Charge (a.u.)    Spin (a.u.)
  --------------------------------------------------------
      1 C                     0.035427      -0.113313
      2 C                    -0.111251       0.092403
      3 C                    -0.111352       0.095036
      4 C                    -0.131178       0.345698
      5 C                     0.035294      -0.111941
      6 N                    -0.423265       0.387166
      7 H                     0.142651       0.003436
      8 H                     0.141954      -0.006573
      9 H                     0.141916      -0.006697
     10 H                     0.134348      -0.018273
     11 H                     0.142641       0.003369
     12 C                    -0.131563       0.348072
     13 H                     0.134378      -0.018385
  --------------------------------------------------------
  Sum of atomic charges =     0.000000
  Sum of spin   charges =     1.000000

 -----------------------------------------------------------------
                    Cartesian Multipole Moments
 -----------------------------------------------------------------
    Charge (ESU x 10^10)
                -0.0000
    Dipole Moment (Debye)
         X      -0.5950      Y      -2.1609      Z       0.1034
       Tot       2.2437
    Quadrupole Moments (Debye-Ang)
        XX     -36.5029     XY      -1.7857     YY     -41.8197
        XZ      -3.3969     YZ       0.9470     ZZ     -41.6760
    Octopole Moments (Debye-Ang^2)
       XXX      -4.0014    XXY      -6.0673    XYY      -7.9407
       YYY     -36.9606    XXZ      -0.1475    XYZ      -0.4105
       YYZ       1.7008    XZZ      -1.4190    YZZ      -5.4958
       ZZZ       0.7795
    Hexadecapole Moments (Debye-Ang^3)
      XXXX    -322.3206   XXXY      -3.1320   XXYY    -118.3628
      XYYY     -23.1562   YYYY    -428.8804   XXXZ      53.9160
      XXYZ      -4.4230   XYYZ      16.1362   YYYZ      -4.2097
      XXZZ     -70.7692   XYZZ      -2.7812   YYZZ     -88.1338
      XZZZ      71.9008   YZZZ     -12.4155   ZZZZ    -116.1057
 -----------------------------------------------------------------
 Calculating analytic gradient of the SCF energy
 Gradient of SCF Energy
            1           2           3           4           5           6
    1  -0.0000542   0.0000378  -0.0000487  -0.0000069  -0.0001333   0.0001424
    2  -0.0000339   0.0000257   0.0000138  -0.0000002  -0.0000500   0.0000744
    3  -0.0001505   0.0000020   0.0000163  -0.0000977   0.0001449   0.0000427
            7           8           9          10          11          12
    1   0.0000407   0.0000018  -0.0000020  -0.0000131  -0.0000187   0.0000630
    2  -0.0000183  -0.0000077   0.0000019   0.0000214   0.0000011  -0.0000487
    3  -0.0000157   0.0000395   0.0000089  -0.0000301   0.0000057   0.0000239
           13
    1  -0.0000089
    2   0.0000206
    3   0.0000100
 Max gradient component =       1.505E-04
 RMS gradient           =       5.627E-05
 Gradient time:  CPU 7.51 s  wall 5.71 s
 Geometry Optimization Parameters
   NAtoms,    NIC,     NZ,  NCons,   NDum,   NFix, NCnnct, MaxDiis
       13      82       0       0       0       0       0       0


** GEOMETRY OPTIMIZATION IN DELOCALIZED INTERNAL COORDINATES **
   Searching for a Minimum

   Optimization Cycle:   1

                       Coordinates (Angstroms)
     ATOM                X               Y               Z
      1  C         1.3472515847    0.8471269015   -0.5704831078
      2  C         0.2493269033   -1.4171693927   -0.2298456718
      3  C        -0.9303587591   -1.0642376942    0.3544671919
      4  C        -1.3751082017    0.2694510511    0.6690993065
      5  C        -0.7124542785    1.4634158877    0.4565457979
      6  N         0.4890174313    1.7744295363   -0.0849378111
      7  H         2.2578093568    1.3015884455   -0.9674658055
      8  H         0.4258924868   -2.4781684505   -0.3950965960
      9  H        -1.6167315406   -1.8670413326    0.6160883127
     10  H        -2.3535799602    0.3520229829    1.1361447548
     11  H        -1.2541165101    2.3528849344    0.7859345114
     12  C         1.3014963144   -0.5317091505   -0.6595939709
     13  H         2.1715551728   -1.0025937188   -1.1108569119
   Point Group: c1    Number of degrees of freedom:    33


   Energy is   -286.924345745


 Attempting to Generate Delocalized Internal Coordinates

 33 Hessian modes will be used to form the next step
  Hessian Eigenvalues:
     0.018558    0.019888    0.020884    0.021848    0.022012    0.022694
     0.023098    0.023783    0.024008    0.025344    0.159999    0.160000
     0.160000    0.160000    0.160000    0.160000    0.219999    0.219999
     0.220000    0.233945    0.345416    0.345518    0.350203    0.350286
     0.351184    0.351193    0.382641    0.389726    0.467123    0.484586
     0.506988    0.533873    0.538077

 Minimum Search - Taking Simple RFO Step
 Searching for Lamda that Minimizes Along All modes
 Value Taken    Lamda =  -0.00000104
 Step Taken.  Stepsize is  0.006501

                             Maximum     Tolerance    Cnvgd?
         Gradient           0.000126      0.000300     YES
         Displacement       0.003670      0.001200      NO
         Energy change     *********      0.000001      NO


 New Cartesian Coordinates Obtained by Inverse Iteration

 Displacement from previous Coordinates is:  0.007000
 ----------------------------------------------------------------
             Standard Nuclear Orientation (Angstroms)
    I     Atom           X                Y                Z
 ----------------------------------------------------------------
    1      C       1.3474869406     0.8471001124    -0.5697777411
    2      C       0.2490375546    -1.4171812593    -0.2303871444
    3      C      -0.9302069982    -1.0642963781     0.3547474483
    4      C      -1.3746982504     0.2693859506     0.6698884406
    5      C      -0.7127301464     1.4634708896     0.4556439758
    6      N       0.4884936252     1.7744687665    -0.0859559543
    7      H       2.2580764442     1.3017070838    -0.9663872920
    8      H       0.4252343762    -2.4780783497    -0.3966659290
    9      H      -1.6166538675    -1.8670772986     0.6162310157
   10      H      -2.3528024560     0.3518423940     1.1377209736
   11      H      -1.2544346136     2.3530580177     0.7845821709
   12      C       1.3014918557    -0.5316964602    -0.6593645415
   13      H       2.1717055355    -1.0027034685    -1.1102754222
 ----------------------------------------------------------------
 Nuclear Repulsion Energy =   260.7268116189 hartrees
 There are       25 alpha and       24 beta electrons
 Applying Cartesian multipole field
    Component          Value
    ---------          -----
     (2,0,0)        1.00000E-11
     (0,2,0)        2.00000E-11
     (0,0,2)       -3.00000E-10
 Nucleus-field energy     =    -0.0000000074 hartrees
 Requested basis set is 6-31G(d)
 There are 40 shells and 117 basis functions
 A cutoff of  1.0D-14 yielded    791 shell pairs
 There are      7063 function pairs
 Smallest overlap matrix eigenvalue = 1.33E-03
 Guess MOs from SCF MO coefficient file
 Reading MOs from coefficient file
 Mixing HOMO and LUMO in initial guess
 Adding  50% of the LUMO to the HOMO
 Reading MOs from coefficient file
 An unrestricted hybrid HF-DFT SCF calculation will be
 performed using Pulay DIIS extrapolation
 Exchange:     0.2000 Hartree-Fock + 0.0800 Slater + 0.7200 B88
 Correlation:  0.1900 VWN1RPA + 0.8100 LYP
 Using SG-1 standard quadrature grid
 SCF converges when DIIS error is below 1.0E-08
 Geometry optimization detected.  Setting ReadMinima to 0
 Setting SaveMinima to 0
 using 4 threads for integral computing
 -------------------------------------------------------
 OpenMP Integral computing Module                
 Release: version 1.0, May 2013, Q-Chem Inc. Pittsburgh 
 -------------------------------------------------------
 -------------------------------------------------------
 OpenMP BLAS3 based DFT computing Module                
 Release: version 1.0, May 2013, Q-Chem Inc. Pittsburgh 
 -------------------------------------------------------
 ---------------------------------------
  Cycle       Energy         DIIS Error
 ---------------------------------------
    1    -286.9145845188      1.13E-03
    2    -286.9159134048      2.08E-03
    3    -286.9227209039      3.75E-04
    4    -286.9231706903      3.02E-04
    5    -286.9236040909      2.02E-04
    6    -286.9240665274      7.96E-05
    7    -286.9241701269      4.06E-05
    8    -286.9242914499      2.11E-05
    9    -286.9243202986      1.31E-05
   10    -286.9243436559      3.39E-06
   11    -286.9243459813      2.04E-06
   12    -286.9243464090      1.15E-06
   13    -286.9243464650      4.46E-07
   14    -286.9243464845      1.93E-07
   15    -286.9243464885      7.81E-08
   16    -286.9243464888      3.85E-08
   17    -286.9243464889      1.63E-08
   18    -286.9243464889      2.97E-09 Convergence criterion met
 ---------------------------------------
 <S^2> = 0.7684
 SCF time:  CPU 45.84 s  wall 33.12 s
 SCF   energy in the final basis set = -286.92434649
 Total energy in the final basis set = -286.92434649
 
 --------------------------------------------------------------
 
                    Orbital Energies (a.u.)
 --------------------------------------------------------------
 
 Alpha MOs
 -- Occupied --
-14.322 -10.232 -10.232 -10.212 -10.211 -10.201 -10.201  -0.922
 -0.818  -0.784  -0.693  -0.667  -0.551  -0.537  -0.518  -0.449
 -0.439  -0.414  -0.394  -0.387  -0.349  -0.322  -0.299  -0.251
 -0.162
 -- Virtual --
 -0.072   0.077   0.097   0.101   0.117   0.142   0.181   0.184
  0.193   0.213   0.266   0.320   0.356   0.390   0.412   0.483
  0.496   0.521   0.547   0.576   0.584   0.587   0.591   0.610
  0.619   0.624   0.646   0.658   0.713   0.718   0.833   0.840
  0.847   0.854   0.868   0.872   0.885   0.922   0.965   0.975
  1.024   1.027   1.043   1.127   1.177   1.185   1.300   1.303
  1.326   1.401   1.429   1.480   1.482   1.546   1.574   1.586
  1.682   1.732   1.769   1.829   1.850   1.919   1.925   2.030
  2.046   2.048   2.100   2.141   2.141   2.191   2.247   2.391
  2.410   2.414   2.446   2.545   2.577   2.601   2.614   2.739
  2.749   2.808   3.052   3.249   3.250   4.018   4.046   4.102
  4.196   4.239   4.532   4.595
 
 Beta MOs
 -- Occupied --
-14.314 -10.233 -10.233 -10.210 -10.210 -10.196 -10.196  -0.911
 -0.809  -0.777  -0.681  -0.665  -0.546  -0.535  -0.514  -0.447
 -0.438  -0.411  -0.383  -0.373  -0.348  -0.295  -0.276  -0.241
 -- Virtual --
 -0.078  -0.070   0.078   0.118   0.124   0.125   0.142   0.182
  0.187   0.196   0.219   0.268   0.324   0.360   0.393   0.415
  0.486   0.505   0.525   0.551   0.587   0.588   0.592   0.596
  0.614   0.624   0.629   0.649   0.676   0.716   0.729   0.834
  0.843   0.846   0.869   0.875   0.880   0.887   0.925   0.967
  0.979   1.026   1.030   1.045   1.133   1.180   1.189   1.311
  1.315   1.333   1.411   1.429   1.489   1.492   1.560   1.582
  1.597   1.685   1.737   1.781   1.831   1.854   1.922   1.933
  2.036   2.058   2.061   2.110   2.141   2.147   2.203   2.259
  2.399   2.422   2.426   2.448   2.558   2.579   2.611   2.624
  2.742   2.761   2.810   3.054   3.252   3.254   4.030   4.053
  4.109   4.200   4.239   4.537   4.601
 --------------------------------------------------------------
 
          Ground-State Mulliken Net Atomic Charges

     Atom                 Charge (a.u.)    Spin (a.u.)
  --------------------------------------------------------
      1 C                     0.035400      -0.113223
      2 C                    -0.111254       0.092580
      3 C                    -0.111333       0.094872
      4 C                    -0.131221       0.345940
      5 C                     0.035318      -0.112040
      6 N                    -0.423205       0.387014
      7 H                     0.142650       0.003432
      8 H                     0.141957      -0.006581
      9 H                     0.141912      -0.006690
     10 H                     0.134350      -0.018284
     11 H                     0.142626       0.003375
     12 C                    -0.131569       0.347987
     13 H                     0.134369      -0.018381
  --------------------------------------------------------
  Sum of atomic charges =    -0.000000
  Sum of spin   charges =     1.000000

 -----------------------------------------------------------------
                    Cartesian Multipole Moments
 -----------------------------------------------------------------
    Charge (ESU x 10^10)
                -0.0000
    Dipole Moment (Debye)
         X      -0.5942      Y      -2.1607      Z       0.1046
       Tot       2.2433
    Quadrupole Moments (Debye-Ang)
        XX     -36.5030     XY      -1.7823     YY     -41.8190
        XZ      -3.3946     YZ       0.9520     ZZ     -41.6765
    Octopole Moments (Debye-Ang^2)
       XXX      -3.9882    XXY      -6.0618    XYY      -7.9357
       YYY     -36.9567    XXZ      -0.1398    XYZ      -0.4035
       YYZ       1.7041    XZZ      -1.4236    YZZ      -5.5018
       ZZZ       0.7888
    Hexadecapole Moments (Debye-Ang^3)
      XXXX    -322.2980   XXXY      -3.1150   XXYY    -118.3473
      XYYY     -23.1293   YYYY    -428.8920   XXXZ      53.9187
      XXYZ      -4.4122   XYYZ      16.1465   YYYZ      -4.1495
      XXZZ     -70.7602   XYZZ      -2.7779   YYZZ     -88.1399
      XZZZ      71.8965   YZZZ     -12.3860   ZZZZ    -116.0955
 -----------------------------------------------------------------
 Calculating analytic gradient of the SCF energy
 Gradient of SCF Energy
            1           2           3           4           5           6
    1  -0.0000234   0.0000110  -0.0000050  -0.0000018  -0.0000700   0.0000845
    2   0.0000141   0.0000196  -0.0000035   0.0000200  -0.0000379   0.0000172
    3   0.0000295  -0.0000032   0.0000104  -0.0000635  -0.0000026   0.0000163
            7           8           9          10          11          12
    1  -0.0000191   0.0000022   0.0000038  -0.0000118   0.0000294   0.0000038
    2   0.0000043  -0.0000055   0.0000016   0.0000088   0.0000017  -0.0000380
    3  -0.0000360   0.0000240   0.0000080  -0.0000214   0.0000189   0.0000212
           13
    1  -0.0000037
    2  -0.0000023
    3  -0.0000015
 Max gradient component =       8.453E-05
 RMS gradient           =       2.629E-05
 Gradient time:  CPU 7.62 s  wall 5.29 s
 Geometry Optimization Parameters
   NAtoms,    NIC,     NZ,  NCons,   NDum,   NFix, NCnnct, MaxDiis
       13      82       0       0       0       0       0       0

 Cartesian Hessian Update
 Hessian Updated using BFGS Update


** GEOMETRY OPTIMIZATION IN DELOCALIZED INTERNAL COORDINATES **
   Searching for a Minimum

   Optimization Cycle:   2

                       Coordinates (Angstroms)
     ATOM                X               Y               Z
      1  C         1.3474869406    0.8471001124   -0.5697777411
      2  C         0.2490375546   -1.4171812593   -0.2303871444
      3  C        -0.9302069982   -1.0642963781    0.3547474483
      4  C        -1.3746982504    0.2693859506    0.6698884406
      5  C        -0.7127301464    1.4634708896    0.4556439758
      6  N         0.4884936252    1.7744687665   -0.0859559543
      7  H         2.2580764442    1.3017070838   -0.9663872920
      8  H         0.4252343762   -2.4780783497   -0.3966659290
      9  H        -1.6166538675   -1.8670772986    0.6162310157
     10  H        -2.3528024560    0.3518423940    1.1377209736
     11  H        -1.2544346136    2.3530580177    0.7845821709
     12  C         1.3014918557   -0.5316964602   -0.6593645415
     13  H         2.1717055355   -1.0027034685   -1.1102754222
   Point Group: c1    Number of degrees of freedom:    33


   Energy is   -286.924346489

 Hessian Updated using BFGS Update

 30 Hessian modes will be used to form the next step
  Hessian Eigenvalues:
     0.007573    0.019675    0.020721    0.021086    0.021877    0.022293
     0.023077    0.023826    0.024266    0.034921    0.159654    0.159999
     0.166367    0.219610    0.219999    0.220018    0.236552    0.345427
     0.346695    0.350198    0.350301    0.351177    0.351460    0.383385
     0.389354    0.466836    0.484588    0.507777    0.532571    0.560183

 Minimum Search - Taking Simple RFO Step
 Searching for Lamda that Minimizes Along All modes
 Value Taken    Lamda =  -0.00000111
 Step Taken.  Stepsize is  0.011828

                             Maximum     Tolerance    Cnvgd?
         Gradient           0.000064      0.000300     YES
         Displacement       0.007633      0.001200      NO
         Energy change     -0.000001      0.000001     YES


                       Distance Matrix (Angstroms)
             C (  1)   C (  2)   C (  3)   C (  4)   C (  5)   N (  6)
   C (  2)  2.539438
   C (  3)  3.113852  1.362912
   C (  4)  3.046444  2.508291  1.440692
   C (  5)  2.382414  3.113486  2.539111  1.382006
   N (  6)  1.353501  3.203877  3.203985  2.511585  1.353879
   H (  7)  1.092309  3.459810  4.184318  4.115840  3.297580  2.032261
   H (  8)  3.455044  1.088208  2.097766  3.453383  4.190132  4.264352
   H (  9)  4.190406  2.097611  1.088136  2.150790  3.454767  4.264454
   H ( 10)  4.105237  3.430851  2.154594  1.087361  2.095420  3.405028
   H ( 11)  3.297301  4.183933  3.459508  2.090289  1.092250  2.032339
   C ( 12)  1.382469  1.440752  2.508499  3.093645  3.046478  2.511605
   H ( 13)  2.096007  2.154680  3.431027  4.167034  4.105373  3.405161
             H (  7)   H (  8)   H (  9)   H ( 10)   H ( 11)   C ( 12)
   H (  8)  4.239183
   H (  9)  5.249706  2.359786
   H ( 10)  5.156522  4.252092  2.395302
   H ( 11)  4.063123  5.249430  4.238996  2.309975
   C ( 12)  2.090618  2.150637  3.453398  4.167016  4.115769
   H ( 13)  2.310513  2.395022  4.252015  5.230627  5.156555  1.087401

 
 Final energy is   -286.924346488882     


 ******************************
 **  OPTIMIZATION CONVERGED  **
 ******************************

                       Coordinates (Angstroms)
     ATOM                X               Y               Z
      1  C         1.3474869406    0.8471001124   -0.5697777411
      2  C         0.2490375546   -1.4171812593   -0.2303871444
      3  C        -0.9302069982   -1.0642963781    0.3547474483
      4  C        -1.3746982504    0.2693859506    0.6698884406
      5  C        -0.7127301464    1.4634708896    0.4556439758
      6  N         0.4884936252    1.7744687665   -0.0859559543
      7  H         2.2580764442    1.3017070838   -0.9663872920
      8  H         0.4252343762   -2.4780783497   -0.3966659290
      9  H        -1.6166538675   -1.8670772986    0.6162310157
     10  H        -2.3528024560    0.3518423940    1.1377209736
     11  H        -1.2544346136    2.3530580177    0.7845821709
     12  C         1.3014918557   -0.5316964602   -0.6593645415
     13  H         2.1717055355   -1.0027034685   -1.1102754222

Z-matrix Print:
$molecule
0 2
N 
C  1 1.353501
H  2 1.092309 1 111.943843
C  1 1.353879 2 123.277543 3 179.774553 0
H  4 1.092250 1 111.926596 2 -179.910363 0
C  4 1.382006 1 133.272687 2 0.084086 0
H  6 1.087361 4 115.597118 1 -179.957184 0
C  2 1.382469 1 133.266429 3 179.998254 0
H  8 1.087401 2 115.610116 1 -179.928776 0
C  6 1.440692 4 128.181479 1 0.208674 0
H  10 1.088136 6 115.833795 4 179.768075 0
C  10 1.362912 6 126.909236 4 -0.216272 0
H  12 1.088208 10 117.265734 6 179.969486 0
$end

 
 --------------------------------------------------------------
 
                    Orbital Energies (a.u.)
 --------------------------------------------------------------
 
 Alpha MOs
 -- Occupied --
-14.322 -10.232 -10.232 -10.212 -10.211 -10.201 -10.201  -0.922
 -0.818  -0.784  -0.693  -0.667  -0.551  -0.537  -0.518  -0.449
 -0.439  -0.414  -0.394  -0.387  -0.349  -0.322  -0.299  -0.251
 -0.162
 -- Virtual --
 -0.072   0.077   0.097   0.101   0.117   0.142   0.181   0.184
  0.193   0.213   0.266   0.320   0.356   0.390   0.412   0.483
  0.496   0.521   0.547   0.576   0.584   0.587   0.591   0.610
  0.619   0.624   0.646   0.658   0.713   0.718   0.833   0.840
  0.847   0.854   0.868   0.872   0.885   0.922   0.965   0.975
  1.024   1.027   1.043   1.127   1.177   1.185   1.300   1.303
  1.326   1.401   1.429   1.480   1.482   1.546   1.574   1.586
  1.682   1.732   1.769   1.829   1.850   1.919   1.925   2.030
  2.046   2.048   2.100   2.141   2.141   2.191   2.247   2.391
  2.410   2.414   2.446   2.545   2.577   2.601   2.614   2.739
  2.749   2.808   3.052   3.249   3.250   4.018   4.046   4.102
  4.196   4.239   4.532   4.595
 
 Beta MOs
 -- Occupied --
-14.314 -10.233 -10.233 -10.210 -10.210 -10.196 -10.196  -0.911
 -0.809  -0.777  -0.681  -0.665  -0.546  -0.535  -0.514  -0.447
 -0.438  -0.411  -0.383  -0.373  -0.348  -0.295  -0.276  -0.241
 -- Virtual --
 -0.078  -0.070   0.078   0.118   0.124   0.125   0.142   0.182
  0.187   0.196   0.219   0.268   0.324   0.360   0.393   0.415
  0.486   0.505   0.525   0.551   0.587   0.588   0.592   0.596
  0.614   0.624   0.629   0.649   0.676   0.716   0.729   0.834
  0.843   0.846   0.869   0.875   0.880   0.887   0.925   0.967
  0.979   1.026   1.030   1.045   1.133   1.180   1.189   1.311
  1.315   1.333   1.411   1.429   1.489   1.492   1.560   1.582
  1.597   1.685   1.737   1.781   1.831   1.854   1.922   1.933
  2.036   2.058   2.061   2.110   2.141   2.147   2.203   2.259
  2.399   2.422   2.426   2.448   2.558   2.579   2.611   2.624
  2.742   2.761   2.810   3.054   3.252   3.254   4.030   4.053
  4.109   4.200   4.239   4.537   4.601
 --------------------------------------------------------------
 
          Ground-State Mulliken Net Atomic Charges

     Atom                 Charge (a.u.)    Spin (a.u.)
  --------------------------------------------------------
      1 C                     0.035400      -0.113223
      2 C                    -0.111254       0.092580
      3 C                    -0.111333       0.094872
      4 C                    -0.131221       0.345940
      5 C                     0.035318      -0.112040
      6 N                    -0.423205       0.387014
      7 H                     0.142650       0.003432
      8 H                     0.141957      -0.006581
      9 H                     0.141912      -0.006690
     10 H                     0.134350      -0.018284
     11 H                     0.142626       0.003375
     12 C                    -0.131569       0.347987
     13 H                     0.134369      -0.018381
  --------------------------------------------------------
  Sum of atomic charges =    -0.000000
  Sum of spin   charges =     1.000000

 -----------------------------------------------------------------
                    Cartesian Multipole Moments
 -----------------------------------------------------------------
    Charge (ESU x 10^10)
                -0.0000
    Dipole Moment (Debye)
         X      -0.5942      Y      -2.1607      Z       0.1046
       Tot       2.2433
    Quadrupole Moments (Debye-Ang)
        XX     -36.5030     XY      -1.7823     YY     -41.8190
        XZ      -3.3946     YZ       0.9520     ZZ     -41.6765
    Octopole Moments (Debye-Ang^2)
       XXX      -3.9882    XXY      -6.0618    XYY      -7.9357
       YYY     -36.9567    XXZ      -0.1398    XYZ      -0.4035
       YYZ       1.7041    XZZ      -1.4236    YZZ      -5.5018
       ZZZ       0.7888
    Hexadecapole Moments (Debye-Ang^3)
      XXXX    -322.2980   XXXY      -3.1150   XXYY    -118.3473
      XYYY     -23.1293   YYYY    -428.8920   XXXZ      53.9187
      XXYZ      -4.4122   XYYZ      16.1465   YYYZ      -4.1495
      XXZZ     -70.7602   XYZZ      -2.7779   YYZZ     -88.1399
      XZZZ      71.8965   YZZZ     -12.3860   ZZZZ    -116.0955
 -----------------------------------------------------------------
Archival summary:
1\1\c8-90\OPT\ProcedureUnspecified\6-31G*\166(2)\hpark21\TueMar105:39:072022TueMar105:39:072022\0\\#,OPT,ProcedureUnspecified,6-31G*,\\0,2\N\C,1,1.3535\H,2,1.09231,1,111.944\C,1,1.35388,2,123.278,3,179.775,0\H,4,1.09225,1,111.927,2,-179.91,0\C,4,1.38201,1,133.273,2,0.0840856,0\H,6,1.08736,4,115.597,1,-179.957,0\C,2,1.38247,1,133.266,3,179.998,0\H,8,1.0874,2,115.61,1,-179.929,0\C,6,1.44069,4,128.181,1,0.208674,0\H,10,1.08814,6,115.834,4,179.768,0\C,10,1.36291,6,126.909,4,-0.216272,0\H,12,1.08821,10,117.266,6,179.969,0\\\@

 Total job time:  142.62s(wall), 122.87s(cpu) 
 Tue Mar  1 05:39:07 2022

        *************************************************************
        *                                                           *
        *  Thank you very much for using Q-Chem.  Have a nice day.  *
        *                                                           *
        *************************************************************


