
Running Job 1 of 1 qcopt_prd.in
qchem qcopt_prd.in_25153.0 ./qcopt_prd.d/ 1
/home/leeping/opt/qchem/5.0.2-openmp/exe/qcprog.exe_s qcopt_prd.in_25153.0 ./qcopt_prd.d/
Check license passed

                  Welcome to Q-Chem
     A Quantum Leap Into The Future Of Chemistry


 Q-Chem 5.0, Q-Chem, Inc., Pleasanton, CA (2017)

 Yihan Shao,  Zhengting Gan,  E. Epifanovsky,  A. T. B. Gilbert,  M. Wormit,  
 J. Kussmann,  A. W. Lange,  A. Behn,  Jia Deng,  Xintian Feng,  D. Ghosh,  
 M. Goldey,  P. R. Horn,  L. D. Jacobson,  I. Kaliman,  T. Kus,  A. Landau,  
 Jie Liu,  E. I. Proynov,  R. M. Richard,  R. P. Steele,  E. J. Sundstrom,  
 H. L. Woodcock III,  P. M. Zimmerman,  D. Zuev,  B. Albrecht,  E. Alguire,  
 S. A. Baeppler,  D. Barton,  Z. Benda,  Y. A. Bernard,  E. J. Berquist,  
 K. B. Bravaya,  H. Burton,  D. Casanova,  Chun-Min Chang,  Yunqing Chen,  
 A. Chien,  K. D. Closser,  M. P. Coons,  S. Dasgupta,  A. L. Dempwolff,  
 M. Diedenhofen,  Hainam Do,  R. G. Edgar,  Po-Tung Fang,  S. Fatehi,  
 Qingguo Feng,  J. Fosso-Tande,  Qinghui Ge,  A. Ghysels,  G. Gidofalvi,  
 J. Gomes,  J. Gonthier,  A. Gunina,  M. W. D. Hanson-Heine,  
 P. H. P. Harbach,  A. W. Hauser,  J. E. Herr,  E. G. Hohenstein,  
 Z. C. Holden,  Kerwin Hui,  T.-C. Jagau,  Hyunjun Ji,  B. Kaduk,  
 K. Khistyaev,  Jaehoon Kim,  P. Klunzinger,  K. Koh,  D. Kosenkov,  
 L. Koulias,  T. Kowalczyk,  C. M. Krauter,  A. Kunitsa,  Ka Un Lao,  
 A. Laurent,  K. V. Lawler,  Joonho Lee,  D. Lefrancois,  S. Lehtola,  
 D. S. Levine,  Yi-Pei Li,  You-Sheng Lin,  Fenglai Liu,  E. Livshits,  
 A. Luenser,  P. Manohar,  E. Mansoor,  S. F. Manzer,  Shan-Ping Mao,  
 Yuezhi Mao,  N. Mardirossian,  A. V. Marenich,  T. Markovich,  
 L. A. Martinez-Martinez,  S. A. Maurer,  N. J. Mayhall,  S. C. McKenzie,  
 J.-M. Mewes,  A. F. Morrison,  J. W. Mullinax,  K. Nanda,  
 T. S. Nguyen-Beck,  R. Olivares-Amaya,  J. A. Parkhill,  T. M. Perrine,  
 F. Plasser,  S. Prager,  A. Prociuk,  E. Ramos,  D. R. Rehn,  F. Rob,  
 M. Schneider,  N. Sergueev,  S. M. Sharada,  S. Sharma,  D. W. Small,  
 T. Stauch,  T. Stein,  Yu-Chuan Su,  A. J. W. Thom,  A. Tkatchenko,  
 T. Tsuchimochi,  L. Vogt,  O. Vydrov,  M. A. Watson,  J. Wenzel,  
 M. de Wergifosse,  T. A. Wesolowski,  A. White,  J. Witte,  A. Yamada,  
 Jun Yang,  K. Yao,  S. Yeganeh,  S. R. Yost,  Zhi-Qiang You,  A. Zech,  
 Igor Ying Zhang,  Xing Zhang,  Yan Zhao,  Ying Zhu,  B. R. Brooks,  
 G. K. L. Chan,  C. J. Cramer,  M. S. Gordon,  W. J. Hehre,  A. Klamt,  
 M. W. Schmidt,  C. D. Sherrill,  D. G. Truhlar,  A. Aspuru-Guzik,  R. Baer,  
 A. T. Bell,  N. A. Besley,  Jeng-Da Chai,  R. A. DiStasio Jr.,  A. Dreuw,  
 B. D. Dunietz,  T. R. Furlani,  Chao-Ping Hsu,  Yousung Jung,  Jing Kong,  
 D. S. Lambrecht,  WanZhen Liang,  C. Ochsenfeld,  V. A. Rassolov,  
 L. V. Slipchenko,  J. E. Subotnik,  T. Van Voorhis,  J. M. Herbert,  
 A. I. Krylov,  P. M. W. Gill,  M. Head-Gordon

 Contributors to earlier versions of Q-Chem not listed above: 
 R. D. Adamson,  B. Austin,  J. Baker,  G. J. O. Beran,  K. Brandhorst,  
 S. T. Brown,  E. F. C. Byrd,  A. K. Chakraborty,  C.-L. Cheng,  
 Siu Hung Chien,  D. M. Chipman,  D. L. Crittenden,  H. Dachsel,  
 R. J. Doerksen,  A. D. Dutoi,  L. Fusti-Molnar,  W. A. Goddard III,  
 A. Golubeva-Zadorozhnaya,  S. R. Gwaltney,  G. Hawkins,  A. Heyden,  
 S. Hirata,  G. Kedziora,  F. J. Keil,  C. Kelley,  Jihan Kim,  R. A. King,  
 R. Z. Khaliullin,  P. P. Korambath,  W. Kurlancheek,  A. M. Lee,  M. S. Lee,  
 S. V. Levchenko,  Ching Yeh Lin,  D. Liotard,  R. C. Lochan,  I. Lotan,  
 P. E. Maslen,  N. Nair,  D. P. O'Neill,  D. Neuhauser,  E. Neuscamman,  
 C. M. Oana,  R. Olson,  B. Peters,  R. Peverati,  P. A. Pieniazek,  
 Y. M. Rhee,  J. Ritchie,  M. A. Rohrdanz,  E. Rosta,  N. J. Russ,  
 H. F. Schaefer III,  N. E. Schultz,  N. Shenvi,  A. C. Simmonett,  A. Sodt,  
 D. Stuck,  K. S. Thanthiriwatte,  V. Vanovschi,  Tao Wang,  A. Warshel,  
 C. F. Williams,  Q. Wu,  X. Xu,  W. Zhang

 Please cite Q-Chem as follows:
 Y. Shao et al., Mol. Phys. 113, 184-215 (2015)
 DOI: 10.1080/00268976.2014.952696

 Q-Chem 5.0.2 for Intel X86 EM64T Linux

 Parts of Q-Chem use Armadillo 5.200.1 (Boston Tea Smuggler).
 http://arma.sourceforge.net/

 Q-Chem begins on Tue Mar  1 05:39:21 2022  

Host: 
0

     Scratch files written to ./qcopt_prd.d//
 Dec517 15110_ 26548  26544 5633   
Processing $rem in /home/leeping/opt/qchem/5.0.2-openmp/config/preferences.
 MEM_STATIC 2000
 MEM_TOTAL  8000
 SYMMETRY   OFF
 SYM_IGNORE TRUE 

Checking the input file for inconsistencies... 	...done.

--------------------------------------------------------------
User input:
--------------------------------------------------------------
$molecule
0 2
C        1.5317255290    0.2376008110   -0.7058510518
C       -0.2661708968   -1.2894039169    0.0255619877
C       -1.4974192795   -1.1576099233    0.6166321554
C       -1.7179380266    0.2386753642    0.8308818696
C       -0.6150406583    0.9095371783    0.3636120392
N        0.2783286197   -0.0241192553   -0.1324488425
H        2.0513695093   -0.6709919295   -1.0219191142
H        0.2800769561   -2.1626205416   -0.3019132956
H       -2.1681105839   -1.9672948660    0.8706713154
H       -2.5907345715    0.6946207048    1.2788532861
H       -0.3732155450    1.9614147827    0.3314674983
C        2.0834008902    1.4231670794   -0.8718891831
H        3.0037280572    1.8070245123   -1.2836586644
$end

$rem
method                b3lyp
basis                 6-31g(d)
unrestricted          true
symmetry              off
sym_ignore            true
incdft                false
incfock               0
scf_convergence       8
thresh                14
jobtype               opt
scf_guess             core
scf_guess_mix         5
scf_algorithm         diis
max_scf_cycles        100
geom_opt_max_cycles   300
$end

--------------------------------------------------------------
 ----------------------------------------------------------------
             Standard Nuclear Orientation (Angstroms)
    I     Atom           X                Y                Z
 ----------------------------------------------------------------
    1      C       1.5317255290     0.2376008110    -0.7058510518
    2      C      -0.2661708968    -1.2894039169     0.0255619877
    3      C      -1.4974192795    -1.1576099233     0.6166321554
    4      C      -1.7179380266     0.2386753642     0.8308818696
    5      C      -0.6150406583     0.9095371783     0.3636120392
    6      N       0.2783286197    -0.0241192553    -0.1324488425
    7      H       2.0513695093    -0.6709919295    -1.0219191142
    8      H       0.2800769561    -2.1626205416    -0.3019132956
    9      H      -2.1681105839    -1.9672948660     0.8706713154
   10      H      -2.5907345715     0.6946207048     1.2788532861
   11      H      -0.3732155450     1.9614147827     0.3314674983
   12      C       2.0834008902     1.4231670794    -0.8718891831
   13      H       3.0037280572     1.8070245123    -1.2836586644
 ----------------------------------------------------------------
 Nuclear Repulsion Energy =   262.3912488686 hartrees
 There are       25 alpha and       24 beta electrons
 Requested basis set is 6-31G(d)
 There are 40 shells and 117 basis functions

 Total QAlloc Memory Limit   8000 MB
 Mega-Array Size      1956 MB
 MEM_STATIC part      2000 MB
 A cutoff of  1.0D-14 yielded    781 shell pairs
 There are      6992 function pairs
 
 -------------------------------------------------------
 OpenMP Integral Computing Module                       
 Release: version 1.0, May 2013, Q-Chem Inc. Pittsburgh 
 -------------------------------------------------------
 Integral Job Info:
 Integral job number is                      11
 Integral operator is                         1
 short-range coefficients                     0
 long-range coefficients              100000000
 Omega coefficients                           0
 if combine SR and LR in K                    0
 Integral screening is                        0
 Integral computing path is                   2
 max size of driver memory is            800000
 size of driver memory is                593474
 size of scratch memory is              2361544
 max col of scratch BK array               1296
 max len of scratch array in speh3          155
 max len of scratch index in speh4           18
 max int batch size is                      520
 min int batch size is                       52
 fixed nKL is                                52
 max L of basis functions is                  2
 order of int derivative is                   0
 number of shells is                         40
 number of basis is                         117
 number of cartesian basis is               117
 number of contracted shell pairs           781
 number of primitive shell pairs           3319
 maxK2 (contraction) of shell pair           36
 max number of K2 of shell pair               1
 max number of CS2 of shell pair             86
 max number of PS2 of shell pair            390
 mem total for path MDJ                  529068
 -------------------------------------------------------
 Smallest overlap matrix eigenvalue = 1.00E-03

 Scale SEOQF with 1.000000e-01/1.000000e-01/1.000000e+00

 Standard Electronic Orientation quadrupole field applied
 Nucleus-field energy     =    -0.0000000143 hartrees
 Guess MOs from core Hamiltonian diagonalization
 Mixing HOMO and LUMO in initial guess
 Adding  50% of the LUMO to the HOMO
 An unrestricted hybrid HF-DFT SCF calculation will be
 performed using Pulay DIIS extrapolation
 Exchange:     0.2000 Hartree-Fock + 0.0800 Slater + 0.7200 B88
 Correlation:  0.1900 VWN1RPA + 0.8100 LYP
 Using SG-1 standard quadrature grid
 SCF converges when DIIS error is below 1.0E-08
 using 4 threads for integral computing
 -------------------------------------------------------
 OpenMP Integral computing Module                
 Release: version 1.0, May 2013, Q-Chem Inc. Pittsburgh 
 -------------------------------------------------------
 -------------------------------------------------------
 OpenMP BLAS3 based DFT computing Module                
 Release: version 1.0, May 2013, Q-Chem Inc. Pittsburgh 
 -------------------------------------------------------
 ---------------------------------------
  Cycle       Energy         DIIS Error
 ---------------------------------------
    1    -222.2799908140      1.50E-01
    2    -184.6050101466      1.44E-01
    3    -236.9603429629      1.13E-01
    4    -237.4853128983      1.30E-01
    5    -281.4289978577      3.30E-02
    6    -275.8850156365      6.17E-02
    7    -285.1401493685      2.58E-02
    8    -286.3844015704      1.17E-02
    9    -286.5999719943      8.53E-03
   10    -286.8384811887      3.40E-03
   11    -286.8575149849      2.40E-03
   12    -286.8631919648      1.72E-03
   13    -286.8682804849      1.16E-03
   14    -286.8713305536      5.85E-04
   15    -286.8723046703      1.50E-04
   16    -286.8723785290      3.39E-05
   17    -286.8723845086      1.12E-05
   18    -286.8723861811      4.87E-06
   19    -286.8723868651      1.57E-06
   20    -286.8723874183      9.23E-07
   21    -286.8723877235      2.57E-07
   22    -286.8723878736      7.14E-08
   23    -286.8723878747      3.59E-08
   24    -286.8723878747      3.12E-09 Convergence criterion met
 ---------------------------------------
 <S^2> = 0.7625
 SCF time:  CPU 60.98 s  wall 99.56 s
 SCF   energy in the final basis set = -286.87238787
 Total energy in the final basis set = -286.87238787
 
 --------------------------------------------------------------
 
                    Orbital Energies (a.u.)
 --------------------------------------------------------------
 
 Alpha MOs
 -- Occupied --
-14.392 -10.242 -10.214 -10.205 -10.201 -10.171 -10.170  -0.988
 -0.817  -0.737  -0.720  -0.618  -0.574  -0.544  -0.513  -0.476
 -0.428  -0.423  -0.416  -0.386  -0.374  -0.303  -0.255  -0.224
 -0.210
 -- Virtual --
 -0.008   0.076   0.091   0.101   0.127   0.136   0.165   0.176
  0.179   0.223   0.237   0.282   0.339   0.362   0.391   0.456
  0.488   0.507   0.536   0.556   0.561   0.589   0.590   0.596
  0.606   0.619   0.622   0.650   0.673   0.704   0.800   0.810
  0.829   0.847   0.856   0.857   0.888   0.921   0.928   0.956
  0.982   1.034   1.083   1.128   1.201   1.217   1.274   1.346
  1.385   1.387   1.429   1.458   1.493   1.496   1.551   1.558
  1.676   1.742   1.818   1.878   1.929   1.982   2.003   2.005
  2.071   2.080   2.153   2.178   2.211   2.251   2.268   2.302
  2.337   2.338   2.533   2.549   2.592   2.648   2.682   2.719
  2.776   2.858   3.044   3.100   3.178   3.977   4.069   4.121
  4.171   4.273   4.472   4.474
 
 Beta MOs
 -- Occupied --
-14.391 -10.243 -10.205 -10.201 -10.198 -10.171 -10.170  -0.987
 -0.812  -0.725  -0.717  -0.605  -0.573  -0.543  -0.500  -0.466
 -0.424  -0.424  -0.414  -0.385  -0.374  -0.301  -0.216  -0.211
 -- Virtual --
 -0.087   0.001   0.078   0.091   0.109   0.128   0.143   0.165
  0.176   0.181   0.228   0.239   0.286   0.342   0.372   0.403
  0.461   0.498   0.507   0.539   0.560   0.567   0.589   0.594
  0.601   0.619   0.628   0.633   0.666   0.672   0.705   0.806
  0.811   0.831   0.849   0.857   0.859   0.901   0.927   0.934
  0.958   0.988   1.040   1.092   1.129   1.204   1.221   1.278
  1.346   1.387   1.388   1.441   1.461   1.495   1.497   1.551
  1.559   1.736   1.762   1.840   1.886   1.948   1.985   2.006
  2.013   2.076   2.086   2.165   2.180   2.211   2.250   2.273
  2.306   2.337   2.340   2.534   2.563   2.595   2.655   2.685
  2.719   2.787   2.861   3.044   3.102   3.185   3.977   4.102
  4.121   4.171   4.277   4.474   4.474
 --------------------------------------------------------------
 
          Ground-State Mulliken Net Atomic Charges

     Atom                 Charge (a.u.)    Spin (a.u.)
  --------------------------------------------------------
      1 C                     0.068212      -0.140541
      2 C                     0.027559      -0.002623
      3 C                    -0.193412      -0.005388
      4 C                    -0.186610      -0.008652
      5 C                     0.037271       0.008973
      6 N                    -0.401255       0.019514
      7 H                     0.163169       0.068848
      8 H                     0.144832       0.000099
      9 H                     0.128642       0.001020
     10 H                     0.128852       0.000825
     11 H                     0.154912       0.000533
     12 C                    -0.244478       1.062447
     13 H                     0.172308      -0.005056
  --------------------------------------------------------
  Sum of atomic charges =    -0.000000
  Sum of spin   charges =     1.000000

 -----------------------------------------------------------------
                    Cartesian Multipole Moments
 -----------------------------------------------------------------
    Charge (ESU x 10^10)
                 0.0000
    Dipole Moment (Debye)
         X       1.2471      Y      -0.3565      Z      -0.6254
       Tot       1.4399
    Quadrupole Moments (Debye-Ang)
        XX     -36.3866     XY      -0.1571     YY     -37.2184
        XZ      -4.0476     YZ       0.6591     ZZ     -42.9049
    Octopole Moments (Debye-Ang^2)
       XXX       9.8037    XXY       1.0557    XYY       1.7572
       YYY      -7.6862    XXZ      -3.4874    XYZ      -1.4340
       YYZ      -1.1717    XZZ       2.4203    YZZ      -1.3160
       ZZZ      -2.7812
    Hexadecapole Moments (Debye-Ang^3)
      XXXX    -481.9392   XXXY     -61.2868   XXYY    -119.9521
      XYYY     -76.0275   YYYY    -280.4509   XXXZ      71.3712
      XXYZ      -1.0793   XYYZ      25.6182   YYYZ      28.7045
      XXZZ    -101.9326   XYZZ     -26.1322   YYZZ     -74.5967
      XZZZ     111.8396   YZZZ      30.4755   ZZZZ    -151.8024
 -----------------------------------------------------------------
 Calculating analytic gradient of the SCF energy
 Gradient of SCF Energy
            1           2           3           4           5           6
    1   0.0000108  -0.0000631  -0.0000675  -0.0000794   0.0001565  -0.0000106
    2   0.0001431  -0.0000137  -0.0000187   0.0000032  -0.0000059  -0.0000216
    3  -0.0002004   0.0001435  -0.0000342  -0.0001007   0.0001546  -0.0001322
            7           8           9          10          11          12
    1   0.0000161   0.0000164  -0.0000119   0.0000027   0.0000134   0.0001110
    2  -0.0000238   0.0000373  -0.0000292  -0.0000208   0.0000175  -0.0001030
    3   0.0000801   0.0000199   0.0000342   0.0000007  -0.0000389   0.0001587
           13
    1  -0.0000944
    2   0.0000355
    3  -0.0000851
 Max gradient component =       2.004E-04
 RMS gradient           =       8.070E-05
 Gradient time:  CPU 7.43 s  wall 2.57 s
 Geometry Optimization Parameters
   NAtoms,    NIC,     NZ,  NCons,   NDum,   NFix, NCnnct, MaxDiis
       13      84       0       0       0       0       0       0


** GEOMETRY OPTIMIZATION IN DELOCALIZED INTERNAL COORDINATES **
   Searching for a Minimum

   Optimization Cycle:   1

                       Coordinates (Angstroms)
     ATOM                X               Y               Z
      1  C         1.5317255290    0.2376008110   -0.7058510518
      2  C        -0.2661708968   -1.2894039169    0.0255619877
      3  C        -1.4974192795   -1.1576099233    0.6166321554
      4  C        -1.7179380266    0.2386753642    0.8308818696
      5  C        -0.6150406583    0.9095371783    0.3636120392
      6  N         0.2783286197   -0.0241192553   -0.1324488425
      7  H         2.0513695093   -0.6709919295   -1.0219191142
      8  H         0.2800769561   -2.1626205416   -0.3019132956
      9  H        -2.1681105839   -1.9672948660    0.8706713154
     10  H        -2.5907345715    0.6946207048    1.2788532861
     11  H        -0.3732155450    1.9614147827    0.3314674983
     12  C         2.0834008902    1.4231670794   -0.8718891831
     13  H         3.0037280572    1.8070245123   -1.2836586644
   Point Group: c1    Number of degrees of freedom:    33


   Energy is   -286.872387875


 Attempting to Generate Delocalized Internal Coordinates

 33 Hessian modes will be used to form the next step
  Hessian Eigenvalues:
     0.015254    0.016927    0.019083    0.020435    0.021825    0.022209
     0.022381    0.022894    0.023903    0.033236    0.160000    0.160000
     0.160000    0.160000    0.160000    0.160000    0.220000    0.220000
     0.231814    0.250000    0.344255    0.357751    0.357965    0.358975
     0.360190    0.361345    0.384423    0.433494    0.451338    0.456966
     0.489390    0.503278    0.623981

 Minimum Search - Taking Simple RFO Step
 Searching for Lamda that Minimizes Along All modes
 Value Taken    Lamda =  -0.00000187
 Step Taken.  Stepsize is  0.008532

                             Maximum     Tolerance    Cnvgd?
         Gradient           0.000139      0.000300     YES
         Displacement       0.005068      0.001200      NO
         Energy change     *********      0.000001      NO


 New Cartesian Coordinates Obtained by Inverse Iteration

 Displacement from previous Coordinates is:  0.010033
 ----------------------------------------------------------------
             Standard Nuclear Orientation (Angstroms)
    I     Atom           X                Y                Z
 ----------------------------------------------------------------
    1      C       1.5318036026     0.2376704625    -0.7051446845
    2      C      -0.2663822870    -1.2891438191     0.0244490077
    3      C      -1.4968454115    -1.1576114542     0.6171748834
    4      C      -1.7176875461     0.2385673433     0.8317602775
    5      C      -0.6162002806     0.9098443364     0.3620420183
    6      N       0.2780124456    -0.0237771152    -0.1326696085
    7      H       2.0512690981    -0.6709624628    -1.0213829841
    8      H       0.2796264255    -2.1623311283    -0.3036296638
    9      H      -2.1671552187    -1.9674156180     0.8716009903
   10      H      -2.5902095825     0.6943491784     1.2804741772
   11      H      -0.3749725142     1.9618162106     0.3294628536
   12      C       2.0836501416     1.4231165387    -0.8718502313
   13      H       3.0050911270     1.8058775279    -1.2822870359
 ----------------------------------------------------------------
 Nuclear Repulsion Energy =   262.3947078774 hartrees
 There are       25 alpha and       24 beta electrons
 Applying Cartesian multipole field
    Component          Value
    ---------          -----
     (2,0,0)        1.00000E-11
     (0,2,0)        2.00000E-11
     (0,0,2)       -3.00000E-10
 Nucleus-field energy     =    -0.0000000143 hartrees
 Requested basis set is 6-31G(d)
 There are 40 shells and 117 basis functions
 A cutoff of  1.0D-14 yielded    781 shell pairs
 There are      6992 function pairs
 Smallest overlap matrix eigenvalue = 1.00E-03
 Guess MOs from SCF MO coefficient file
 Reading MOs from coefficient file
 Mixing HOMO and LUMO in initial guess
 Adding  50% of the LUMO to the HOMO
 Reading MOs from coefficient file
 An unrestricted hybrid HF-DFT SCF calculation will be
 performed using Pulay DIIS extrapolation
 Exchange:     0.2000 Hartree-Fock + 0.0800 Slater + 0.7200 B88
 Correlation:  0.1900 VWN1RPA + 0.8100 LYP
 Using SG-1 standard quadrature grid
 SCF converges when DIIS error is below 1.0E-08
 Geometry optimization detected.  Setting ReadMinima to 0
 Setting SaveMinima to 0
 using 4 threads for integral computing
 -------------------------------------------------------
 OpenMP Integral computing Module                
 Release: version 1.0, May 2013, Q-Chem Inc. Pittsburgh 
 -------------------------------------------------------
 -------------------------------------------------------
 OpenMP BLAS3 based DFT computing Module                
 Release: version 1.0, May 2013, Q-Chem Inc. Pittsburgh 
 -------------------------------------------------------
 ---------------------------------------
  Cycle       Energy         DIIS Error
 ---------------------------------------
    1    -286.8323851768      2.17E-03
    2    -286.8327607967      4.64E-03
    3    -286.8700064155      8.38E-04
    4    -286.8716252574      4.48E-04
    5    -286.8721706718      7.89E-05
    6    -286.8722770551      5.39E-05
    7    -286.8723259756      1.34E-05
    8    -286.8723533446      6.14E-06
    9    -286.8723673502      1.76E-06
   10    -286.8723773043      8.22E-07
   11    -286.8723837280      4.29E-07
   12    -286.8723873668      2.42E-07
   13    -286.8723882775      9.72E-08
   14    -286.8723883479      2.41E-08
   15    -286.8723883492      1.15E-08
   16    -286.8723883492      2.82E-09 Convergence criterion met
 ---------------------------------------
 <S^2> = 0.7625
 SCF time:  CPU 40.01 s  wall 38.63 s
 SCF   energy in the final basis set = -286.87238835
 Total energy in the final basis set = -286.87238835
 
 --------------------------------------------------------------
 
                    Orbital Energies (a.u.)
 --------------------------------------------------------------
 
 Alpha MOs
 -- Occupied --
-14.392 -10.242 -10.214 -10.205 -10.201 -10.171 -10.170  -0.988
 -0.817  -0.737  -0.720  -0.618  -0.574  -0.544  -0.513  -0.476
 -0.428  -0.423  -0.417  -0.386  -0.374  -0.303  -0.255  -0.224
 -0.210
 -- Virtual --
 -0.008   0.076   0.091   0.101   0.127   0.136   0.165   0.176
  0.179   0.223   0.237   0.282   0.339   0.362   0.391   0.456
  0.488   0.507   0.536   0.556   0.561   0.589   0.590   0.596
  0.606   0.619   0.622   0.650   0.673   0.704   0.800   0.810
  0.829   0.847   0.856   0.857   0.888   0.921   0.928   0.956
  0.982   1.034   1.083   1.128   1.201   1.217   1.274   1.346
  1.385   1.387   1.429   1.458   1.494   1.496   1.551   1.558
  1.676   1.742   1.818   1.878   1.929   1.982   2.003   2.006
  2.071   2.080   2.153   2.178   2.211   2.251   2.269   2.302
  2.337   2.338   2.533   2.549   2.592   2.648   2.682   2.719
  2.776   2.858   3.044   3.100   3.178   3.977   4.069   4.121
  4.171   4.273   4.472   4.474
 
 Beta MOs
 -- Occupied --
-14.391 -10.243 -10.205 -10.201 -10.198 -10.171 -10.170  -0.987
 -0.812  -0.725  -0.717  -0.605  -0.573  -0.543  -0.500  -0.466
 -0.424  -0.424  -0.414  -0.385  -0.374  -0.301  -0.216  -0.211
 -- Virtual --
 -0.087   0.001   0.077   0.091   0.109   0.128   0.143   0.165
  0.176   0.181   0.228   0.239   0.286   0.342   0.372   0.403
  0.461   0.498   0.507   0.539   0.560   0.567   0.589   0.594
  0.601   0.619   0.628   0.633   0.666   0.672   0.705   0.806
  0.811   0.831   0.849   0.857   0.859   0.901   0.927   0.934
  0.958   0.988   1.040   1.092   1.129   1.204   1.221   1.278
  1.346   1.387   1.388   1.441   1.461   1.495   1.497   1.551
  1.559   1.736   1.762   1.840   1.886   1.948   1.985   2.006
  2.013   2.076   2.086   2.165   2.180   2.211   2.250   2.273
  2.306   2.338   2.340   2.534   2.563   2.595   2.655   2.685
  2.719   2.787   2.861   3.044   3.102   3.185   3.977   4.102
  4.121   4.171   4.277   4.474   4.474
 --------------------------------------------------------------
 
          Ground-State Mulliken Net Atomic Charges

     Atom                 Charge (a.u.)    Spin (a.u.)
  --------------------------------------------------------
      1 C                     0.068186      -0.140507
      2 C                     0.027607      -0.002601
      3 C                    -0.193502      -0.005411
      4 C                    -0.186545      -0.008644
      5 C                     0.037284       0.008946
      6 N                    -0.401249       0.019482
      7 H                     0.163165       0.068835
      8 H                     0.144886       0.000096
      9 H                     0.128606       0.001021
     10 H                     0.128867       0.000824
     11 H                     0.154924       0.000532
     12 C                    -0.244497       1.062439
     13 H                     0.172268      -0.005014
  --------------------------------------------------------
  Sum of atomic charges =    -0.000000
  Sum of spin   charges =     1.000000

 -----------------------------------------------------------------
                    Cartesian Multipole Moments
 -----------------------------------------------------------------
    Charge (ESU x 10^10)
                -0.0000
    Dipole Moment (Debye)
         X       1.2465      Y      -0.3574      Z      -0.6240
       Tot       1.4391
    Quadrupole Moments (Debye-Ang)
        XX     -36.3870     XY      -0.1617     YY     -37.2210
        XZ      -4.0458     YZ       0.6641     ZZ     -42.9059
    Octopole Moments (Debye-Ang^2)
       XXX       9.8490    XXY       1.0572    XYY       1.7449
       YYY      -7.7060    XXZ      -3.4688    XYZ      -1.4221
       YYZ      -1.1651    XZZ       2.4010    YZZ      -1.3336
       ZZZ      -2.7528
    Hexadecapole Moments (Debye-Ang^3)
      XXXX    -481.9068   XXXY     -61.2582   XXYY    -119.9785
      XYYY     -76.0460   YYYY    -280.4448   XXXZ      71.3766
      XXYZ      -1.0513   XYYZ      25.6479   YYYZ      28.7343
      XXZZ    -101.9425   XYZZ     -26.1497   YYZZ     -74.6118
      XZZZ     111.8501   YZZZ      30.4946   ZZZZ    -151.8074
 -----------------------------------------------------------------
 Calculating analytic gradient of the SCF energy
 Gradient of SCF Energy
            1           2           3           4           5           6
    1   0.0000212  -0.0000665   0.0000115   0.0000368  -0.0000834   0.0000548
    2   0.0000394  -0.0000132   0.0000229   0.0000295   0.0000228  -0.0000585
    3  -0.0000365  -0.0001207  -0.0000227   0.0000545  -0.0001407   0.0002113
            7           8           9          10          11          12
    1   0.0000045   0.0000041   0.0000174   0.0000105  -0.0000213   0.0000657
    2  -0.0000166  -0.0000022   0.0000050   0.0000003   0.0000044  -0.0000578
    3   0.0000376  -0.0000115   0.0000251   0.0000283  -0.0000507   0.0001075
           13
    1  -0.0000554
    2   0.0000238
    3  -0.0000817
 Max gradient component =       2.113E-04
 RMS gradient           =       6.066E-05
 Gradient time:  CPU 7.24 s  wall 3.43 s
 Geometry Optimization Parameters
   NAtoms,    NIC,     NZ,  NCons,   NDum,   NFix, NCnnct, MaxDiis
       13      84       0       0       0       0       0       0

 Cartesian Hessian Update
 Hessian Updated using BFGS Update


** GEOMETRY OPTIMIZATION IN DELOCALIZED INTERNAL COORDINATES **
   Searching for a Minimum

   Optimization Cycle:   2

                       Coordinates (Angstroms)
     ATOM                X               Y               Z
      1  C         1.5318036026    0.2376704625   -0.7051446845
      2  C        -0.2663822870   -1.2891438191    0.0244490077
      3  C        -1.4968454115   -1.1576114542    0.6171748834
      4  C        -1.7176875461    0.2385673433    0.8317602775
      5  C        -0.6162002806    0.9098443364    0.3620420183
      6  N         0.2780124456   -0.0237771152   -0.1326696085
      7  H         2.0512690981   -0.6709624628   -1.0213829841
      8  H         0.2796264255   -2.1623311283   -0.3036296638
      9  H        -2.1671552187   -1.9674156180    0.8716009903
     10  H        -2.5902095825    0.6943491784    1.2804741772
     11  H        -0.3749725142    1.9618162106    0.3294628536
     12  C         2.0836501416    1.4231165387   -0.8718502313
     13  H         3.0050911270    1.8058775279   -1.2822870359
   Point Group: c1    Number of degrees of freedom:    33


   Energy is   -286.872388349

 Hessian Updated using BFGS Update

 30 Hessian modes will be used to form the next step
  Hessian Eigenvalues:
     0.015146    0.015973    0.019448    0.020752    0.021421    0.022210
     0.022309    0.023092    0.026811    0.048922    0.152997    0.160000
     0.160271    0.218009    0.221507    0.234332    0.245249    0.344254
     0.357751    0.357969    0.359078    0.360116    0.361013    0.384480
     0.433510    0.449940    0.456927    0.490039    0.504140    0.622786

 Minimum Search - Taking Simple RFO Step
 Searching for Lamda that Minimizes Along All modes
 Value Taken    Lamda =  -0.00000107
 Step Taken.  Stepsize is  0.005227

                             Maximum     Tolerance    Cnvgd?
         Gradient           0.000124      0.000300     YES
         Displacement       0.002840      0.001200      NO
         Energy change     -0.000000      0.000001     YES


                       Distance Matrix (Angstroms)
             C (  1)   C (  2)   C (  3)   C (  4)   C (  5)   N (  6)
   C (  2)  2.469199
   C (  3)  3.587207  1.372102
   C (  4)  3.594617  2.256533  1.429732
   C (  5)  2.490909  2.252086  2.261637  1.372779
   N (  6)  1.402881  1.386436  2.235613  2.231987  1.384198
   H (  7)  1.093373  2.616758  3.938377  4.297257  3.395321  2.086408
   H (  8)  2.736635  1.080841  2.239016  3.323054  3.268621  2.145377
   H (  9)  4.585938  2.188757  1.081587  2.251659  3.308132  3.281027
   H ( 10)  4.598068  3.303334  2.250593  1.081839  2.187846  3.277099
   H ( 11)  2.771080  3.267042  3.327492  2.241601  1.079767  2.140686
   C ( 12)  1.318184  3.698968  4.658036  4.330775  3.012496  2.429036
   H ( 13)  2.227766  4.689270  5.714688  5.406505  4.076818  3.479399
             H (  7)   H (  8)   H (  9)   H ( 10)   H ( 11)   C ( 12)
   H (  8)  2.424473
   H (  9)  4.802008  2.721378
   H ( 10)  5.357793  4.348099  2.726012
   H ( 11)  3.826612  4.223493  4.352550  2.723632
   C ( 12)  2.099661  4.053740  5.710050  5.196977  2.788938
   H ( 13)  2.666943  4.912495  6.754932  6.253849  3.747917  1.078897

 
 Final energy is   -286.872388349239     


 ******************************
 **  OPTIMIZATION CONVERGED  **
 ******************************

                       Coordinates (Angstroms)
     ATOM                X               Y               Z
      1  C         1.5318036026    0.2376704625   -0.7051446845
      2  C        -0.2663822870   -1.2891438191    0.0244490077
      3  C        -1.4968454115   -1.1576114542    0.6171748834
      4  C        -1.7176875461    0.2385673433    0.8317602775
      5  C        -0.6162002806    0.9098443364    0.3620420183
      6  N         0.2780124456   -0.0237771152   -0.1326696085
      7  H         2.0512690981   -0.6709624628   -1.0213829841
      8  H         0.2796264255   -2.1623311283   -0.3036296638
      9  H        -2.1671552187   -1.9674156180    0.8716009903
     10  H        -2.5902095825    0.6943491784    1.2804741772
     11  H        -0.3749725142    1.9618162106    0.3294628536
     12  C         2.0836501416    1.4231165387   -0.8718502313
     13  H         3.0050911270    1.8058775279   -1.2822870359

Z-matrix Print:
$molecule
0 2
N 
C  1 1.384198
H  2 1.079767 1 120.133388
C  2 1.372779 1 108.108678 3 -179.950543 0
H  4 1.081839 2 125.664515 1 179.946600 0
C  1 1.386436 2 108.748901 3 -179.914038 0
H  6 1.080841 1 120.302988 2 179.878476 0
C  6 1.372102 1 108.275620 2 -0.102410 0
H  8 1.081587 6 125.846460 1 -179.909278 0
C  1 1.402881 2 126.691368 3 -0.015619 0
H  10 1.093373 1 112.815418 2 -179.969671 0
C  10 1.318184 1 126.395557 2 0.130633 0
H  12 1.078897 10 136.444021 1 -179.659831 0
$end

 
 --------------------------------------------------------------
 
                    Orbital Energies (a.u.)
 --------------------------------------------------------------
 
 Alpha MOs
 -- Occupied --
-14.392 -10.242 -10.214 -10.205 -10.201 -10.171 -10.170  -0.988
 -0.817  -0.737  -0.720  -0.618  -0.574  -0.544  -0.513  -0.476
 -0.428  -0.423  -0.417  -0.386  -0.374  -0.303  -0.255  -0.224
 -0.210
 -- Virtual --
 -0.008   0.076   0.091   0.101   0.127   0.136   0.165   0.176
  0.179   0.223   0.237   0.282   0.339   0.362   0.391   0.456
  0.488   0.507   0.536   0.556   0.561   0.589   0.590   0.596
  0.606   0.619   0.622   0.650   0.673   0.704   0.800   0.810
  0.829   0.847   0.856   0.857   0.888   0.921   0.928   0.956
  0.982   1.034   1.083   1.128   1.201   1.217   1.274   1.346
  1.385   1.387   1.429   1.458   1.494   1.496   1.551   1.558
  1.676   1.742   1.818   1.878   1.929   1.982   2.003   2.006
  2.071   2.080   2.153   2.178   2.211   2.251   2.269   2.302
  2.337   2.338   2.533   2.549   2.592   2.648   2.682   2.719
  2.776   2.858   3.044   3.100   3.178   3.977   4.069   4.121
  4.171   4.273   4.472   4.474
 
 Beta MOs
 -- Occupied --
-14.391 -10.243 -10.205 -10.201 -10.198 -10.171 -10.170  -0.987
 -0.812  -0.725  -0.717  -0.605  -0.573  -0.543  -0.500  -0.466
 -0.424  -0.424  -0.414  -0.385  -0.374  -0.301  -0.216  -0.211
 -- Virtual --
 -0.087   0.001   0.077   0.091   0.109   0.128   0.143   0.165
  0.176   0.181   0.228   0.239   0.286   0.342   0.372   0.403
  0.461   0.498   0.507   0.539   0.560   0.567   0.589   0.594
  0.601   0.619   0.628   0.633   0.666   0.672   0.705   0.806
  0.811   0.831   0.849   0.857   0.859   0.901   0.927   0.934
  0.958   0.988   1.040   1.092   1.129   1.204   1.221   1.278
  1.346   1.387   1.388   1.441   1.461   1.495   1.497   1.551
  1.559   1.736   1.762   1.840   1.886   1.948   1.985   2.006
  2.013   2.076   2.086   2.165   2.180   2.211   2.250   2.273
  2.306   2.338   2.340   2.534   2.563   2.595   2.655   2.685
  2.719   2.787   2.861   3.044   3.102   3.185   3.977   4.102
  4.121   4.171   4.277   4.474   4.474
 --------------------------------------------------------------
 
          Ground-State Mulliken Net Atomic Charges

     Atom                 Charge (a.u.)    Spin (a.u.)
  --------------------------------------------------------
      1 C                     0.068186      -0.140507
      2 C                     0.027607      -0.002601
      3 C                    -0.193502      -0.005411
      4 C                    -0.186545      -0.008644
      5 C                     0.037284       0.008946
      6 N                    -0.401249       0.019482
      7 H                     0.163165       0.068835
      8 H                     0.144886       0.000096
      9 H                     0.128606       0.001021
     10 H                     0.128867       0.000824
     11 H                     0.154924       0.000532
     12 C                    -0.244497       1.062439
     13 H                     0.172268      -0.005014
  --------------------------------------------------------
  Sum of atomic charges =    -0.000000
  Sum of spin   charges =     1.000000

 -----------------------------------------------------------------
                    Cartesian Multipole Moments
 -----------------------------------------------------------------
    Charge (ESU x 10^10)
                -0.0000
    Dipole Moment (Debye)
         X       1.2465      Y      -0.3574      Z      -0.6240
       Tot       1.4391
    Quadrupole Moments (Debye-Ang)
        XX     -36.3870     XY      -0.1617     YY     -37.2210
        XZ      -4.0458     YZ       0.6641     ZZ     -42.9059
    Octopole Moments (Debye-Ang^2)
       XXX       9.8490    XXY       1.0572    XYY       1.7449
       YYY      -7.7060    XXZ      -3.4688    XYZ      -1.4221
       YYZ      -1.1651    XZZ       2.4010    YZZ      -1.3336
       ZZZ      -2.7528
    Hexadecapole Moments (Debye-Ang^3)
      XXXX    -481.9068   XXXY     -61.2582   XXYY    -119.9785
      XYYY     -76.0460   YYYY    -280.4448   XXXZ      71.3766
      XXYZ      -1.0513   XYYZ      25.6479   YYYZ      28.7343
      XXZZ    -101.9425   XYZZ     -26.1497   YYZZ     -74.6118
      XZZZ     111.8501   YZZZ      30.4946   ZZZZ    -151.8074
 -----------------------------------------------------------------
Archival summary:
1\1\c8-90\OPT\ProcedureUnspecified\6-31G*\166(2)\hpark21\TueMar105:42:012022TueMar105:42:012022\0\\#,OPT,ProcedureUnspecified,6-31G*,\\0,2\N\C,1,1.3842\H,2,1.07977,1,120.133\C,2,1.37278,1,108.109,3,-179.951,0\H,4,1.08184,2,125.665,1,179.947,0\C,1,1.38644,2,108.749,3,-179.914,0\H,6,1.08084,1,120.303,2,179.878,0\C,6,1.3721,1,108.276,2,-0.10241,0\H,8,1.08159,6,125.846,1,-179.909,0\C,1,1.40288,2,126.691,3,-0.0156192,0\H,10,1.09337,1,112.815,2,-179.97,0\C,10,1.31818,1,126.396,2,0.130633,0\H,12,1.0789,10,136.444,1,-179.66,0\\\@

 Total job time:  159.77s(wall), 119.05s(cpu) 
 Tue Mar  1 05:42:01 2022

        *************************************************************
        *                                                           *
        *  Thank you very much for using Q-Chem.  Have a nice day.  *
        *                                                           *
        *************************************************************


