
Running Job 1 of 1 qcts2.in
qchem qcts2.in_45333.0 ./qcts2.d/ 1
/home/leeping/opt/qchem/5.0.2-openmp/exe/qcprog.exe_s qcts2.in_45333.0 ./qcts2.d/
Check license passed

                  Welcome to Q-Chem
     A Quantum Leap Into The Future Of Chemistry


 Q-Chem 5.0, Q-Chem, Inc., Pleasanton, CA (2017)

 Yihan Shao,  Zhengting Gan,  E. Epifanovsky,  A. T. B. Gilbert,  M. Wormit,  
 J. Kussmann,  A. W. Lange,  A. Behn,  Jia Deng,  Xintian Feng,  D. Ghosh,  
 M. Goldey,  P. R. Horn,  L. D. Jacobson,  I. Kaliman,  T. Kus,  A. Landau,  
 Jie Liu,  E. I. Proynov,  R. M. Richard,  R. P. Steele,  E. J. Sundstrom,  
 H. L. Woodcock III,  P. M. Zimmerman,  D. Zuev,  B. Albrecht,  E. Alguire,  
 S. A. Baeppler,  D. Barton,  Z. Benda,  Y. A. Bernard,  E. J. Berquist,  
 K. B. Bravaya,  H. Burton,  D. Casanova,  Chun-Min Chang,  Yunqing Chen,  
 A. Chien,  K. D. Closser,  M. P. Coons,  S. Dasgupta,  A. L. Dempwolff,  
 M. Diedenhofen,  Hainam Do,  R. G. Edgar,  Po-Tung Fang,  S. Fatehi,  
 Qingguo Feng,  J. Fosso-Tande,  Qinghui Ge,  A. Ghysels,  G. Gidofalvi,  
 J. Gomes,  J. Gonthier,  A. Gunina,  M. W. D. Hanson-Heine,  
 P. H. P. Harbach,  A. W. Hauser,  J. E. Herr,  E. G. Hohenstein,  
 Z. C. Holden,  Kerwin Hui,  T.-C. Jagau,  Hyunjun Ji,  B. Kaduk,  
 K. Khistyaev,  Jaehoon Kim,  P. Klunzinger,  K. Koh,  D. Kosenkov,  
 L. Koulias,  T. Kowalczyk,  C. M. Krauter,  A. Kunitsa,  Ka Un Lao,  
 A. Laurent,  K. V. Lawler,  Joonho Lee,  D. Lefrancois,  S. Lehtola,  
 D. S. Levine,  Yi-Pei Li,  You-Sheng Lin,  Fenglai Liu,  E. Livshits,  
 A. Luenser,  P. Manohar,  E. Mansoor,  S. F. Manzer,  Shan-Ping Mao,  
 Yuezhi Mao,  N. Mardirossian,  A. V. Marenich,  T. Markovich,  
 L. A. Martinez-Martinez,  S. A. Maurer,  N. J. Mayhall,  S. C. McKenzie,  
 J.-M. Mewes,  A. F. Morrison,  J. W. Mullinax,  K. Nanda,  
 T. S. Nguyen-Beck,  R. Olivares-Amaya,  J. A. Parkhill,  T. M. Perrine,  
 F. Plasser,  S. Prager,  A. Prociuk,  E. Ramos,  D. R. Rehn,  F. Rob,  
 M. Schneider,  N. Sergueev,  S. M. Sharada,  S. Sharma,  D. W. Small,  
 T. Stauch,  T. Stein,  Yu-Chuan Su,  A. J. W. Thom,  A. Tkatchenko,  
 T. Tsuchimochi,  L. Vogt,  O. Vydrov,  M. A. Watson,  J. Wenzel,  
 M. de Wergifosse,  T. A. Wesolowski,  A. White,  J. Witte,  A. Yamada,  
 Jun Yang,  K. Yao,  S. Yeganeh,  S. R. Yost,  Zhi-Qiang You,  A. Zech,  
 Igor Ying Zhang,  Xing Zhang,  Yan Zhao,  Ying Zhu,  B. R. Brooks,  
 G. K. L. Chan,  C. J. Cramer,  M. S. Gordon,  W. J. Hehre,  A. Klamt,  
 M. W. Schmidt,  C. D. Sherrill,  D. G. Truhlar,  A. Aspuru-Guzik,  R. Baer,  
 A. T. Bell,  N. A. Besley,  Jeng-Da Chai,  R. A. DiStasio Jr.,  A. Dreuw,  
 B. D. Dunietz,  T. R. Furlani,  Chao-Ping Hsu,  Yousung Jung,  Jing Kong,  
 D. S. Lambrecht,  WanZhen Liang,  C. Ochsenfeld,  V. A. Rassolov,  
 L. V. Slipchenko,  J. E. Subotnik,  T. Van Voorhis,  J. M. Herbert,  
 A. I. Krylov,  P. M. W. Gill,  M. Head-Gordon

 Contributors to earlier versions of Q-Chem not listed above: 
 R. D. Adamson,  B. Austin,  J. Baker,  G. J. O. Beran,  K. Brandhorst,  
 S. T. Brown,  E. F. C. Byrd,  A. K. Chakraborty,  C.-L. Cheng,  
 Siu Hung Chien,  D. M. Chipman,  D. L. Crittenden,  H. Dachsel,  
 R. J. Doerksen,  A. D. Dutoi,  L. Fusti-Molnar,  W. A. Goddard III,  
 A. Golubeva-Zadorozhnaya,  S. R. Gwaltney,  G. Hawkins,  A. Heyden,  
 S. Hirata,  G. Kedziora,  F. J. Keil,  C. Kelley,  Jihan Kim,  R. A. King,  
 R. Z. Khaliullin,  P. P. Korambath,  W. Kurlancheek,  A. M. Lee,  M. S. Lee,  
 S. V. Levchenko,  Ching Yeh Lin,  D. Liotard,  R. C. Lochan,  I. Lotan,  
 P. E. Maslen,  N. Nair,  D. P. O'Neill,  D. Neuhauser,  E. Neuscamman,  
 C. M. Oana,  R. Olson,  B. Peters,  R. Peverati,  P. A. Pieniazek,  
 Y. M. Rhee,  J. Ritchie,  M. A. Rohrdanz,  E. Rosta,  N. J. Russ,  
 H. F. Schaefer III,  N. E. Schultz,  N. Shenvi,  A. C. Simmonett,  A. Sodt,  
 D. Stuck,  K. S. Thanthiriwatte,  V. Vanovschi,  Tao Wang,  A. Warshel,  
 C. F. Williams,  Q. Wu,  X. Xu,  W. Zhang

 Please cite Q-Chem as follows:
 Y. Shao et al., Mol. Phys. 113, 184-215 (2015)
 DOI: 10.1080/00268976.2014.952696

 Q-Chem 5.0.2 for Intel X86 EM64T Linux

 Parts of Q-Chem use Armadillo 5.200.1 (Boston Tea Smuggler).
 http://arma.sourceforge.net/

 Q-Chem begins on Tue Mar  1 09:15:33 2022  

Host: 
0

     Scratch files written to ./qcts2.d//
 Dec517 15110_ 26548  26544 5633   
Processing $rem in /home/leeping/opt/qchem/5.0.2-openmp/config/preferences.
 MEM_STATIC 2000
 MEM_TOTAL  8000
 SYMMETRY   OFF
 SYM_IGNORE TRUE 

Checking the input file for inconsistencies... 	...done.

--------------------------------------------------------------
User input:
--------------------------------------------------------------
$molecule
0 2
C        1.5262957913    0.6136739264   -0.4650169551
C        0.1600737586   -0.9909179551    0.1758882791
C       -1.2457316191   -1.0203329504    0.2327119329
C       -1.6897314264    0.2845435271    0.5748029694
C       -0.5837948086    1.0891698906    0.7415359908
N        0.5739651281    0.3313355522    0.5752743947
H        2.1861888103    1.4759968593   -0.3973042306
H        0.8036727333   -1.8256845664    0.4301929459
H       -1.8653877841   -1.8982966683    0.1053484984
H       -2.7180973974    0.5935213276    0.7178410443
H       -0.5181794239    2.1551783193    0.9130901090
C        1.3784261887   -0.3672362114   -1.3475018027
H        1.9454203091   -0.6796593679   -2.2214024380
$end

$rem
method                b3lyp
basis                 6-31+g(d,p)
unrestricted          true
symmetry              off
sym_ignore            true
incdft                false
incfock               0
scf_convergence       8
thresh                14
jobtype               sp
scf_guess             core
scf_guess_mix         5
scf_algorithm         diis
max_scf_cycles        100
$end

--------------------------------------------------------------
 ----------------------------------------------------------------
             Standard Nuclear Orientation (Angstroms)
    I     Atom           X                Y                Z
 ----------------------------------------------------------------
    1      C       1.5262957913     0.6136739264    -0.4650169551
    2      C       0.1600737586    -0.9909179551     0.1758882791
    3      C      -1.2457316191    -1.0203329504     0.2327119329
    4      C      -1.6897314264     0.2845435271     0.5748029694
    5      C      -0.5837948086     1.0891698906     0.7415359908
    6      N       0.5739651281     0.3313355522     0.5752743947
    7      H       2.1861888103     1.4759968593    -0.3973042306
    8      H       0.8036727333    -1.8256845664     0.4301929459
    9      H      -1.8653877841    -1.8982966683     0.1053484984
   10      H      -2.7180973974     0.5935213276     0.7178410443
   11      H      -0.5181794239     2.1551783193     0.9130901090
   12      C       1.3784261887    -0.3672362114    -1.3475018027
   13      H       1.9454203091    -0.6796593679    -2.2214024380
 ----------------------------------------------------------------
 Nuclear Repulsion Energy =   270.4606611416 hartrees
 There are       25 alpha and       24 beta electrons
 Requested basis set is 6-31+G(d,p)
 There are 53 shells and 163 basis functions

 Total QAlloc Memory Limit   8000 MB
 Mega-Array Size      1956 MB
 MEM_STATIC part      2000 MB

                       Distance Matrix (Angstroms)
             C (  1)   C (  2)   C (  3)   C (  4)   C (  5)   N (  6)
   C (  2)  2.202734
   C (  3)  3.292558  1.407261
   C (  4)  3.395936  2.282042  1.420164
   C (  5)  2.476762  2.280365  2.268714  1.377795
   N (  6)  1.438351  1.441933  2.292521  2.264180  1.393687
   H (  7)  1.087954  3.243356  4.290298  4.169809  3.019835  2.203503
   H (  8)  2.697046  1.084309  2.210803  3.269715  3.243205  2.174063
   H (  9)  4.258971  2.220542  1.082135  2.239650  3.312427  3.338043
   H ( 10)  4.406181  3.329869  2.237797  1.083265  2.191227  3.305562
   H ( 11)  2.907799  3.301729  3.328080  2.232991  1.081716  2.152511
   C ( 12)  1.327716  2.047945  3.132062  3.678813  3.214889  2.198233
   H ( 13)  2.221096  3.005220  4.040073  4.686446  4.278398  3.274813
             H (  7)   H (  8)   H (  9)   H ( 10)   H ( 11)   C ( 12)
   H (  8)  3.673854
   H (  9)  5.296583  2.689736
   H ( 10)  5.106303  4.282308  2.703963
   H ( 11)  3.080914  4.222292  4.347192  2.704909
   C ( 12)  2.225503  2.370150  3.870045  4.687238  3.882005
   H ( 13)  2.834106  3.106110  4.628294  5.657609  4.891899  1.087563

 
 A cutoff of  1.0D-14 yielded   1379 shell pairs
 There are     13419 function pairs
 
 -------------------------------------------------------
 OpenMP Integral Computing Module                       
 Release: version 1.0, May 2013, Q-Chem Inc. Pittsburgh 
 -------------------------------------------------------
 Integral Job Info:
 Integral job number is                      11
 Integral operator is                         1
 short-range coefficients                     0
 long-range coefficients              100000000
 Omega coefficients                           0
 if combine SR and LR in K                    0
 Integral screening is                        0
 Integral computing path is                   2
 max size of driver memory is            800000
 size of driver memory is                593474
 size of scratch memory is              2361544
 max col of scratch BK array               1296
 max len of scratch array in speh3          155
 max len of scratch index in speh4           18
 max int batch size is                      520
 min int batch size is                       52
 fixed nKL is                                52
 max L of basis functions is                  2
 order of int derivative is                   0
 number of shells is                         53
 number of basis is                         163
 number of cartesian basis is               163
 number of contracted shell pairs          1379
 number of primitive shell pairs           4648
 maxK2 (contraction) of shell pair           36
 max number of K2 of shell pair               1
 max number of CS2 of shell pair            130
 max number of PS2 of shell pair            678
 mem total for path MDJ                  534060
 -------------------------------------------------------
 Smallest overlap matrix eigenvalue = 1.61E-05

 Scale SEOQF with 1.000000e-01/1.000000e-01/1.000000e-01

 Standard Electronic Orientation quadrupole field applied
 Nucleus-field energy     =     0.0000000026 hartrees
 Guess MOs from core Hamiltonian diagonalization
 Mixing HOMO and LUMO in initial guess
 Adding  50% of the LUMO to the HOMO
 An unrestricted hybrid HF-DFT SCF calculation will be
 performed using Pulay DIIS extrapolation
 Exchange:     0.2000 Hartree-Fock + 0.0800 Slater + 0.7200 B88
 Correlation:  0.1900 VWN1RPA + 0.8100 LYP
 Using SG-1 standard quadrature grid
 SCF converges when DIIS error is below 1.0E-08
 using 4 threads for integral computing
 -------------------------------------------------------
 OpenMP Integral computing Module                
 Release: version 1.0, May 2013, Q-Chem Inc. Pittsburgh 
 -------------------------------------------------------
 -------------------------------------------------------
 OpenMP BLAS3 based DFT computing Module                
 Release: version 1.0, May 2013, Q-Chem Inc. Pittsburgh 
 -------------------------------------------------------
 ---------------------------------------
  Cycle       Energy         DIIS Error
 ---------------------------------------
    1    -227.7206150846      1.05E-01
    2    -211.1150639070      7.61E-02
    3    -247.9974918715      7.55E-02
    4    -267.8523705435      6.47E-02
    5    -284.4133432297      2.20E-02
    6    -285.8594083529      1.78E-02
    7    -286.7476829905      5.28E-03
    8    -286.7992814010      3.66E-03
    9    -286.8530106951      4.97E-04
   10    -286.8538931401      2.99E-04
   11    -286.8543329339      7.00E-05
   12    -286.8544219796      2.98E-05
   13    -286.8544673341      1.97E-05
   14    -286.8544942156      7.68E-06
   15    -286.8544992295      4.75E-06
   16    -286.8545003440      2.08E-06
   17    -286.8545005330      5.73E-07
   18    -286.8545006377      2.60E-07
   19    -286.8545006712      1.39E-07
   20    -286.8545006949      3.40E-08
   21    -286.8545006968      2.43E-08
   22    -286.8545006975      1.26E-08
   23    -286.8545006976      2.65E-09 Convergence criterion met
 ---------------------------------------
 <S^2> = 0.7799
 SCF time:  CPU 115.87 s  wall 70.73 s
 SCF   energy in the final basis set = -286.85450070
 Total energy in the final basis set = -286.85450070
 
 --------------------------------------------------------------
 
                    Orbital Energies (a.u.)
 --------------------------------------------------------------
 
 Alpha MOs
 -- Occupied --
-14.380 -10.238 -10.230 -10.230 -10.202 -10.199 -10.198  -0.996
 -0.820  -0.751  -0.710  -0.611  -0.582  -0.554  -0.516  -0.491
 -0.435  -0.420  -0.410  -0.399  -0.368  -0.305  -0.286  -0.248
 -0.172
 -- Virtual --
 -0.014   0.002   0.011   0.023   0.025   0.037   0.041   0.047
  0.054   0.064   0.074   0.082   0.091   0.097   0.113   0.115
  0.126   0.129   0.143   0.149   0.155   0.163   0.179   0.193
  0.198   0.203   0.207   0.218   0.223   0.230   0.239   0.253
  0.261   0.267   0.280   0.287   0.296   0.303   0.332   0.344
  0.391   0.421   0.459   0.507   0.641   0.654   0.673   0.699
  0.704   0.719   0.727   0.738   0.751   0.761   0.783   0.802
  0.848   0.854   0.859   0.892   0.905   0.918   0.941   0.957
  0.980   1.013   1.039   1.055   1.069   1.126   1.139   1.163
  1.184   1.213   1.234   1.309   1.352   1.373   1.392   1.446
  1.460   1.507   1.616   1.663   1.714   1.781   1.839   1.855
  1.879   1.908   1.921   1.932   1.966   1.989   2.026   2.059
  2.124   2.152   2.180   2.236   2.267   2.282   2.360   2.383
  2.390   2.436   2.459   2.474   2.493   2.517   2.541   2.569
  2.590   2.628   2.633   2.673   2.692   2.748   2.761   2.799
  2.883   2.901   2.959   3.047   3.207   3.252   3.261   3.338
  3.529   3.691   3.764   4.258   4.349   4.382   4.419   4.559
  4.671   4.773
 
 Beta MOs
 -- Occupied --
-14.378 -10.240 -10.231 -10.226 -10.200 -10.193 -10.192  -0.992
 -0.814  -0.743  -0.705  -0.601  -0.577  -0.549  -0.511  -0.484
 -0.427  -0.417  -0.408  -0.396  -0.361  -0.294  -0.259  -0.235
 -- Virtual --
 -0.082  -0.005   0.008   0.012   0.025   0.025   0.040   0.043
  0.047   0.057   0.066   0.075   0.085   0.094   0.099   0.114
  0.118   0.127   0.132   0.145   0.151   0.157   0.165   0.181
  0.193   0.198   0.204   0.210   0.220   0.224   0.232   0.242
  0.256   0.262   0.269   0.284   0.291   0.298   0.304   0.337
  0.347   0.393   0.425   0.464   0.516   0.646   0.658   0.679
  0.703   0.713   0.721   0.732   0.744   0.754   0.769   0.790
  0.807   0.852   0.858   0.861   0.895   0.906   0.922   0.943
  0.964   0.985   1.019   1.042   1.059   1.077   1.131   1.144
  1.166   1.188   1.216   1.238   1.315   1.358   1.379   1.397
  1.450   1.468   1.517   1.623   1.678   1.729   1.791   1.845
  1.862   1.885   1.917   1.924   1.938   1.969   1.995   2.031
  2.064   2.130   2.161   2.187   2.242   2.272   2.289   2.362
  2.386   2.394   2.440   2.466   2.481   2.500   2.518   2.551
  2.572   2.599   2.634   2.638   2.678   2.696   2.752   2.765
  2.804   2.885   2.905   2.961   3.055   3.208   3.254   3.267
  3.341   3.532   3.700   3.767   4.263   4.353   4.386   4.430
  4.564   4.678   4.777
 --------------------------------------------------------------
 
          Ground-State Mulliken Net Atomic Charges

     Atom                 Charge (a.u.)    Spin (a.u.)
  --------------------------------------------------------
      1 C                    -0.133795      -0.094512
      2 C                    -0.331154      -0.166518
      3 C                    -0.022934       0.377914
      4 C                    -0.108024      -0.121686
      5 C                    -0.041762       0.310018
      6 N                    -0.055611       0.044623
      7 H                     0.135674       0.016463
      8 H                     0.163109       0.022997
      9 H                     0.131420      -0.017224
     10 H                     0.131896       0.002314
     11 H                     0.138982      -0.013988
     12 C                    -0.136741       0.616096
     13 H                     0.128939       0.023502
  --------------------------------------------------------
  Sum of atomic charges =     0.000000
  Sum of spin   charges =     1.000000

 -----------------------------------------------------------------
                    Cartesian Multipole Moments
 -----------------------------------------------------------------
    Charge (ESU x 10^10)
                 0.0000
    Dipole Moment (Debye)
         X      -0.0773      Y       0.3905      Z       0.1418
       Tot       0.4226
    Quadrupole Moments (Debye-Ang)
        XX     -38.8080     XY       0.7216     YY     -37.1549
        XZ      -1.9616     YZ       1.0161     ZZ     -45.2958
    Octopole Moments (Debye-Ang^2)
       XXX      -9.8915    XXY       2.4830    XYY      -0.1434
       YYY       3.4167    XXZ      -3.4673    XYZ      -1.1839
       YYZ       1.3356    XZZ       3.4028    YZZ      -0.5108
       ZZZ     -11.2429
    Hexadecapole Moments (Debye-Ang^3)
      XXXX    -416.6982   XXXY      -4.6365   XXYY    -100.1325
      XYYY      -7.5411   YYYY    -211.8385   XXXZ      68.7895
      XXYZ      -4.0747   XYYZ      25.9962   YYYZ     -15.6480
      XXZZ    -103.1219   XYZZ     -10.0029   YYZZ     -73.6407
      XZZZ      74.3125   YZZZ     -16.3195   ZZZZ    -197.7081
 -----------------------------------------------------------------
Archival summary:
1\1\c8-90\SP\ProcedureUnspecified\6-31+G**\166(2)\hpark21\TueMar109:16:522022TueMar109:16:522022\0\\#,ProcedureUnspecified,6-31+G**,\\0,2\N\C,1,1.39369\H,2,1.08172,1,120.291\C,2,1.3778,1,109.561,3,176.686,0\H,4,1.08327,2,125.412,1,175.367,0\C,4,1.42016,2,108.348,1,-2.59138,0\H,6,1.08213,4,126.498,2,175.31,0\C,6,1.40726,4,107.628,2,-0.793821,0\H,8,1.08431,6,124.568,4,147.873,0\C,1,1.43835,2,121.976,3,-58.1967,0\H,10,1.08795,1,120.808,2,73.5947,0\C,10,1.32772,1,105.186,2,-107.765,0\H,12,1.08756,10,133.492,1,-170.076,0\\\@

 Total job time:  79.69s(wall), 117.70s(cpu) 
 Tue Mar  1 09:16:52 2022

        *************************************************************
        *                                                           *
        *  Thank you very much for using Q-Chem.  Have a nice day.  *
        *                                                           *
        *************************************************************


