
Running Job 1 of 1 qcts1.in
qchem qcts1.in_38793.0 ./qcts1.d/ 1
/home/leeping/opt/qchem/5.0.2-openmp/exe/qcprog.exe_s qcts1.in_38793.0 ./qcts1.d/
Check license passed

                  Welcome to Q-Chem
     A Quantum Leap Into The Future Of Chemistry


 Q-Chem 5.0, Q-Chem, Inc., Pleasanton, CA (2017)

 Yihan Shao,  Zhengting Gan,  E. Epifanovsky,  A. T. B. Gilbert,  M. Wormit,  
 J. Kussmann,  A. W. Lange,  A. Behn,  Jia Deng,  Xintian Feng,  D. Ghosh,  
 M. Goldey,  P. R. Horn,  L. D. Jacobson,  I. Kaliman,  T. Kus,  A. Landau,  
 Jie Liu,  E. I. Proynov,  R. M. Richard,  R. P. Steele,  E. J. Sundstrom,  
 H. L. Woodcock III,  P. M. Zimmerman,  D. Zuev,  B. Albrecht,  E. Alguire,  
 S. A. Baeppler,  D. Barton,  Z. Benda,  Y. A. Bernard,  E. J. Berquist,  
 K. B. Bravaya,  H. Burton,  D. Casanova,  Chun-Min Chang,  Yunqing Chen,  
 A. Chien,  K. D. Closser,  M. P. Coons,  S. Dasgupta,  A. L. Dempwolff,  
 M. Diedenhofen,  Hainam Do,  R. G. Edgar,  Po-Tung Fang,  S. Fatehi,  
 Qingguo Feng,  J. Fosso-Tande,  Qinghui Ge,  A. Ghysels,  G. Gidofalvi,  
 J. Gomes,  J. Gonthier,  A. Gunina,  M. W. D. Hanson-Heine,  
 P. H. P. Harbach,  A. W. Hauser,  J. E. Herr,  E. G. Hohenstein,  
 Z. C. Holden,  Kerwin Hui,  T.-C. Jagau,  Hyunjun Ji,  B. Kaduk,  
 K. Khistyaev,  Jaehoon Kim,  P. Klunzinger,  K. Koh,  D. Kosenkov,  
 L. Koulias,  T. Kowalczyk,  C. M. Krauter,  A. Kunitsa,  Ka Un Lao,  
 A. Laurent,  K. V. Lawler,  Joonho Lee,  D. Lefrancois,  S. Lehtola,  
 D. S. Levine,  Yi-Pei Li,  You-Sheng Lin,  Fenglai Liu,  E. Livshits,  
 A. Luenser,  P. Manohar,  E. Mansoor,  S. F. Manzer,  Shan-Ping Mao,  
 Yuezhi Mao,  N. Mardirossian,  A. V. Marenich,  T. Markovich,  
 L. A. Martinez-Martinez,  S. A. Maurer,  N. J. Mayhall,  S. C. McKenzie,  
 J.-M. Mewes,  A. F. Morrison,  J. W. Mullinax,  K. Nanda,  
 T. S. Nguyen-Beck,  R. Olivares-Amaya,  J. A. Parkhill,  T. M. Perrine,  
 F. Plasser,  S. Prager,  A. Prociuk,  E. Ramos,  D. R. Rehn,  F. Rob,  
 M. Schneider,  N. Sergueev,  S. M. Sharada,  S. Sharma,  D. W. Small,  
 T. Stauch,  T. Stein,  Yu-Chuan Su,  A. J. W. Thom,  A. Tkatchenko,  
 T. Tsuchimochi,  L. Vogt,  O. Vydrov,  M. A. Watson,  J. Wenzel,  
 M. de Wergifosse,  T. A. Wesolowski,  A. White,  J. Witte,  A. Yamada,  
 Jun Yang,  K. Yao,  S. Yeganeh,  S. R. Yost,  Zhi-Qiang You,  A. Zech,  
 Igor Ying Zhang,  Xing Zhang,  Yan Zhao,  Ying Zhu,  B. R. Brooks,  
 G. K. L. Chan,  C. J. Cramer,  M. S. Gordon,  W. J. Hehre,  A. Klamt,  
 M. W. Schmidt,  C. D. Sherrill,  D. G. Truhlar,  A. Aspuru-Guzik,  R. Baer,  
 A. T. Bell,  N. A. Besley,  Jeng-Da Chai,  R. A. DiStasio Jr.,  A. Dreuw,  
 B. D. Dunietz,  T. R. Furlani,  Chao-Ping Hsu,  Yousung Jung,  Jing Kong,  
 D. S. Lambrecht,  WanZhen Liang,  C. Ochsenfeld,  V. A. Rassolov,  
 L. V. Slipchenko,  J. E. Subotnik,  T. Van Voorhis,  J. M. Herbert,  
 A. I. Krylov,  P. M. W. Gill,  M. Head-Gordon

 Contributors to earlier versions of Q-Chem not listed above: 
 R. D. Adamson,  B. Austin,  J. Baker,  G. J. O. Beran,  K. Brandhorst,  
 S. T. Brown,  E. F. C. Byrd,  A. K. Chakraborty,  C.-L. Cheng,  
 Siu Hung Chien,  D. M. Chipman,  D. L. Crittenden,  H. Dachsel,  
 R. J. Doerksen,  A. D. Dutoi,  L. Fusti-Molnar,  W. A. Goddard III,  
 A. Golubeva-Zadorozhnaya,  S. R. Gwaltney,  G. Hawkins,  A. Heyden,  
 S. Hirata,  G. Kedziora,  F. J. Keil,  C. Kelley,  Jihan Kim,  R. A. King,  
 R. Z. Khaliullin,  P. P. Korambath,  W. Kurlancheek,  A. M. Lee,  M. S. Lee,  
 S. V. Levchenko,  Ching Yeh Lin,  D. Liotard,  R. C. Lochan,  I. Lotan,  
 P. E. Maslen,  N. Nair,  D. P. O'Neill,  D. Neuhauser,  E. Neuscamman,  
 C. M. Oana,  R. Olson,  B. Peters,  R. Peverati,  P. A. Pieniazek,  
 Y. M. Rhee,  J. Ritchie,  M. A. Rohrdanz,  E. Rosta,  N. J. Russ,  
 H. F. Schaefer III,  N. E. Schultz,  N. Shenvi,  A. C. Simmonett,  A. Sodt,  
 D. Stuck,  K. S. Thanthiriwatte,  V. Vanovschi,  Tao Wang,  A. Warshel,  
 C. F. Williams,  Q. Wu,  X. Xu,  W. Zhang

 Please cite Q-Chem as follows:
 Y. Shao et al., Mol. Phys. 113, 184-215 (2015)
 DOI: 10.1080/00268976.2014.952696

 Q-Chem 5.0.2 for Intel X86 EM64T Linux

 Parts of Q-Chem use Armadillo 5.200.1 (Boston Tea Smuggler).
 http://arma.sourceforge.net/

 Q-Chem begins on Tue Mar  1 08:08:57 2022  

Host: 
0

     Scratch files written to ./qcts1.d//
 Dec517 15110_ 26548  26544 5633   
Processing $rem in /home/leeping/opt/qchem/5.0.2-openmp/config/preferences.
 MEM_STATIC 2000
 MEM_TOTAL  8000
 SYMMETRY   OFF
 SYM_IGNORE TRUE 

Checking the input file for inconsistencies... 	...done.

--------------------------------------------------------------
User input:
--------------------------------------------------------------
$molecule
0 2
C        1.5650218825    0.6261808337   -0.3924519307
C       -0.0187843361   -1.0613368149   -0.4313665440
C       -1.1518050304   -0.9704753334    0.3427699214
C       -1.6920230221    0.2594126296    0.7560827256
C       -0.7424204607    1.3132333662    0.5597791731
N        0.3999731495    0.8210763411    0.2741985528
H        2.4795259045    1.0613257086    0.0063376464
H        0.5753383547   -1.9825358805   -0.5038920963
H       -1.6354254658   -1.9117319738    0.6601866457
H       -2.6520048374    0.4256135093    1.2417782840
H       -0.9689327807    2.3794864227    0.5867541948
C        1.5196081317   -0.4637797627   -1.1565894860
H        2.2750487701   -0.7351773627   -1.9081263487
$end

$rem
method                b3lyp
basis                 6-31g(d)
unrestricted          true
symmetry              off
sym_ignore            true
incdft                false
incfock               0
scf_convergence       8
thresh                14
jobtype               ts
scf_guess             read
scf_algorithm         diis
max_scf_cycles        100
geom_opt_max_cycles   500
geom_opt_dmax         100
geom_opt_tol_gradient 10
geom_opt_hessian      read
$end

--------------------------------------------------------------
 ----------------------------------------------------------------
             Standard Nuclear Orientation (Angstroms)
    I     Atom           X                Y                Z
 ----------------------------------------------------------------
    1      C       1.5650218825     0.6261808337    -0.3924519307
    2      C      -0.0187843361    -1.0613368149    -0.4313665440
    3      C      -1.1518050304    -0.9704753334     0.3427699214
    4      C      -1.6920230221     0.2594126296     0.7560827256
    5      C      -0.7424204607     1.3132333662     0.5597791731
    6      N       0.3999731495     0.8210763411     0.2741985528
    7      H       2.4795259045     1.0613257086     0.0063376464
    8      H       0.5753383547    -1.9825358805    -0.5038920963
    9      H      -1.6354254658    -1.9117319738     0.6601866457
   10      H      -2.6520048374     0.4256135093     1.2417782840
   11      H      -0.9689327807     2.3794864227     0.5867541948
   12      C       1.5196081317    -0.4637797627    -1.1565894860
   13      H       2.2750487701    -0.7351773627    -1.9081263487
 ----------------------------------------------------------------
 Nuclear Repulsion Energy =   265.4659260263 hartrees
 There are       25 alpha and       24 beta electrons
 Requested basis set is 6-31G(d)
 There are 40 shells and 117 basis functions

 Total QAlloc Memory Limit   8000 MB
 Mega-Array Size      1956 MB
 MEM_STATIC part      2000 MB
 A cutoff of  1.0D-14 yielded    796 shell pairs
 There are      7058 function pairs
 
 -------------------------------------------------------
 OpenMP Integral Computing Module                       
 Release: version 1.0, May 2013, Q-Chem Inc. Pittsburgh 
 -------------------------------------------------------
 Integral Job Info:
 Integral job number is                      11
 Integral operator is                         1
 short-range coefficients                     0
 long-range coefficients              100000000
 Omega coefficients                           0
 if combine SR and LR in K                    0
 Integral screening is                        0
 Integral computing path is                   2
 max size of driver memory is            800000
 size of driver memory is                593474
 size of scratch memory is              2361544
 max col of scratch BK array               1296
 max len of scratch array in speh3          155
 max len of scratch index in speh4           18
 max int batch size is                      520
 min int batch size is                       52
 fixed nKL is                                52
 max L of basis functions is                  2
 order of int derivative is                   0
 number of shells is                         40
 number of basis is                         117
 number of cartesian basis is               117
 number of contracted shell pairs           796
 number of primitive shell pairs           3414
 maxK2 (contraction) of shell pair           36
 max number of K2 of shell pair               1
 max number of CS2 of shell pair             88
 max number of PS2 of shell pair            378
 mem total for path MDJ                  534060
 -------------------------------------------------------
 Smallest overlap matrix eigenvalue = 1.42E-03

 Scale SEOQF with 1.000000e-01/1.000000e-01/1.000000e-01

 Standard Electronic Orientation quadrupole field applied
 Nucleus-field energy     =     0.0000000038 hartrees
 Guess MOs from SCF MO coefficient file
 Reading MOs from coefficient file
 Reading MOs from coefficient file
 An unrestricted hybrid HF-DFT SCF calculation will be
 performed using Pulay DIIS extrapolation
 Exchange:     0.2000 Hartree-Fock + 0.0800 Slater + 0.7200 B88
 Correlation:  0.1900 VWN1RPA + 0.8100 LYP
 Using SG-1 standard quadrature grid
 SCF converges when DIIS error is below 1.0E-08
Using Q-Chem read-in guess as SCF_GUESS READ specified.

 using 4 threads for integral computing
 -------------------------------------------------------
 OpenMP Integral computing Module                
 Release: version 1.0, May 2013, Q-Chem Inc. Pittsburgh 
 -------------------------------------------------------
 -------------------------------------------------------
 OpenMP BLAS3 based DFT computing Module                
 Release: version 1.0, May 2013, Q-Chem Inc. Pittsburgh 
 -------------------------------------------------------
 ---------------------------------------
  Cycle       Energy         DIIS Error
 ---------------------------------------
    1    -286.7197938383      3.41E-10
    2    -286.7197938383      4.35E-10 Convergence criterion met
 ---------------------------------------
 <S^2> = 0.7800
 SCF time:  CPU 5.20 s  wall 2.82 s
 SCF   energy in the final basis set = -286.71979384
 Total energy in the final basis set = -286.71979384
 
 --------------------------------------------------------------
 
                    Orbital Energies (a.u.)
 --------------------------------------------------------------
 
 Alpha MOs
 -- Occupied --
-14.324 -10.240 -10.225 -10.219 -10.195 -10.192 -10.190  -0.947
 -0.808  -0.771  -0.674  -0.637  -0.550  -0.541  -0.500  -0.478
 -0.437  -0.409  -0.404  -0.378  -0.305  -0.289  -0.276  -0.183
 -0.168
 -- Virtual --
 -0.039   0.027   0.055   0.087   0.120   0.148   0.152   0.160
  0.171   0.193   0.255   0.292   0.330   0.373   0.418   0.438
  0.493   0.512   0.536   0.563   0.572   0.590   0.595   0.615
  0.627   0.641   0.671   0.702   0.724   0.744   0.782   0.813
  0.828   0.837   0.852   0.869   0.887   0.906   0.930   0.978
  1.000   1.015   1.048   1.100   1.130   1.132   1.173   1.219
  1.316   1.385   1.406   1.482   1.508   1.603   1.629   1.650
  1.747   1.760   1.779   1.870   1.883   1.922   1.946   1.978
  2.019   2.060   2.099   2.139   2.195   2.216   2.274   2.319
  2.371   2.397   2.415   2.511   2.522   2.595   2.642   2.738
  2.777   2.867   2.979   3.150   3.263   4.027   4.052   4.103
  4.195   4.291   4.456   4.489
 
 Beta MOs
 -- Occupied --
-14.318 -10.242 -10.225 -10.214 -10.197 -10.190 -10.184  -0.936
 -0.802  -0.764  -0.662  -0.630  -0.544  -0.537  -0.497  -0.472
 -0.434  -0.405  -0.400  -0.367  -0.296  -0.268  -0.260  -0.175
 -- Virtual --
 -0.078  -0.029   0.041   0.061   0.109   0.123   0.149   0.155
  0.164   0.175   0.196   0.258   0.296   0.333   0.376   0.422
  0.443   0.499   0.517   0.539   0.567   0.577   0.598   0.604
  0.618   0.634   0.657   0.677   0.705   0.733   0.748   0.786
  0.816   0.829   0.842   0.854   0.870   0.894   0.911   0.931
  0.984   1.005   1.022   1.053   1.105   1.134   1.138   1.179
  1.226   1.325   1.393   1.419   1.487   1.519   1.614   1.639
  1.654   1.758   1.767   1.788   1.878   1.893   1.925   1.950
  1.990   2.026   2.067   2.109   2.144   2.204   2.223   2.288
  2.329   2.380   2.403   2.422   2.520   2.528   2.602   2.650
  2.742   2.782   2.871   2.984   3.154   3.269   4.031   4.061
  4.111   4.199   4.294   4.462   4.495
 --------------------------------------------------------------
 
          Ground-State Mulliken Net Atomic Charges

     Atom                 Charge (a.u.)    Spin (a.u.)
  --------------------------------------------------------
      1 C                     0.087704      -0.005028
      2 C                    -0.096414       0.392166
      3 C                    -0.114103      -0.145877
      4 C                    -0.170280       0.486124
      5 C                     0.084419      -0.138423
      6 N                    -0.374795       0.299189
      7 H                     0.140907       0.000059
      8 H                     0.142207      -0.013443
      9 H                     0.141572       0.004525
     10 H                     0.136978      -0.024664
     11 H                     0.135625       0.009749
     12 C                    -0.267112       0.134839
     13 H                     0.153292       0.000784
  --------------------------------------------------------
  Sum of atomic charges =     0.000000
  Sum of spin   charges =     1.000000

 -----------------------------------------------------------------
                    Cartesian Multipole Moments
 -----------------------------------------------------------------
    Charge (ESU x 10^10)
                -0.0000
    Dipole Moment (Debye)
         X       0.0718      Y       0.5092      Z       0.3313
       Tot       0.6117
    Quadrupole Moments (Debye-Ang)
        XX     -36.3663     XY      -0.5498     YY     -38.2236
        XZ      -3.0567     YZ       1.0814     ZZ     -41.7322
    Octopole Moments (Debye-Ang^2)
       XXX       4.9045    XXY      -0.5609    XYY      -2.5665
       YYY      -2.7240    XXZ       1.6393    XYZ       2.4728
       YYZ       2.6480    XZZ       2.4329    YZZ      -2.9820
       ZZZ      -0.1841
    Hexadecapole Moments (Debye-Ang^3)
      XXXX    -406.2970   XXXY      -1.2427   XXYY    -111.0908
      XYYY      -6.5309   YYYY    -254.7349   XXXZ      68.5239
      XXYZ      -4.7558   XYYZ      25.2600   YYYZ     -30.0484
      XXZZ     -87.9996   XYZZ      -6.6498   YYZZ     -70.9554
      XZZZ      83.1990   YZZZ     -29.0010   ZZZZ    -157.8122
 -----------------------------------------------------------------
 Calculating analytic gradient of the SCF energy
 Gradient of SCF Energy
            1           2           3           4           5           6
    1  -0.0192099  -0.0674833   0.0198732   0.0071621  -0.0016313  -0.0270516
    2  -0.0181772   0.0612268   0.0132259  -0.0147811   0.0075314  -0.0357594
    3  -0.0279929   0.0355336   0.0059176  -0.0049816  -0.0006333  -0.0018785
            7           8           9          10          11          12
    1  -0.0024302   0.0399496  -0.0043415  -0.0012235   0.0039414   0.0373925
    2  -0.0144295   0.0236611  -0.0070050   0.0047680  -0.0047145  -0.0247824
    3   0.0101603  -0.0160946   0.0053690   0.0035843  -0.0027216  -0.0046071
           13
    1   0.0150524
    2   0.0092358
    3  -0.0016553
 Max gradient component =       6.748E-02
 RMS gradient           =       2.223E-02
 Gradient time:  CPU 7.33 s  wall 5.05 s
 Geometry Optimization Parameters
   NAtoms,    NIC,     NZ,  NCons,   NDum,   NFix, NCnnct, MaxDiis
       13      82       0       0       0       0       0       0

 Cartesian Hessian read from HESS file


** GEOMETRY OPTIMIZATION IN DELOCALIZED INTERNAL COORDINATES **
   Searching for a Transition State

   Optimization Cycle:   1

                       Coordinates (Angstroms)
     ATOM                X               Y               Z
      1  C         1.5650218825    0.6261808337   -0.3924519307
      2  C        -0.0187843361   -1.0613368149   -0.4313665440
      3  C        -1.1518050304   -0.9704753334    0.3427699214
      4  C        -1.6920230221    0.2594126296    0.7560827256
      5  C        -0.7424204607    1.3132333662    0.5597791731
      6  N         0.3999731495    0.8210763411    0.2741985528
      7  H         2.4795259045    1.0613257086    0.0063376464
      8  H         0.5753383547   -1.9825358805   -0.5038920963
      9  H        -1.6354254658   -1.9117319738    0.6601866457
     10  H        -2.6520048374    0.4256135093    1.2417782840
     11  H        -0.9689327807    2.3794864227    0.5867541948
     12  C         1.5196081317   -0.4637797627   -1.1565894860
     13  H         2.2750487701   -0.7351773627   -1.9081263487
   Point Group: c1    Number of degrees of freedom:    33


   Energy is   -286.719793838


 Attempting to Generate Delocalized Internal Coordinates

 Transforming Cartesian Hessian to Internal Coordinates
 Hessian Transformation does not Include Derivative of B-matrix

 33 Hessian modes will be used to form the next step
  Hessian Eigenvalues:
    -0.216231   -0.021137   -0.008251    0.002085    0.006411    0.010890
     0.012543    0.019054    0.021821    0.025221    0.036601    0.056323
     0.074718    0.080726    0.106113    0.109964    0.117943    0.125790
     0.179906    0.219299    0.260778    0.281126    0.320498    0.323215
     0.339231    0.341148    0.359181    0.361350    0.379182    0.414800
     0.492258    0.616690    0.668180
**WARNING** Hessian does not have the Desired Local Structure

 Transition State Search - Taking P-RFO Step
 Searching for Lamda that Maximizes Along the Lowest mode
 Value Taken    Lamda =   0.03304332
 Searching for Lamda that Minimizes Along All other modes
 Value Taken    Lamda =  -0.06513617
 Calculated Step too Large.  Step scaled by  0.111595
 Step Taken.  Stepsize is  0.100000

                             Maximum     Tolerance    Cnvgd?
         Gradient           0.099730      0.000010      NO
         Displacement       0.050756      0.001200      NO
         Energy change     *********      0.000001      NO


 New Cartesian Coordinates Obtained by Inverse Iteration

 Displacement from previous Coordinates is:  0.135644
 ----------------------------------------------------------------
             Standard Nuclear Orientation (Angstroms)
    I     Atom           X                Y                Z
 ----------------------------------------------------------------
    1      C       1.5728936987     0.6380563558    -0.3965502689
    2      C      -0.0169838338    -1.0598655872    -0.4263425189
    3      C      -1.1583365394    -0.9753308376     0.3401863377
    4      C      -1.6957990042     0.2587297396     0.7491319602
    5      C      -0.7347069115     1.3024113717     0.5675374198
    6      N       0.4116969815     0.7999641750     0.2986800845
    7      H       2.4854582657     1.0911658752    -0.0159917181
    8      H       0.5689695007    -1.9870454066    -0.4801558251
    9      H      -1.6437539700    -1.9158879320     0.6511599346
   10      H      -2.6601198028     0.4308682244     1.2224785294
   11      H      -0.9542402714     2.3705019379     0.5919002124
   12      C       1.5180859567    -0.4547725544    -1.1541576526
   13      H       2.2599561895    -0.7375036787    -1.9124157569
 ----------------------------------------------------------------
 Nuclear Repulsion Energy =   265.3879835644 hartrees
 There are       25 alpha and       24 beta electrons
 Applying Cartesian multipole field
    Component          Value
    ---------          -----
     (2,0,0)        1.00000E-11
     (0,2,0)        2.00000E-11
     (0,0,2)       -3.00000E-11
 Nucleus-field energy     =     0.0000000037 hartrees
 Requested basis set is 6-31G(d)
 There are 40 shells and 117 basis functions
 A cutoff of  1.0D-14 yielded    796 shell pairs
 There are      7058 function pairs
 Smallest overlap matrix eigenvalue = 1.42E-03
 Guess MOs from SCF MO coefficient file
 Reading MOs from coefficient file
 Reading MOs from coefficient file
 An unrestricted hybrid HF-DFT SCF calculation will be
 performed using Pulay DIIS extrapolation
 Exchange:     0.2000 Hartree-Fock + 0.0800 Slater + 0.7200 B88
 Correlation:  0.1900 VWN1RPA + 0.8100 LYP
 Using SG-1 standard quadrature grid
 SCF converges when DIIS error is below 1.0E-08
 Geometry optimization detected.  Setting ReadMinima to 0
 Setting SaveMinima to 0
Using Q-Chem read-in guess as SCF_GUESS READ specified.

 using 4 threads for integral computing
 -------------------------------------------------------
 OpenMP Integral computing Module                
 Release: version 1.0, May 2013, Q-Chem Inc. Pittsburgh 
 -------------------------------------------------------
 -------------------------------------------------------
 OpenMP BLAS3 based DFT computing Module                
 Release: version 1.0, May 2013, Q-Chem Inc. Pittsburgh 
 -------------------------------------------------------
 ---------------------------------------
  Cycle       Energy         DIIS Error
 ---------------------------------------
    1    -286.7187030196      1.10E-03
    2    -286.7231753645      2.51E-04
    3    -286.7227143714      5.68E-04
    4    -286.7233593770      4.80E-05
    5    -286.7233722380      2.89E-05
    6    -286.7233801975      1.35E-05
    7    -286.7233872736      1.26E-05
    8    -286.7233912753      5.06E-06
    9    -286.7233929132      3.15E-06
   10    -286.7233932556      1.13E-06
   11    -286.7233933099      5.84E-07
   12    -286.7233933328      1.91E-07
   13    -286.7233933472      1.08E-07
   14    -286.7233933527      7.73E-08
   15    -286.7233933545      3.35E-08
   16    -286.7233933553      2.09E-08
   17    -286.7233933555      1.24E-08
   18    -286.7233933555      9.53E-09 Convergence criterion met
 ---------------------------------------
 <S^2> = 0.7792
 SCF time:  CPU 46.16 s  wall 45.06 s
 SCF   energy in the final basis set = -286.72339336
 Total energy in the final basis set = -286.72339336
 
 --------------------------------------------------------------
 
                    Orbital Energies (a.u.)
 --------------------------------------------------------------
 
 Alpha MOs
 -- Occupied --
-14.326 -10.240 -10.224 -10.220 -10.195 -10.193 -10.189  -0.947
 -0.807  -0.770  -0.673  -0.634  -0.549  -0.542  -0.500  -0.478
 -0.435  -0.408  -0.404  -0.377  -0.304  -0.289  -0.279  -0.185
 -0.167
 -- Virtual --
 -0.039   0.028   0.056   0.086   0.120   0.148   0.151   0.161
  0.171   0.193   0.253   0.292   0.328   0.372   0.418   0.440
  0.495   0.512   0.537   0.561   0.573   0.590   0.596   0.614
  0.629   0.641   0.669   0.700   0.725   0.744   0.780   0.811
  0.828   0.838   0.852   0.867   0.885   0.904   0.931   0.977
  0.998   1.012   1.045   1.102   1.129   1.134   1.170   1.214
  1.311   1.384   1.407   1.482   1.511   1.596   1.628   1.654
  1.750   1.759   1.782   1.874   1.887   1.916   1.950   1.984
  2.018   2.060   2.103   2.138   2.200   2.216   2.278   2.323
  2.373   2.391   2.419   2.505   2.525   2.594   2.646   2.737
  2.772   2.867   2.968   3.141   3.240   4.026   4.054   4.101
  4.190   4.284   4.448   4.487
 
 Beta MOs
 -- Occupied --
-14.319 -10.242 -10.224 -10.215 -10.197 -10.190 -10.183  -0.935
 -0.802  -0.763  -0.661  -0.628  -0.543  -0.538  -0.496  -0.472
 -0.432  -0.404  -0.400  -0.367  -0.296  -0.268  -0.263  -0.176
 -- Virtual --
 -0.077  -0.030   0.042   0.060   0.108   0.123   0.149   0.154
  0.164   0.175   0.196   0.256   0.296   0.331   0.375   0.423
  0.444   0.502   0.516   0.541   0.566   0.578   0.598   0.604
  0.617   0.635   0.656   0.675   0.703   0.734   0.748   0.784
  0.814   0.830   0.842   0.854   0.869   0.893   0.908   0.931
  0.983   1.003   1.020   1.051   1.106   1.133   1.140   1.176
  1.221   1.320   1.391   1.419   1.486   1.522   1.608   1.639
  1.659   1.760   1.767   1.791   1.882   1.897   1.920   1.954
  1.995   2.026   2.067   2.113   2.143   2.208   2.224   2.291
  2.331   2.382   2.398   2.424   2.515   2.531   2.600   2.653
  2.741   2.777   2.870   2.974   3.145   3.247   4.032   4.062
  4.109   4.194   4.287   4.454   4.493
 --------------------------------------------------------------
 
          Ground-State Mulliken Net Atomic Charges

     Atom                 Charge (a.u.)    Spin (a.u.)
  --------------------------------------------------------
      1 C                     0.085005      -0.001831
      2 C                    -0.097621       0.378497
      3 C                    -0.111991      -0.129594
      4 C                    -0.171429       0.462026
      5 C                     0.084714      -0.136304
      6 N                    -0.379567       0.320344
      7 H                     0.142514       0.000120
      8 H                     0.141466      -0.010367
      9 H                     0.141650       0.003408
     10 H                     0.136439      -0.023480
     11 H                     0.136759       0.012201
     12 C                    -0.260381       0.121003
     13 H                     0.152442       0.003979
  --------------------------------------------------------
  Sum of atomic charges =     0.000000
  Sum of spin   charges =     1.000000

 -----------------------------------------------------------------
                    Cartesian Multipole Moments
 -----------------------------------------------------------------
    Charge (ESU x 10^10)
                 0.0000
    Dipole Moment (Debye)
         X       0.0829      Y       0.5189      Z       0.2717
       Tot       0.5916
    Quadrupole Moments (Debye-Ang)
        XX     -36.4186     XY      -0.4297     YY     -37.9764
        XZ      -3.0372     YZ       1.1181     ZZ     -41.8404
    Octopole Moments (Debye-Ang^2)
       XXX       4.7054    XXY      -0.3668    XYY      -2.4798
       YYY      -2.5729    XXZ       1.4906    XYZ       2.4744
       YYZ       2.5637    XZZ       2.3776    YZZ      -3.0169
       ZZZ      -0.7365
    Hexadecapole Moments (Debye-Ang^3)
      XXXX    -407.3926   XXXY      -1.8577   XXYY    -110.6501
      XYYY      -7.5157   YYYY    -252.2861   XXXZ      68.3752
      XXYZ      -4.7292   XYYZ      25.1733   YYYZ     -29.6093
      XXZZ     -88.6248   XYZZ      -7.1554   YYZZ     -70.6980
      XZZZ      83.0343   YZZZ     -28.6520   ZZZZ    -157.7657
 -----------------------------------------------------------------
 Calculating analytic gradient of the SCF energy
 Gradient of SCF Energy
            1           2           3           4           5           6
    1  -0.0179074  -0.0657753   0.0199159   0.0058145  -0.0010049  -0.0250283
    2  -0.0160484   0.0572832   0.0105365  -0.0139745   0.0063780  -0.0305820
    3  -0.0255730   0.0297715   0.0085049  -0.0048407  -0.0003306  -0.0038422
            7           8           9          10          11          12
    1  -0.0021140   0.0364718  -0.0037544  -0.0010108   0.0035675   0.0365894
    2  -0.0138966   0.0217374  -0.0063761   0.0043490  -0.0042534  -0.0240437
    3   0.0102472  -0.0153411   0.0052229   0.0033966  -0.0024601  -0.0035986
           13
    1   0.0142360
    2   0.0088907
    3  -0.0011567
 Max gradient component =       6.578E-02
 RMS gradient           =       2.080E-02
 Gradient time:  CPU 7.46 s  wall 2.49 s
 Geometry Optimization Parameters
   NAtoms,    NIC,     NZ,  NCons,   NDum,   NFix, NCnnct, MaxDiis
       13      82       0       0       0       0       0       0

 Cartesian Hessian Update
 Hessian Updated using Powell/Murtagh-Sargent Update
  Mixing factors:     0.988052 Powell
                      0.011948 Murtagh-Sargent


** GEOMETRY OPTIMIZATION IN DELOCALIZED INTERNAL COORDINATES **
   Searching for a Transition State

   Optimization Cycle:   2

                       Coordinates (Angstroms)
     ATOM                X               Y               Z
      1  C         1.5728936987    0.6380563558   -0.3965502689
      2  C        -0.0169838338   -1.0598655872   -0.4263425189
      3  C        -1.1583365394   -0.9753308376    0.3401863377
      4  C        -1.6957990042    0.2587297396    0.7491319602
      5  C        -0.7347069115    1.3024113717    0.5675374198
      6  N         0.4116969815    0.7999641750    0.2986800845
      7  H         2.4854582657    1.0911658752   -0.0159917181
      8  H         0.5689695007   -1.9870454066   -0.4801558251
      9  H        -1.6437539700   -1.9158879320    0.6511599346
     10  H        -2.6601198028    0.4308682244    1.2224785294
     11  H        -0.9542402714    2.3705019379    0.5919002124
     12  C         1.5180859567   -0.4547725544   -1.1541576526
     13  H         2.2599561895   -0.7375036787   -1.9124157569
   Point Group: c1    Number of degrees of freedom:    33


   Energy is   -286.723393356

 Hessian Updated using Powell/Murtagh-Sargent Update
  Mixing factors:     0.944643 Powell
                      0.055357 Murtagh-Sargent

 33 Hessian modes will be used to form the next step
  Hessian Eigenvalues:
    -0.209801   -0.029122   -0.007329    0.005964    0.009395    0.010741
     0.015416    0.020993    0.023383    0.024504    0.036761    0.056537
     0.074630    0.080313    0.106100    0.110512    0.118227    0.125762
     0.178559    0.219017    0.260073    0.282243    0.320125    0.323409
     0.339549    0.341154    0.359079    0.361364    0.379816    0.414534
     0.492240    0.616534    0.668081
**WARNING** Hessian does not have the Desired Local Structure

 Transition State Search - Taking P-RFO Step
 Searching for Lamda that Maximizes Along the Lowest mode
 Value Taken    Lamda =   0.02964887
 Searching for Lamda that Minimizes Along All other modes
 Value Taken    Lamda =  -0.06307727
 Calculated Step too Large.  Step scaled by  0.098719
 Step Taken.  Stepsize is  0.100000

                             Maximum     Tolerance    Cnvgd?
         Gradient           0.091212      0.000010      NO
         Displacement       0.051074      0.001200      NO
         Energy change     -0.003600      0.000001      NO


 New Cartesian Coordinates Obtained by Inverse Iteration

 Displacement from previous Coordinates is:  0.131800
 ----------------------------------------------------------------
             Standard Nuclear Orientation (Angstroms)
    I     Atom           X                Y                Z
 ----------------------------------------------------------------
    1      C       1.5785330845     0.6484585089    -0.3965281175
    2      C      -0.0161439255    -1.0595015588    -0.4221904297
    3      C      -1.1631753581    -0.9800290970     0.3396691853
    4      C      -1.6980641347     0.2583759924     0.7436782281
    5      C      -0.7269447834     1.2912129935     0.5734028089
    6      N       0.4249955324     0.7776566054     0.3292307502
    7      H       2.4901358966     1.1175185228    -0.0343046901
    8      H       0.5647553035    -1.9913055247    -0.4623174503
    9      H      -1.6510803275    -1.9196571885     0.6449221089
   10      H      -2.6670958452     0.4376126701     1.2032612933
   11      H      -0.9396006268     2.3610318009     0.5871501945
   12      C       1.5148166484    -0.4441728090    -1.1517172142
   13      H       2.2419887957    -0.7359092327    -1.9187959294
 ----------------------------------------------------------------
 Nuclear Repulsion Energy =   265.3558358659 hartrees
 There are       25 alpha and       24 beta electrons
 Applying Cartesian multipole field
    Component          Value
    ---------          -----
     (2,0,0)        1.00000E-11
     (0,2,0)        2.00000E-11
     (0,0,2)       -3.00000E-11
 Nucleus-field energy     =     0.0000000037 hartrees
 Requested basis set is 6-31G(d)
 There are 40 shells and 117 basis functions
 A cutoff of  1.0D-14 yielded    795 shell pairs
 There are      7057 function pairs
 Smallest overlap matrix eigenvalue = 1.42E-03
 Guess MOs from SCF MO coefficient file
 Reading MOs from coefficient file
 Reading MOs from coefficient file
 An unrestricted hybrid HF-DFT SCF calculation will be
 performed using Pulay DIIS extrapolation
 Exchange:     0.2000 Hartree-Fock + 0.0800 Slater + 0.7200 B88
 Correlation:  0.1900 VWN1RPA + 0.8100 LYP
 Using SG-1 standard quadrature grid
 SCF converges when DIIS error is below 1.0E-08
 Geometry optimization detected.  Setting ReadMinima to 0
 Setting SaveMinima to 0
Using Q-Chem read-in guess as SCF_GUESS READ specified.

 using 4 threads for integral computing
 -------------------------------------------------------
 OpenMP Integral computing Module                
 Release: version 1.0, May 2013, Q-Chem Inc. Pittsburgh 
 -------------------------------------------------------
 -------------------------------------------------------
 OpenMP BLAS3 based DFT computing Module                
 Release: version 1.0, May 2013, Q-Chem Inc. Pittsburgh 
 -------------------------------------------------------
 ---------------------------------------
  Cycle       Energy         DIIS Error
 ---------------------------------------
    1    -286.7221420804      1.16E-03
    2    -286.7265872750      2.32E-04
    3    -286.7261927480      5.30E-04
    4    -286.7267485757      4.77E-05
    5    -286.7267605732      2.68E-05
    6    -286.7267681920      1.35E-05
    7    -286.7267744431      1.31E-05
    8    -286.7267778174      5.22E-06
    9    -286.7267793780      2.74E-06
   10    -286.7267796111      9.65E-07
   11    -286.7267796538      5.90E-07
   12    -286.7267796699      2.44E-07
   13    -286.7267796803      1.54E-07
   14    -286.7267796834      7.95E-08
   15    -286.7267796843      2.27E-08
   16    -286.7267796845      9.95E-09 Convergence criterion met
 ---------------------------------------
 <S^2> = 0.7783
 SCF time:  CPU 41.06 s  wall 39.68 s
 SCF   energy in the final basis set = -286.72677968
 Total energy in the final basis set = -286.72677968
 
 --------------------------------------------------------------
 
                    Orbital Energies (a.u.)
 --------------------------------------------------------------
 
 Alpha MOs
 -- Occupied --
-14.327 -10.239 -10.223 -10.220 -10.196 -10.193 -10.188  -0.947
 -0.807  -0.770  -0.673  -0.632  -0.548  -0.542  -0.500  -0.478
 -0.434  -0.407  -0.404  -0.377  -0.304  -0.290  -0.281  -0.186
 -0.166
 -- Virtual --
 -0.040   0.028   0.055   0.086   0.119   0.148   0.150   0.161
  0.171   0.192   0.251   0.291   0.327   0.371   0.419   0.441
  0.498   0.511   0.538   0.561   0.574   0.590   0.596   0.613
  0.630   0.641   0.667   0.697   0.726   0.744   0.778   0.808
  0.827   0.838   0.852   0.865   0.883   0.902   0.931   0.976
  0.994   1.009   1.042   1.102   1.129   1.134   1.167   1.210
  1.305   1.383   1.409   1.481   1.513   1.587   1.627   1.664
  1.748   1.760   1.786   1.879   1.891   1.911   1.954   1.990
  2.018   2.060   2.108   2.138   2.204   2.215   2.280   2.323
  2.376   2.386   2.421   2.501   2.530   2.593   2.650   2.736
  2.770   2.867   2.957   3.129   3.215   4.027   4.056   4.100
  4.185   4.277   4.438   4.486
 
 Beta MOs
 -- Occupied --
-14.320 -10.241 -10.223 -10.215 -10.197 -10.191 -10.182  -0.934
 -0.801  -0.762  -0.662  -0.626  -0.542  -0.538  -0.496  -0.472
 -0.431  -0.402  -0.400  -0.367  -0.296  -0.269  -0.264  -0.177
 -- Virtual --
 -0.076  -0.030   0.043   0.060   0.107   0.123   0.150   0.153
  0.165   0.175   0.195   0.254   0.295   0.331   0.375   0.424
  0.446   0.505   0.514   0.542   0.565   0.579   0.598   0.604
  0.617   0.635   0.656   0.673   0.701   0.734   0.749   0.782
  0.811   0.829   0.842   0.854   0.867   0.892   0.905   0.932
  0.982   0.999   1.018   1.048   1.107   1.133   1.138   1.174
  1.218   1.315   1.390   1.421   1.486   1.523   1.598   1.637
  1.669   1.757   1.770   1.795   1.886   1.900   1.918   1.958
  2.001   2.024   2.068   2.117   2.144   2.213   2.222   2.293
  2.331   2.386   2.394   2.427   2.511   2.535   2.599   2.657
  2.741   2.775   2.871   2.963   3.133   3.222   4.034   4.064
  4.107   4.189   4.280   4.445   4.492
 --------------------------------------------------------------
 
          Ground-State Mulliken Net Atomic Charges

     Atom                 Charge (a.u.)    Spin (a.u.)
  --------------------------------------------------------
      1 C                     0.082239      -0.000660
      2 C                    -0.100307       0.361261
      3 C                    -0.109981      -0.110979
      4 C                    -0.171624       0.436363
      5 C                     0.084360      -0.134530
      6 N                    -0.383395       0.342571
      7 H                     0.143701       0.000293
      8 H                     0.141395      -0.007433
      9 H                     0.141864       0.002178
     10 H                     0.136041      -0.022241
     11 H                     0.138041       0.014783
     12 C                    -0.254417       0.111393
     13 H                     0.152083       0.007001
  --------------------------------------------------------
  Sum of atomic charges =    -0.000000
  Sum of spin   charges =     1.000000

 -----------------------------------------------------------------
                    Cartesian Multipole Moments
 -----------------------------------------------------------------
    Charge (ESU x 10^10)
                -0.0000
    Dipole Moment (Debye)
         X       0.0843      Y       0.5253      Z       0.2005
       Tot       0.5686
    Quadrupole Moments (Debye-Ang)
        XX     -36.4625     XY      -0.3209     YY     -37.7434
        XZ      -3.0412     YZ       1.1350     ZZ     -41.9527
    Octopole Moments (Debye-Ang^2)
       XXX       4.4410    XXY      -0.1722    XYY      -2.4136
       YYY      -2.3705    XXZ       1.2531    XYZ       2.4798
       YYZ       2.4060    XZZ       2.3503    YZZ      -3.0598
       ZZZ      -1.4850
    Hexadecapole Moments (Debye-Ang^3)
      XXXX    -407.7657   XXXY      -2.4561   XXYY    -110.0872
      XYYY      -8.5250   YYYY    -249.7578   XXXZ      67.9581
      XXYZ      -4.7489   XYYZ      25.0032   YYYZ     -29.2539
      XXZZ     -89.0760   XYZZ      -7.6320   YYZZ     -70.4745
      XZZZ      82.5263   YZZZ     -28.3159   ZZZZ    -157.8418
 -----------------------------------------------------------------
 Calculating analytic gradient of the SCF energy
 Gradient of SCF Energy
            1           2           3           4           5           6
    1  -0.0172512  -0.0650519   0.0196697   0.0046364   0.0001658  -0.0237159
    2  -0.0144511   0.0542787   0.0085590  -0.0138266   0.0055380  -0.0264320
    3  -0.0233538   0.0251311   0.0108544  -0.0045925  -0.0002627  -0.0058784
            7           8           9          10          11          12
    1  -0.0015847   0.0339211  -0.0033519  -0.0008331   0.0031947   0.0365801
    2  -0.0132127   0.0197030  -0.0058442   0.0040703  -0.0038807  -0.0230697
    3   0.0101641  -0.0146004   0.0050993   0.0032184  -0.0021484  -0.0026350
           13
    1   0.0136209
    2   0.0085680
    3  -0.0009961
 Max gradient component =       6.505E-02
 RMS gradient           =       1.981E-02
 Gradient time:  CPU 7.68 s  wall 5.47 s
 Geometry Optimization Parameters
   NAtoms,    NIC,     NZ,  NCons,   NDum,   NFix, NCnnct, MaxDiis
       13      82       0       0       0       0       0       0

 Cartesian Hessian Update
 Hessian Updated using Powell/Murtagh-Sargent Update
  Mixing factors:     0.989707 Powell
                      0.010293 Murtagh-Sargent


** GEOMETRY OPTIMIZATION IN DELOCALIZED INTERNAL COORDINATES **
   Searching for a Transition State

   Optimization Cycle:   3

                       Coordinates (Angstroms)
     ATOM                X               Y               Z
      1  C         1.5785330845    0.6484585089   -0.3965281175
      2  C        -0.0161439255   -1.0595015588   -0.4221904297
      3  C        -1.1631753581   -0.9800290970    0.3396691853
      4  C        -1.6980641347    0.2583759924    0.7436782281
      5  C        -0.7269447834    1.2912129935    0.5734028089
      6  N         0.4249955324    0.7776566054    0.3292307502
      7  H         2.4901358966    1.1175185228   -0.0343046901
      8  H         0.5647553035   -1.9913055247   -0.4623174503
      9  H        -1.6510803275   -1.9196571885    0.6449221089
     10  H        -2.6670958452    0.4376126701    1.2032612933
     11  H        -0.9396006268    2.3610318009    0.5871501945
     12  C         1.5148166484   -0.4441728090   -1.1517172142
     13  H         2.2419887957   -0.7359092327   -1.9187959294
   Point Group: c1    Number of degrees of freedom:    33


   Energy is   -286.726779684

 Hessian Updated using Powell/Murtagh-Sargent Update
  Mixing factors:     0.962617 Powell
                      0.037383 Murtagh-Sargent

 33 Hessian modes will be used to form the next step
  Hessian Eigenvalues:
    -0.204228   -0.032612   -0.007373    0.005980    0.008944    0.010715
     0.015628    0.021257    0.024065    0.025035    0.037031    0.056644
     0.074779    0.080071    0.106222    0.110654    0.118529    0.125710
     0.178021    0.218854    0.259670    0.284085    0.320313    0.323468
     0.339620    0.341155    0.359073    0.361366    0.380102    0.414987
     0.492415    0.616419    0.668024
**WARNING** Hessian does not have the Desired Local Structure

 Transition State Search - Taking P-RFO Step
 Searching for Lamda that Maximizes Along the Lowest mode
 Value Taken    Lamda =   0.02725986
 Searching for Lamda that Minimizes Along All other modes
 Value Taken    Lamda =  -0.06169710
 Calculated Step too Large.  Step scaled by  0.089049
 Step Taken.  Stepsize is  0.100000

                             Maximum     Tolerance    Cnvgd?
         Gradient           0.083824      0.000010      NO
         Displacement       0.051693      0.001200      NO
         Energy change     -0.003386      0.000001      NO


 New Cartesian Coordinates Obtained by Inverse Iteration

 Displacement from previous Coordinates is:  0.129863
 ----------------------------------------------------------------
             Standard Nuclear Orientation (Angstroms)
    I     Atom           X                Y                Z
 ----------------------------------------------------------------
    1      C       1.5816120209     0.6581541199    -0.3956199471
    2      C      -0.0149550763    -1.0593916599    -0.4180195031
    3      C      -1.1663066409    -0.9844145597     0.3398358562
    4      C      -1.6996394868     0.2588632107     0.7376903519
    5      C      -0.7196986839     1.2799623630     0.5783805836
    6      N       0.4384509946     0.7547251565     0.3617135609
    7      H       2.4924209097     1.1409558109    -0.0503937695
    8      H       0.5623224262    -1.9944642162    -0.4473019629
    9      H      -1.6563863947    -1.9231590071     0.6404684369
   10      H      -2.6733713283     0.4452158514     1.1831689241
   11      H      -0.9238259458     2.3514315325     0.5801409207
   12      C       1.5096963749    -0.4335744360    -1.1495005884
   13      H       2.2228010903    -0.7330124828    -1.9251021254
 ----------------------------------------------------------------
 Nuclear Repulsion Energy =   265.3871461253 hartrees
 There are       25 alpha and       24 beta electrons
 Applying Cartesian multipole field
    Component          Value
    ---------          -----
     (2,0,0)        1.00000E-11
     (0,2,0)        2.00000E-11
     (0,0,2)       -3.00000E-11
 Nucleus-field energy     =     0.0000000037 hartrees
 Requested basis set is 6-31G(d)
 There are 40 shells and 117 basis functions
 A cutoff of  1.0D-14 yielded    795 shell pairs
 There are      7057 function pairs
 Smallest overlap matrix eigenvalue = 1.42E-03
 Guess MOs from SCF MO coefficient file
 Reading MOs from coefficient file
 Reading MOs from coefficient file
 An unrestricted hybrid HF-DFT SCF calculation will be
 performed using Pulay DIIS extrapolation
 Exchange:     0.2000 Hartree-Fock + 0.0800 Slater + 0.7200 B88
 Correlation:  0.1900 VWN1RPA + 0.8100 LYP
 Using SG-1 standard quadrature grid
 SCF converges when DIIS error is below 1.0E-08
 Geometry optimization detected.  Setting ReadMinima to 0
 Setting SaveMinima to 0
Using Q-Chem read-in guess as SCF_GUESS READ specified.

 using 4 threads for integral computing
 -------------------------------------------------------
 OpenMP Integral computing Module                
 Release: version 1.0, May 2013, Q-Chem Inc. Pittsburgh 
 -------------------------------------------------------
 -------------------------------------------------------
 OpenMP BLAS3 based DFT computing Module                
 Release: version 1.0, May 2013, Q-Chem Inc. Pittsburgh 
 -------------------------------------------------------
 ---------------------------------------
  Cycle       Energy         DIIS Error
 ---------------------------------------
    1    -286.7255402155      1.20E-03
    2    -286.7297552537      2.42E-04
    3    -286.7293186239      5.57E-04
    4    -286.7299257678      4.84E-05
    5    -286.7299378090      2.63E-05
    6    -286.7299455894      1.33E-05
    7    -286.7299515394      1.39E-05
    8    -286.7299546826      5.48E-06
    9    -286.7299562438      2.49E-06
   10    -286.7299564442      7.92E-07
   11    -286.7299564806      4.89E-07
   12    -286.7299564911      2.38E-07
   13    -286.7299564981      1.65E-07
   14    -286.7299564992      7.81E-08
   15    -286.7299564993      1.82E-08
   16    -286.7299564994      7.12E-09 Convergence criterion met
 ---------------------------------------
 <S^2> = 0.7770
 SCF time:  CPU 40.98 s  wall 34.27 s
 SCF   energy in the final basis set = -286.72995650
 Total energy in the final basis set = -286.72995650
 
 --------------------------------------------------------------
 
                    Orbital Energies (a.u.)
 --------------------------------------------------------------
 
 Alpha MOs
 -- Occupied --
-14.329 -10.238 -10.222 -10.221 -10.197 -10.194 -10.187  -0.947
 -0.806  -0.769  -0.673  -0.630  -0.547  -0.543  -0.500  -0.478
 -0.433  -0.406  -0.404  -0.376  -0.304  -0.291  -0.283  -0.189
 -0.165
 -- Virtual --
 -0.040   0.029   0.055   0.086   0.119   0.148   0.150   0.161
  0.171   0.192   0.249   0.291   0.326   0.370   0.419   0.442
  0.502   0.510   0.540   0.560   0.575   0.589   0.596   0.613
  0.631   0.641   0.665   0.694   0.726   0.745   0.776   0.806
  0.826   0.837   0.851   0.864   0.882   0.901   0.932   0.975
  0.990   1.006   1.038   1.103   1.130   1.132   1.166   1.207
  1.298   1.382   1.412   1.480   1.515   1.577   1.625   1.676
  1.744   1.762   1.790   1.883   1.894   1.909   1.958   1.996
  2.017   2.060   2.113   2.139   2.206   2.216   2.283   2.321
  2.380   2.381   2.424   2.498   2.535   2.593   2.655   2.734
  2.771   2.868   2.946   3.114   3.190   4.029   4.059   4.100
  4.181   4.270   4.429   4.486
 
 Beta MOs
 -- Occupied --
-14.321 -10.240 -10.222 -10.216 -10.198 -10.192 -10.181  -0.933
 -0.800  -0.761  -0.662  -0.624  -0.541  -0.538  -0.496  -0.472
 -0.430  -0.402  -0.400  -0.366  -0.296  -0.271  -0.265  -0.178
 -- Virtual --
 -0.075  -0.031   0.043   0.059   0.106   0.122   0.150   0.152
  0.165   0.175   0.195   0.253   0.295   0.330   0.374   0.425
  0.447   0.509   0.513   0.544   0.564   0.580   0.597   0.604
  0.616   0.634   0.656   0.670   0.698   0.734   0.749   0.780
  0.808   0.828   0.841   0.853   0.866   0.890   0.904   0.933
  0.981   0.995   1.014   1.045   1.107   1.134   1.136   1.172
  1.215   1.309   1.389   1.424   1.485   1.525   1.588   1.635
  1.681   1.752   1.773   1.799   1.889   1.901   1.919   1.963
  2.008   2.023   2.070   2.120   2.145   2.217   2.221   2.295
  2.328   2.387   2.393   2.429   2.508   2.540   2.599   2.662
  2.739   2.775   2.871   2.953   3.119   3.196   4.038   4.066
  4.106   4.184   4.273   4.435   4.491
 --------------------------------------------------------------
 
          Ground-State Mulliken Net Atomic Charges

     Atom                 Charge (a.u.)    Spin (a.u.)
  --------------------------------------------------------
      1 C                     0.079070      -0.002241
      2 C                    -0.103155       0.337715
      3 C                    -0.108376      -0.088860
      4 C                    -0.171121       0.408185
      5 C                     0.083373      -0.132420
      6 N                    -0.386867       0.367336
      7 H                     0.144615       0.000624
      8 H                     0.141689      -0.004337
      9 H                     0.142115       0.000774
     10 H                     0.135729      -0.020898
     11 H                     0.139421       0.017401
     12 C                    -0.248548       0.106990
     13 H                     0.152055       0.009730
  --------------------------------------------------------
  Sum of atomic charges =    -0.000000
  Sum of spin   charges =     1.000000

 -----------------------------------------------------------------
                    Cartesian Multipole Moments
 -----------------------------------------------------------------
    Charge (ESU x 10^10)
                -0.0000
    Dipole Moment (Debye)
         X       0.0826      Y       0.5226      Z       0.1229
       Tot       0.5431
    Quadrupole Moments (Debye-Ang)
        XX     -36.4999     XY      -0.2258     YY     -37.5271
        XZ      -3.0639     YZ       1.1435     ZZ     -42.0690
    Octopole Moments (Debye-Ang^2)
       XXX       4.1607    XXY      -0.0064    XYY      -2.3415
       YYY      -2.1566    XXZ       0.9806    XYZ       2.4825
       YYZ       2.2290    XZZ       2.3348    YZZ      -3.1105
       ZZZ      -2.2837
    Hexadecapole Moments (Debye-Ang^3)
      XXXX    -407.4556   XXXY      -2.9998   XXYY    -109.4391
      XYYY      -9.4432   YYYY    -247.2273   XXXZ      67.3677
      XXYZ      -4.7924   XYYZ      24.7741   YYYZ     -28.9103
      XXZZ     -89.3837   XYZZ      -8.0417   YYZZ     -70.2627
      XZZZ      81.8073   YZZZ     -27.9905   ZZZZ    -157.9774
 -----------------------------------------------------------------
 Calculating analytic gradient of the SCF energy
 Gradient of SCF Energy
            1           2           3           4           5           6
    1  -0.0166918  -0.0647225   0.0194334   0.0036008   0.0014209  -0.0229787
    2  -0.0129611   0.0517320   0.0070368  -0.0138602   0.0050235  -0.0233887
    3  -0.0215408   0.0212867   0.0129483  -0.0043083  -0.0001740  -0.0078552
            7           8           9          10          11          12
    1  -0.0011050   0.0317714  -0.0030581  -0.0006636   0.0028381   0.0370706
    2  -0.0125877   0.0181237  -0.0054055   0.0038616  -0.0035990  -0.0223727
    3   0.0100293  -0.0139392   0.0049535   0.0031013  -0.0018823  -0.0016409
           13
    1   0.0130846
    2   0.0083973
    3  -0.0009783
 Max gradient component =       6.472E-02
 RMS gradient           =       1.911E-02
 Gradient time:  CPU 7.31 s  wall 3.38 s
 Geometry Optimization Parameters
   NAtoms,    NIC,     NZ,  NCons,   NDum,   NFix, NCnnct, MaxDiis
       13      82       0       0       0       0       0       0

 Cartesian Hessian Update
 Hessian Updated using Powell/Murtagh-Sargent Update
  Mixing factors:     0.986782 Powell
                      0.013218 Murtagh-Sargent


** GEOMETRY OPTIMIZATION IN DELOCALIZED INTERNAL COORDINATES **
   Searching for a Transition State

   Optimization Cycle:   4

                       Coordinates (Angstroms)
     ATOM                X               Y               Z
      1  C         1.5816120209    0.6581541199   -0.3956199471
      2  C        -0.0149550763   -1.0593916599   -0.4180195031
      3  C        -1.1663066409   -0.9844145597    0.3398358562
      4  C        -1.6996394868    0.2588632107    0.7376903519
      5  C        -0.7196986839    1.2799623630    0.5783805836
      6  N         0.4384509946    0.7547251565    0.3617135609
      7  H         2.4924209097    1.1409558109   -0.0503937695
      8  H         0.5623224262   -1.9944642162   -0.4473019629
      9  H        -1.6563863947   -1.9231590071    0.6404684369
     10  H        -2.6733713283    0.4452158514    1.1831689241
     11  H        -0.9238259458    2.3514315325    0.5801409207
     12  C         1.5096963749   -0.4335744360   -1.1495005884
     13  H         2.2228010903   -0.7330124828   -1.9251021254
   Point Group: c1    Number of degrees of freedom:    33


   Energy is   -286.729956499

 Hessian Updated using Powell/Murtagh-Sargent Update
  Mixing factors:     0.904111 Powell
                      0.095889 Murtagh-Sargent

 33 Hessian modes will be used to form the next step
  Hessian Eigenvalues:
    -0.196204   -0.033706   -0.007485    0.005984    0.008821    0.010704
     0.015674    0.021398    0.024057    0.025210    0.037276    0.056733
     0.074856    0.079946    0.106336    0.110683    0.118800    0.125680
     0.177693    0.218779    0.259687    0.285511    0.320417    0.323519
     0.339650    0.341158    0.359088    0.361370    0.380313    0.415287
     0.492583    0.616406    0.668014
**WARNING** Hessian does not have the Desired Local Structure

 Transition State Search - Taking P-RFO Step
 Searching for Lamda that Maximizes Along the Lowest mode
 Value Taken    Lamda =   0.02641264
 Searching for Lamda that Minimizes Along All other modes
 Value Taken    Lamda =  -0.05917402
 Calculated Step too Large.  Step scaled by  0.082973
 Step Taken.  Stepsize is  0.100000

                             Maximum     Tolerance    Cnvgd?
         Gradient           0.077655      0.000010      NO
         Displacement       0.052724      0.001200      NO
         Energy change     -0.003177      0.000001      NO


 New Cartesian Coordinates Obtained by Inverse Iteration

 Displacement from previous Coordinates is:  0.130087
 ----------------------------------------------------------------
             Standard Nuclear Orientation (Angstroms)
    I     Atom           X                Y                Z
 ----------------------------------------------------------------
    1      C       1.5828805970     0.6668551315    -0.3944046595
    2      C      -0.0140590668    -1.0588313975    -0.4134381314
    3      C      -1.1688309737    -0.9887161574     0.3405880245
    4      C      -1.7010726315     0.2599898259     0.7308434356
    5      C      -0.7128881869     1.2679667933     0.5826698765
    6      N       0.4521243525     0.7311244513     0.3948606184
    7      H       2.4926092692     1.1620423510    -0.0646250674
    8      H       0.5616778071    -1.9956073485    -0.4328392742
    9      H      -1.6603424798    -1.9267123320     0.6378130807
   10      H      -2.6793373422     0.4539183949     1.1619051791
   11      H      -0.9066802402     2.3410110753     0.5726030775
   12      C       1.5036260780    -0.4228245429    -1.1484500942
   13      H       2.2034130772    -0.7289245616    -1.9320653276
 ----------------------------------------------------------------
 Nuclear Repulsion Energy =   265.4580801707 hartrees
 There are       25 alpha and       24 beta electrons
 Applying Cartesian multipole field
    Component          Value
    ---------          -----
     (2,0,0)        1.00000E-11
     (0,2,0)        2.00000E-11
     (0,0,2)       -3.00000E-11
 Nucleus-field energy     =     0.0000000037 hartrees
 Requested basis set is 6-31G(d)
 There are 40 shells and 117 basis functions
 A cutoff of  1.0D-14 yielded    795 shell pairs
 There are      7057 function pairs
 Smallest overlap matrix eigenvalue = 1.42E-03
 Guess MOs from SCF MO coefficient file
 Reading MOs from coefficient file
 Reading MOs from coefficient file
 An unrestricted hybrid HF-DFT SCF calculation will be
 performed using Pulay DIIS extrapolation
 Exchange:     0.2000 Hartree-Fock + 0.0800 Slater + 0.7200 B88
 Correlation:  0.1900 VWN1RPA + 0.8100 LYP
 Using SG-1 standard quadrature grid
 SCF converges when DIIS error is below 1.0E-08
 Geometry optimization detected.  Setting ReadMinima to 0
 Setting SaveMinima to 0
Using Q-Chem read-in guess as SCF_GUESS READ specified.

 using 4 threads for integral computing
 -------------------------------------------------------
 OpenMP Integral computing Module                
 Release: version 1.0, May 2013, Q-Chem Inc. Pittsburgh 
 -------------------------------------------------------
 -------------------------------------------------------
 OpenMP BLAS3 based DFT computing Module                
 Release: version 1.0, May 2013, Q-Chem Inc. Pittsburgh 
 -------------------------------------------------------
 ---------------------------------------
  Cycle       Energy         DIIS Error
 ---------------------------------------
    1    -286.7283642635      1.24E-03
    2    -286.7325847507      2.47E-04
    3    -286.7321381341      5.66E-04
    4    -286.7327622597      5.16E-05
    5    -286.7327753170      2.59E-05
    6    -286.7327839426      1.29E-05
    7    -286.7327902016      1.44E-05
    8    -286.7327932484      5.56E-06
    9    -286.7327949291      2.80E-06
   10    -286.7327951584      9.28E-07
   11    -286.7327952055      5.41E-07
   12    -286.7327952211      3.26E-07
   13    -286.7327952286      1.33E-07
   14    -286.7327952292      1.13E-07
   15    -286.7327952294      1.81E-08
   16    -286.7327952294      1.04E-08
   17    -286.7327952294      6.03E-09 Convergence criterion met
 ---------------------------------------
 <S^2> = 0.7750
 SCF time:  CPU 43.33 s  wall 32.93 s
 SCF   energy in the final basis set = -286.73279523
 Total energy in the final basis set = -286.73279523
 
 --------------------------------------------------------------
 
                    Orbital Energies (a.u.)
 --------------------------------------------------------------
 
 Alpha MOs
 -- Occupied --
-14.330 -10.236 -10.221 -10.220 -10.198 -10.195 -10.185  -0.946
 -0.805  -0.768  -0.673  -0.629  -0.546  -0.544  -0.501  -0.479
 -0.433  -0.405  -0.404  -0.375  -0.304  -0.292  -0.284  -0.191
 -0.164
 -- Virtual --
 -0.040   0.030   0.054   0.085   0.118   0.147   0.149   0.162
  0.171   0.191   0.247   0.291   0.325   0.369   0.420   0.444
  0.506   0.509   0.541   0.560   0.576   0.589   0.596   0.612
  0.630   0.642   0.664   0.691   0.726   0.745   0.773   0.804
  0.825   0.837   0.850   0.863   0.880   0.900   0.932   0.973
  0.985   1.003   1.036   1.104   1.129   1.132   1.164   1.205
  1.291   1.383   1.415   1.478   1.517   1.570   1.624   1.686
  1.739   1.764   1.795   1.886   1.893   1.911   1.963   2.001
  2.018   2.061   2.116   2.141   2.207   2.219   2.285   2.317
  2.377   2.385   2.425   2.497   2.540   2.593   2.660   2.732
  2.774   2.868   2.935   3.095   3.165   4.030   4.062   4.101
  4.177   4.264   4.420   4.486
 
 Beta MOs
 -- Occupied --
-14.321 -10.238 -10.220 -10.217 -10.198 -10.193 -10.180  -0.932
 -0.800  -0.760  -0.662  -0.623  -0.540  -0.537  -0.496  -0.472
 -0.429  -0.401  -0.400  -0.366  -0.296  -0.273  -0.265  -0.180
 -- Virtual --
 -0.074  -0.032   0.042   0.059   0.105   0.122   0.150   0.151
  0.165   0.175   0.194   0.251   0.296   0.328   0.373   0.426
  0.448   0.511   0.513   0.545   0.563   0.580   0.597   0.604
  0.616   0.633   0.656   0.668   0.695   0.734   0.750   0.778
  0.806   0.828   0.840   0.853   0.865   0.888   0.903   0.934
  0.978   0.993   1.011   1.042   1.108   1.133   1.136   1.170
  1.214   1.302   1.389   1.426   1.483   1.526   1.580   1.633
  1.692   1.746   1.776   1.804   1.891   1.900   1.923   1.967
  2.013   2.023   2.072   2.121   2.149   2.217   2.225   2.296
  2.323   2.383   2.397   2.430   2.507   2.545   2.599   2.666
  2.738   2.778   2.872   2.942   3.101   3.172   4.041   4.069
  4.107   4.180   4.266   4.427   4.491
 --------------------------------------------------------------
 
          Ground-State Mulliken Net Atomic Charges

     Atom                 Charge (a.u.)    Spin (a.u.)
  --------------------------------------------------------
      1 C                     0.075610      -0.007019
      2 C                    -0.105927       0.306552
      3 C                    -0.107462      -0.062023
      4 C                    -0.169931       0.376186
      5 C                     0.081644      -0.128409
      6 N                    -0.390037       0.393917
      7 H                     0.145361       0.001103
      8 H                     0.142418      -0.001004
      9 H                     0.142468      -0.000850
     10 H                     0.135496      -0.019401
     11 H                     0.140877       0.019878
     12 C                    -0.242771       0.108883
     13 H                     0.152255       0.012187
  --------------------------------------------------------
  Sum of atomic charges =     0.000000
  Sum of spin   charges =     1.000000

 -----------------------------------------------------------------
                    Cartesian Multipole Moments
 -----------------------------------------------------------------
    Charge (ESU x 10^10)
                 0.0000
    Dipole Moment (Debye)
         X       0.0801      Y       0.5085      Z       0.0412
       Tot       0.5164
    Quadrupole Moments (Debye-Ang)
        XX     -36.5302     XY      -0.1417     YY     -37.3276
        XZ      -3.1027     YZ       1.1445     ZZ     -42.1902
    Octopole Moments (Debye-Ang^2)
       XXX       3.8740    XXY       0.1335    XYY      -2.2594
       YYY      -1.9464    XXZ       0.6915    XYZ       2.4826
       YYZ       2.0478    XZZ       2.3289    YZZ      -3.1664
       ZZZ      -3.0987
    Hexadecapole Moments (Debye-Ang^3)
      XXXX    -406.7766   XXXY      -3.5432   XXYY    -108.7312
      XYYY     -10.2868   YYYY    -244.5617   XXXZ      66.6796
      XXYZ      -4.8436   XYYZ      24.5160   YYYZ     -28.5441
      XXZZ     -89.6193   XYZZ      -8.4000   YYZZ     -70.0512
      XZZZ      80.9517   YZZZ     -27.6391   ZZZZ    -158.2231
 -----------------------------------------------------------------
 Calculating analytic gradient of the SCF energy
 Gradient of SCF Energy
            1           2           3           4           5           6
    1  -0.0160289  -0.0646234   0.0192530   0.0026978   0.0026614  -0.0226297
    2  -0.0116068   0.0494849   0.0059146  -0.0139965   0.0046150  -0.0210184
    3  -0.0201897   0.0177983   0.0148774  -0.0039737  -0.0000426  -0.0095224
            7           8           9          10          11          12
    1  -0.0007074   0.0298743  -0.0028377  -0.0004940   0.0024533   0.0378325
    2  -0.0120035   0.0168270  -0.0050293   0.0036828  -0.0033819  -0.0218122
    3   0.0098577  -0.0133694   0.0047838   0.0030345  -0.0017673  -0.0004410
           13
    1   0.0125488
    2   0.0083243
    3  -0.0010455
 Max gradient component =       6.462E-02
 RMS gradient           =       1.860E-02
 Gradient time:  CPU 7.72 s  wall 2.81 s
 Geometry Optimization Parameters
   NAtoms,    NIC,     NZ,  NCons,   NDum,   NFix, NCnnct, MaxDiis
       13      82       0       0       0       0       0       0

 Cartesian Hessian Update
 Hessian Updated using Powell/Murtagh-Sargent Update
  Mixing factors:     0.973085 Powell
                      0.026915 Murtagh-Sargent


** GEOMETRY OPTIMIZATION IN DELOCALIZED INTERNAL COORDINATES **
   Searching for a Transition State

   Optimization Cycle:   5

                       Coordinates (Angstroms)
     ATOM                X               Y               Z
      1  C         1.5828805970    0.6668551315   -0.3944046595
      2  C        -0.0140590668   -1.0588313975   -0.4134381314
      3  C        -1.1688309737   -0.9887161574    0.3405880245
      4  C        -1.7010726315    0.2599898259    0.7308434356
      5  C        -0.7128881869    1.2679667933    0.5826698765
      6  N         0.4521243525    0.7311244513    0.3948606184
      7  H         2.4926092692    1.1620423510   -0.0646250674
      8  H         0.5616778071   -1.9956073485   -0.4328392742
      9  H        -1.6603424798   -1.9267123320    0.6378130807
     10  H        -2.6793373422    0.4539183949    1.1619051791
     11  H        -0.9066802402    2.3410110753    0.5726030775
     12  C         1.5036260780   -0.4228245429   -1.1484500942
     13  H         2.2034130772   -0.7289245616   -1.9320653276
   Point Group: c1    Number of degrees of freedom:    33


   Energy is   -286.732795229

 Hessian Updated using Powell/Murtagh-Sargent Update
  Mixing factors:     0.871948 Powell
                      0.128052 Murtagh-Sargent

 33 Hessian modes will be used to form the next step
  Hessian Eigenvalues:
    -0.185583   -0.033269   -0.007546    0.005988    0.008635    0.010703
     0.015711    0.021493    0.023941    0.025245    0.037472    0.056786
     0.074934    0.079868    0.106428    0.110719    0.119081    0.125657
     0.177338    0.218755    0.259673    0.286744    0.320464    0.323581
     0.339692    0.341158    0.359118    0.361375    0.380442    0.415296
     0.492680    0.616420    0.668050
**WARNING** Hessian does not have the Desired Local Structure

 Transition State Search - Taking P-RFO Step
 Searching for Lamda that Maximizes Along the Lowest mode
 Value Taken    Lamda =   0.02684881
 Searching for Lamda that Minimizes Along All other modes
 Value Taken    Lamda =  -0.05501042
 Calculated Step too Large.  Step scaled by  0.078688
 Step Taken.  Stepsize is  0.100000

                             Maximum     Tolerance    Cnvgd?
         Gradient           0.072344      0.000010      NO
         Displacement       0.053937      0.001200      NO
         Energy change     -0.002839      0.000001      NO


 New Cartesian Coordinates Obtained by Inverse Iteration

 Displacement from previous Coordinates is:  0.131388
 ----------------------------------------------------------------
             Standard Nuclear Orientation (Angstroms)
    I     Atom           X                Y                Z
 ----------------------------------------------------------------
    1      C       1.5825666857     0.6744935151    -0.3935575392
    2      C      -0.0139613537    -1.0573795654    -0.4080074973
    3      C      -1.1715693979    -0.9931835445     0.3419692450
    4      C      -1.7028478732     0.2616238313     0.7227862089
    5      C      -0.7065704770     1.2547749572     0.5862516678
    6      N       0.4659303194     0.7066080105     0.4275910244
    7      H       2.4908048284     1.1810698197    -0.0774434498
    8      H       0.5627258183    -1.9940343461    -0.4174765353
    9      H      -1.6635589414    -1.9305767700     0.6371482380
   10      H      -2.6852591132     0.4639860144     1.1393534217
   11      H      -0.8878257359     2.3293838612     0.5661908668
   12      C       1.4974631105    -0.4118860308    -1.1492769351
   13      H       2.1852223899    -0.7235880693    -1.9400679779
 ----------------------------------------------------------------
 Nuclear Repulsion Energy =   265.5525084419 hartrees
 There are       25 alpha and       24 beta electrons
 Applying Cartesian multipole field
    Component          Value
    ---------          -----
     (2,0,0)        1.00000E-11
     (0,2,0)        2.00000E-11
     (0,0,2)       -3.00000E-11
 Nucleus-field energy     =     0.0000000036 hartrees
 Requested basis set is 6-31G(d)
 There are 40 shells and 117 basis functions
 A cutoff of  1.0D-14 yielded    795 shell pairs
 There are      7057 function pairs
 Smallest overlap matrix eigenvalue = 1.41E-03
 Guess MOs from SCF MO coefficient file
 Reading MOs from coefficient file
 Reading MOs from coefficient file
 An unrestricted hybrid HF-DFT SCF calculation will be
 performed using Pulay DIIS extrapolation
 Exchange:     0.2000 Hartree-Fock + 0.0800 Slater + 0.7200 B88
 Correlation:  0.1900 VWN1RPA + 0.8100 LYP
 Using SG-1 standard quadrature grid
 SCF converges when DIIS error is below 1.0E-08
 Geometry optimization detected.  Setting ReadMinima to 0
 Setting SaveMinima to 0
Using Q-Chem read-in guess as SCF_GUESS READ specified.

 using 4 threads for integral computing
 -------------------------------------------------------
 OpenMP Integral computing Module                
 Release: version 1.0, May 2013, Q-Chem Inc. Pittsburgh 
 -------------------------------------------------------
 -------------------------------------------------------
 OpenMP BLAS3 based DFT computing Module                
 Release: version 1.0, May 2013, Q-Chem Inc. Pittsburgh 
 -------------------------------------------------------
 ---------------------------------------
  Cycle       Energy         DIIS Error
 ---------------------------------------
    1    -286.7304337939      1.27E-03
    2    -286.7349105861      2.46E-04
    3    -286.7344929065      5.54E-04
    4    -286.7350891877      5.81E-05
    5    -286.7351041023      2.54E-05
    6    -286.7351138983      1.21E-05
    7    -286.7351211091      1.29E-05
    8    -286.7351240922      5.12E-06
    9    -286.7351258386      3.44E-06
   10    -286.7351261667      9.95E-07
   11    -286.7351262412      6.67E-07
   12    -286.7351262672      3.81E-07
   13    -286.7351262791      1.59E-07
   14    -286.7351262800      1.28E-07
   15    -286.7351262804      2.34E-08
   16    -286.7351262805      1.37E-08
   17    -286.7351262806      8.12E-09 Convergence criterion met
 ---------------------------------------
 <S^2> = 0.7720
 SCF time:  CPU 43.58 s  wall 45.68 s
 SCF   energy in the final basis set = -286.73512628
 Total energy in the final basis set = -286.73512628
 
 --------------------------------------------------------------
 
                    Orbital Energies (a.u.)
 --------------------------------------------------------------
 
 Alpha MOs
 -- Occupied --
-14.331 -10.235 -10.222 -10.219 -10.199 -10.196 -10.184  -0.946
 -0.805  -0.767  -0.674  -0.627  -0.545  -0.544  -0.501  -0.479
 -0.432  -0.404  -0.404  -0.374  -0.304  -0.293  -0.285  -0.194
 -0.163
 -- Virtual --
 -0.040   0.029   0.052   0.085   0.118   0.147   0.149   0.162
  0.172   0.190   0.245   0.292   0.323   0.369   0.421   0.445
  0.507   0.511   0.542   0.560   0.576   0.587   0.597   0.611
  0.629   0.643   0.662   0.687   0.726   0.746   0.771   0.804
  0.824   0.836   0.849   0.862   0.878   0.900   0.931   0.969
  0.981   1.001   1.035   1.105   1.127   1.134   1.163   1.205
  1.285   1.383   1.419   1.475   1.517   1.565   1.622   1.696
  1.734   1.765   1.800   1.885   1.893   1.915   1.967   2.003
  2.022   2.062   2.117   2.146   2.207   2.224   2.289   2.310
  2.372   2.391   2.426   2.496   2.544   2.594   2.664   2.731
  2.779   2.869   2.923   3.071   3.145   4.031   4.065   4.105
  4.174   4.259   4.413   4.485
 
 Beta MOs
 -- Occupied --
-14.322 -10.237 -10.219 -10.218 -10.199 -10.194 -10.180  -0.931
 -0.799  -0.759  -0.663  -0.621  -0.540  -0.537  -0.496  -0.472
 -0.428  -0.401  -0.399  -0.365  -0.296  -0.274  -0.266  -0.182
 -- Virtual --
 -0.073  -0.032   0.041   0.059   0.104   0.122   0.149   0.151
  0.165   0.175   0.193   0.250   0.296   0.327   0.373   0.427
  0.450   0.509   0.517   0.547   0.563   0.580   0.595   0.604
  0.615   0.632   0.656   0.666   0.691   0.734   0.750   0.775
  0.806   0.827   0.840   0.852   0.864   0.886   0.904   0.934
  0.973   0.991   1.007   1.041   1.110   1.131   1.138   1.169
  1.214   1.297   1.390   1.429   1.480   1.527   1.574   1.631
  1.702   1.741   1.777   1.809   1.889   1.901   1.928   1.972
  2.014   2.028   2.073   2.122   2.154   2.217   2.230   2.299
  2.316   2.379   2.402   2.431   2.506   2.549   2.600   2.670
  2.737   2.783   2.872   2.930   3.078   3.151   4.043   4.072
  4.110   4.177   4.261   4.419   4.491
 --------------------------------------------------------------
 
          Ground-State Mulliken Net Atomic Charges

     Atom                 Charge (a.u.)    Spin (a.u.)
  --------------------------------------------------------
      1 C                     0.071888      -0.014970
      2 C                    -0.108272       0.266036
      3 C                    -0.107513      -0.028934
      4 C                    -0.168026       0.339534
      5 C                     0.079139      -0.120409
      6 N                    -0.392952       0.420619
      7 H                     0.145965       0.001679
      8 H                     0.143607       0.002595
      9 H                     0.142935      -0.002762
     10 H                     0.135350      -0.017718
     11 H                     0.142345       0.021888
     12 C                    -0.237034       0.118052
     13 H                     0.152568       0.014390
  --------------------------------------------------------
  Sum of atomic charges =     0.000000
  Sum of spin   charges =     1.000000

 -----------------------------------------------------------------
                    Cartesian Multipole Moments
 -----------------------------------------------------------------
    Charge (ESU x 10^10)
                 0.0000
    Dipole Moment (Debye)
         X       0.0778      Y       0.4824      Z      -0.0418
       Tot       0.4905
    Quadrupole Moments (Debye-Ang)
        XX     -36.5536     XY      -0.0689     YY     -37.1490
        XZ      -3.1562     YZ       1.1388     ZZ     -42.3147
    Octopole Moments (Debye-Ang^2)
       XXX       3.5927    XXY       0.2497    XYY      -2.1634
       YYY      -1.7464    XXZ       0.4009    XYZ       2.4786
       YYZ       1.8757    XZZ       2.3305    YZZ      -3.2211
       ZZZ      -3.8910
    Hexadecapole Moments (Debye-Ang^3)
      XXXX    -405.9790   XXXY      -4.1404   XXYY    -108.0004
      XYYY     -11.0623   YYYY    -241.7055   XXXZ      65.9554
      XXYZ      -4.8862   XYYZ      24.2569   YYYZ     -28.1166
      XXZZ     -89.8328   XYZZ      -8.7158   YYZZ     -69.8316
      XZZZ      80.0330   YZZZ     -27.2239   ZZZZ    -158.6102
 -----------------------------------------------------------------
 Calculating analytic gradient of the SCF energy
 Gradient of SCF Energy
            1           2           3           4           5           6
    1  -0.0153158  -0.0647039   0.0192773   0.0019225   0.0037062  -0.0223757
    2  -0.0103886   0.0473529   0.0051576  -0.0141097   0.0041306  -0.0190567
    3  -0.0194616   0.0143227   0.0166822  -0.0036030   0.0000616  -0.0104859
            7           8           9          10          11          12
    1  -0.0003697   0.0281187  -0.0026629  -0.0003160   0.0020468   0.0386690
    2  -0.0114712   0.0157418  -0.0047021   0.0035179  -0.0032255  -0.0212425
    3   0.0096723  -0.0129109   0.0046000   0.0030163  -0.0018700   0.0011278
           13
    1   0.0120036
    2   0.0082956
    3  -0.0011513
 Max gradient component =       6.470E-02
 RMS gradient           =       1.821E-02
 Gradient time:  CPU 7.31 s  wall 5.58 s
 Geometry Optimization Parameters
   NAtoms,    NIC,     NZ,  NCons,   NDum,   NFix, NCnnct, MaxDiis
       13      82       0       0       0       0       0       0

 Cartesian Hessian Update
 Hessian Updated using Powell/Murtagh-Sargent Update
  Mixing factors:     0.948154 Powell
                      0.051846 Murtagh-Sargent


** GEOMETRY OPTIMIZATION IN DELOCALIZED INTERNAL COORDINATES **
   Searching for a Transition State

   Optimization Cycle:   6

                       Coordinates (Angstroms)
     ATOM                X               Y               Z
      1  C         1.5825666857    0.6744935151   -0.3935575392
      2  C        -0.0139613537   -1.0573795654   -0.4080074973
      3  C        -1.1715693979   -0.9931835445    0.3419692450
      4  C        -1.7028478732    0.2616238313    0.7227862089
      5  C        -0.7065704770    1.2547749572    0.5862516678
      6  N         0.4659303194    0.7066080105    0.4275910244
      7  H         2.4908048284    1.1810698197   -0.0774434498
      8  H         0.5627258183   -1.9940343461   -0.4174765353
      9  H        -1.6635589414   -1.9305767700    0.6371482380
     10  H        -2.6852591132    0.4639860144    1.1393534217
     11  H        -0.8878257359    2.3293838612    0.5661908668
     12  C         1.4974631105   -0.4118860308   -1.1492769351
     13  H         2.1852223899   -0.7235880693   -1.9400679779
   Point Group: c1    Number of degrees of freedom:    33


   Energy is   -286.735126281

 Hessian Updated using Powell/Murtagh-Sargent Update
  Mixing factors:     0.803822 Powell
                      0.196178 Murtagh-Sargent

 33 Hessian modes will be used to form the next step
  Hessian Eigenvalues:
    -0.172525   -0.030024   -0.007301    0.005990    0.008431    0.010707
     0.015729    0.021572    0.023765    0.025198    0.037630    0.056830
     0.074993    0.079829    0.106510    0.110786    0.119360    0.125641
     0.176976    0.218808    0.259609    0.287787    0.320461    0.323651
     0.339746    0.341165    0.359165    0.361384    0.380538    0.415192
     0.492705    0.616503    0.668191
**WARNING** Hessian does not have the Desired Local Structure

 Transition State Search - Taking P-RFO Step
 Searching for Lamda that Maximizes Along the Lowest mode
 Value Taken    Lamda =   0.02824934
 Searching for Lamda that Minimizes Along All other modes
 Value Taken    Lamda =  -0.04788227
 Calculated Step too Large.  Step scaled by  0.077689
 Step Taken.  Stepsize is  0.100000

                             Maximum     Tolerance    Cnvgd?
         Gradient           0.067705      0.000010      NO
         Displacement       0.055010      0.001200      NO
         Energy change     -0.002331      0.000001      NO


 New Cartesian Coordinates Obtained by Inverse Iteration

 Displacement from previous Coordinates is:  0.132176
 ----------------------------------------------------------------
             Standard Nuclear Orientation (Angstroms)
    I     Atom           X                Y                Z
 ----------------------------------------------------------------
    1      C       1.5810529770     0.6808291263    -0.3939357276
    2      C      -0.0149827550    -1.0544852541    -0.4013187954
    3      C      -1.1754025083    -0.9979472770     0.3438082414
    4      C      -1.7055657774     0.2636075966     0.7130814578
    5      C      -0.7010542451     1.2402038629     0.5891387190
    6      N       0.4794020475     0.6813715177     0.4576313783
    7      H       2.4872520545     1.1980150659    -0.0892128197
    8      H       0.5655128779    -1.9889173927    -0.3991671350
    9      H      -1.6665814154    -1.9349159244     0.6385024742
   10      H      -2.6914255028     0.4754322592     1.1156718680
   11      H      -0.8673701492     2.3164722196     0.5637460572
   12      C       1.4922737911    -0.4009247746    -1.1529667703
   13      H       2.1700088649    -0.7174493421    -1.9495182099
 ----------------------------------------------------------------
 Nuclear Repulsion Energy =   265.6537230488 hartrees
 There are       25 alpha and       24 beta electrons
 Applying Cartesian multipole field
    Component          Value
    ---------          -----
     (2,0,0)        1.00000E-11
     (0,2,0)        2.00000E-11
     (0,0,2)       -3.00000E-11
 Nucleus-field energy     =     0.0000000036 hartrees
 Requested basis set is 6-31G(d)
 There are 40 shells and 117 basis functions
 A cutoff of  1.0D-14 yielded    796 shell pairs
 There are      7058 function pairs
[...]
     0.547789    0.671663    0.733581

 Transition State Search - Taking P-RFO Step
 Searching for Lamda that Maximizes Along the Lowest mode
 Value Taken    Lamda =   0.00000000
 Searching for Lamda that Minimizes Along All other modes
 Value Taken    Lamda =   0.00000000
 Step Taken.  Stepsize is  0.000273

                             Maximum     Tolerance    Cnvgd?
         Gradient           0.000014      0.000010      NO
         Displacement       0.000134      0.001200     YES
         Energy change     -0.000000      0.000001     YES


 New Cartesian Coordinates Obtained by Inverse Iteration

 Displacement from previous Coordinates is:  0.000343
 ----------------------------------------------------------------
             Standard Nuclear Orientation (Angstroms)
    I     Atom           X                Y                Z
 ----------------------------------------------------------------
    1      C       1.5262957913     0.6136739264    -0.4650169551
    2      C       0.1600737586    -0.9909179551     0.1758882791
    3      C      -1.2457316191    -1.0203329504     0.2327119329
    4      C      -1.6897314264     0.2845435271     0.5748029694
    5      C      -0.5837948086     1.0891698906     0.7415359908
    6      N       0.5739651281     0.3313355522     0.5752743947
    7      H       2.1861888103     1.4759968593    -0.3973042306
    8      H       0.8036727333    -1.8256845664     0.4301929459
    9      H      -1.8653877841    -1.8982966683     0.1053484984
   10      H      -2.7180973974     0.5935213276     0.7178410443
   11      H      -0.5181794239     2.1551783193     0.9130901090
   12      C       1.3784261887    -0.3672362114    -1.3475018027
   13      H       1.9454203091    -0.6796593679    -2.2214024380
 ----------------------------------------------------------------
 Nuclear Repulsion Energy =   270.4606611410 hartrees
 There are       25 alpha and       24 beta electrons
 Applying Cartesian multipole field
    Component          Value
    ---------          -----
     (2,0,0)        1.00000E-11
     (0,2,0)        2.00000E-11
     (0,0,2)       -3.00000E-11
 Nucleus-field energy     =     0.0000000026 hartrees
 Requested basis set is 6-31G(d)
 There are 40 shells and 117 basis functions
 A cutoff of  1.0D-14 yielded    801 shell pairs
 There are      7073 function pairs
 Smallest overlap matrix eigenvalue = 1.10E-03
 Guess MOs from SCF MO coefficient file
 Reading MOs from coefficient file
 Reading MOs from coefficient file
 An unrestricted hybrid HF-DFT SCF calculation will be
 performed using Pulay DIIS extrapolation
 Exchange:     0.2000 Hartree-Fock + 0.0800 Slater + 0.7200 B88
 Correlation:  0.1900 VWN1RPA + 0.8100 LYP
 Using SG-1 standard quadrature grid
 SCF converges when DIIS error is below 1.0E-08
 Geometry optimization detected.  Setting ReadMinima to 0
 Setting SaveMinima to 0
Using Q-Chem read-in guess as SCF_GUESS READ specified.

 using 4 threads for integral computing
 -------------------------------------------------------
 OpenMP Integral computing Module                
 Release: version 1.0, May 2013, Q-Chem Inc. Pittsburgh 
 -------------------------------------------------------
 -------------------------------------------------------
 OpenMP BLAS3 based DFT computing Module                
 Release: version 1.0, May 2013, Q-Chem Inc. Pittsburgh 
 -------------------------------------------------------
 ---------------------------------------
  Cycle       Energy         DIIS Error
 ---------------------------------------
    1    -286.8304291181      1.81E-06
    2    -286.8304338301      4.08E-07
    3    -286.8304338294      7.51E-07
    4    -286.8304338304      1.09E-07
    5    -286.8304338305      3.84E-08
    6    -286.8304338305      9.79E-09 Convergence criterion met
 ---------------------------------------
 <S^2> = 0.7817
 SCF time:  CPU 15.47 s  wall 12.31 s
 SCF   energy in the final basis set = -286.83043383
 Total energy in the final basis set = -286.83043383
 
 --------------------------------------------------------------
 
                    Orbital Energies (a.u.)
 --------------------------------------------------------------
 
 Alpha MOs
 -- Occupied --
-14.366 -10.226 -10.218 -10.217 -10.188 -10.188 -10.186  -0.983
 -0.808  -0.739  -0.698  -0.600  -0.571  -0.544  -0.507  -0.481
 -0.423  -0.410  -0.401  -0.389  -0.357  -0.292  -0.274  -0.234
 -0.159
 -- Virtual --
  0.007   0.029   0.074   0.121   0.141   0.152   0.160   0.163
  0.169   0.199   0.220   0.264   0.325   0.369   0.389   0.452
  0.490   0.523   0.535   0.558   0.572   0.581   0.588   0.593
  0.601   0.640   0.658   0.671   0.684   0.767   0.794   0.806
  0.815   0.836   0.838   0.868   0.878   0.887   0.907   0.940
  0.973   0.986   1.041   1.102   1.119   1.159   1.225   1.266
  1.399   1.434   1.456   1.466   1.477   1.532   1.624   1.694
  1.772   1.815   1.855   1.917   1.958   1.984   1.989   2.009
  2.022   2.071   2.153   2.170   2.211   2.253   2.283   2.300
  2.381   2.391   2.441   2.608   2.635   2.653   2.679   2.733
  2.777   2.829   2.945   2.987   3.001   4.043   4.133   4.144
  4.175   4.289   4.428   4.526
 
 Beta MOs
 -- Occupied --
-14.364 -10.228 -10.218 -10.214 -10.189 -10.181 -10.178  -0.978
 -0.802  -0.731  -0.693  -0.590  -0.567  -0.540  -0.502  -0.474
 -0.416  -0.406  -0.398  -0.386  -0.350  -0.281  -0.246  -0.221
 -- Virtual --
 -0.065   0.019   0.039   0.090   0.124   0.143   0.157   0.161
  0.168   0.172   0.202   0.225   0.269   0.328   0.375   0.393
  0.463   0.496   0.528   0.542   0.562   0.578   0.587   0.591
  0.598   0.611   0.647   0.667   0.680   0.688   0.770   0.799
  0.808   0.817   0.838   0.841   0.873   0.881   0.895   0.913
  0.944   0.981   0.991   1.046   1.108   1.124   1.163   1.228
  1.273   1.405   1.439   1.462   1.472   1.485   1.542   1.630
  1.709   1.789   1.823   1.866   1.924   1.967   1.989   1.992
  2.014   2.033   2.084   2.160   2.175   2.219   2.264   2.294
  2.305   2.389   2.399   2.448   2.615   2.640   2.658   2.684
  2.738   2.783   2.835   2.951   2.989   3.003   4.052   4.136
  4.153   4.181   4.295   4.434   4.529
 --------------------------------------------------------------
 
          Ground-State Mulliken Net Atomic Charges

     Atom                 Charge (a.u.)    Spin (a.u.)
  --------------------------------------------------------
      1 C                     0.016292      -0.084482
      2 C                    -0.013686      -0.156528
      3 C                    -0.148610       0.359635
      4 C                    -0.142891      -0.094705
      5 C                     0.016427       0.274041
      6 N                    -0.379537       0.068134
      7 H                     0.142556       0.018249
      8 H                     0.176329       0.021678
      9 H                     0.136896      -0.017336
     10 H                     0.137117       0.002199
     11 H                     0.150308      -0.014119
     12 C                    -0.225130       0.598628
     13 H                     0.133929       0.024606
  --------------------------------------------------------
  Sum of atomic charges =    -0.000000
  Sum of spin   charges =     1.000000

 -----------------------------------------------------------------
                    Cartesian Multipole Moments
 -----------------------------------------------------------------
    Charge (ESU x 10^10)
                 0.0000
    Dipole Moment (Debye)
         X      -0.0696      Y       0.4167      Z       0.1471
       Tot       0.4474
    Quadrupole Moments (Debye-Ang)
        XX     -37.5551     XY       0.6232     YY     -36.0852
        XZ      -1.8157     YZ       0.8251     ZZ     -43.2576
    Octopole Moments (Debye-Ang^2)
       XXX      -8.1590    XXY       2.1801    XYY      -0.2647
       YYY       3.4182    XXZ      -3.5407    XYZ      -0.9373
       YYZ       1.0485    XZZ       2.9243    YZZ      -0.1483
       ZZZ     -11.0044
    Hexadecapole Moments (Debye-Ang^3)
      XXXX    -394.8454   XXXY      -6.1404   XXYY     -95.3109
      XYYY      -7.9592   YYYY    -200.5832   XXXZ      66.2576
      XXYZ      -4.2767   XYYZ      25.0227   YYYZ     -16.5593
      XXZZ     -95.5452   XYZZ      -9.1322   YYZZ     -67.4569
      XZZZ      71.1775   YZZZ     -16.7805   ZZZZ    -176.9312
 -----------------------------------------------------------------
 Calculating analytic gradient of the SCF energy
 Gradient of SCF Energy
            1           2           3           4           5           6
    1  -0.0000070   0.0000009   0.0000025  -0.0000041  -0.0000056   0.0000005
    2   0.0000080  -0.0000055  -0.0000016  -0.0000067  -0.0000057   0.0000029
    3  -0.0000037  -0.0000028  -0.0000096  -0.0000094  -0.0000030   0.0000068
            7           8           9          10          11          12
    1  -0.0000013   0.0000040   0.0000057  -0.0000045  -0.0000107   0.0000096
    2   0.0000047   0.0000010  -0.0000069  -0.0000089  -0.0000028   0.0000100
    3   0.0000112   0.0000041  -0.0000031  -0.0000107   0.0000020   0.0000119
           13
    1   0.0000099
    2   0.0000113
    3   0.0000065
 Max gradient component =       1.185E-05
 RMS gradient           =       6.716E-06
 Gradient time:  CPU 7.79 s  wall 3.49 s
 Geometry Optimization Parameters
   NAtoms,    NIC,     NZ,  NCons,   NDum,   NFix, NCnnct, MaxDiis
       13      82       0       0       0       0       0       0

 Cartesian Hessian Update
 Hessian Updated using Powell/Murtagh-Sargent Update
**WARNING** Small Scalar Product
 Hessian Update Skipped this cycle


** GEOMETRY OPTIMIZATION IN DELOCALIZED INTERNAL COORDINATES **
   Searching for a Transition State

   Optimization Cycle:  78

                       Coordinates (Angstroms)
     ATOM                X               Y               Z
      1  C         1.5262957913    0.6136739264   -0.4650169551
      2  C         0.1600737586   -0.9909179551    0.1758882791
      3  C        -1.2457316191   -1.0203329504    0.2327119329
      4  C        -1.6897314264    0.2845435271    0.5748029694
      5  C        -0.5837948086    1.0891698906    0.7415359908
      6  N         0.5739651281    0.3313355522    0.5752743947
      7  H         2.1861888103    1.4759968593   -0.3973042306
      8  H         0.8036727333   -1.8256845664    0.4301929459
      9  H        -1.8653877841   -1.8982966683    0.1053484984
     10  H        -2.7180973974    0.5935213276    0.7178410443
     11  H        -0.5181794239    2.1551783193    0.9130901090
     12  C         1.3784261887   -0.3672362114   -1.3475018027
     13  H         1.9454203091   -0.6796593679   -2.2214024380
   Point Group: c1    Number of degrees of freedom:    33


   Energy is   -286.830433830

 Hessian Updated using Powell/Murtagh-Sargent Update
**WARNING** Small Scalar Product
 Hessian Update Skipped this cycle

 33 Hessian modes will be used to form the next step
  Hessian Eigenvalues:
    -0.150549    0.003684    0.013312    0.016598    0.019793    0.027412
     0.033317    0.044568    0.057326    0.071082    0.076005    0.097630
     0.111748    0.114074    0.119466    0.128416    0.166638    0.174713
     0.236856    0.261533    0.285733    0.310905    0.322638    0.324654
     0.341459    0.342309    0.360586    0.362754    0.401876    0.473863
     0.547789    0.671663    0.733581

 Transition State Search - Taking P-RFO Step
 Searching for Lamda that Maximizes Along the Lowest mode
 Value Taken    Lamda =   0.00000000
 Searching for Lamda that Minimizes Along All other modes
 Value Taken    Lamda =   0.00000000
 Step Taken.  Stepsize is  0.000153

                             Maximum     Tolerance    Cnvgd?
         Gradient           0.000007      0.000010     YES
         Displacement       0.000081      0.001200     YES
         Energy change     -0.000000      0.000001     YES


                       Distance Matrix (Angstroms)
             C (  1)   C (  2)   C (  3)   C (  4)   C (  5)   N (  6)
   C (  2)  2.202734
   C (  3)  3.292558  1.407261
   C (  4)  3.395936  2.282042  1.420164
   C (  5)  2.476762  2.280365  2.268714  1.377795
   N (  6)  1.438351  1.441933  2.292521  2.264180  1.393687
   H (  7)  1.087954  3.243356  4.290298  4.169809  3.019835  2.203503
   H (  8)  2.697046  1.084309  2.210803  3.269715  3.243205  2.174063
   H (  9)  4.258971  2.220542  1.082135  2.239650  3.312427  3.338043
   H ( 10)  4.406181  3.329869  2.237797  1.083265  2.191227  3.305562
   H ( 11)  2.907799  3.301729  3.328080  2.232991  1.081716  2.152511
   C ( 12)  1.327716  2.047945  3.132062  3.678813  3.214889  2.198233
   H ( 13)  2.221096  3.005220  4.040073  4.686446  4.278398  3.274813
             H (  7)   H (  8)   H (  9)   H ( 10)   H ( 11)   C ( 12)
   H (  8)  3.673854
   H (  9)  5.296583  2.689736
   H ( 10)  5.106303  4.282308  2.703963
   H ( 11)  3.080914  4.222292  4.347192  2.704909
   C ( 12)  2.225503  2.370150  3.870045  4.687238  3.882005
   H ( 13)  2.834106  3.106110  4.628294  5.657609  4.891899  1.087563

 
 Final energy is   -286.830433830463     


 ******************************
 **  OPTIMIZATION CONVERGED  **
 ******************************

                       Coordinates (Angstroms)
     ATOM                X               Y               Z
      1  C         1.5262957913    0.6136739264   -0.4650169551
      2  C         0.1600737586   -0.9909179551    0.1758882791
      3  C        -1.2457316191   -1.0203329504    0.2327119329
      4  C        -1.6897314264    0.2845435271    0.5748029694
      5  C        -0.5837948086    1.0891698906    0.7415359908
      6  N         0.5739651281    0.3313355522    0.5752743947
      7  H         2.1861888103    1.4759968593   -0.3973042306
      8  H         0.8036727333   -1.8256845664    0.4301929459
      9  H        -1.8653877841   -1.8982966683    0.1053484984
     10  H        -2.7180973974    0.5935213276    0.7178410443
     11  H        -0.5181794239    2.1551783193    0.9130901090
     12  C         1.3784261887   -0.3672362114   -1.3475018027
     13  H         1.9454203091   -0.6796593679   -2.2214024380

Z-matrix Print:
$molecule
0 2
N 
C  1 1.393687
H  2 1.081716 1 120.291241
C  2 1.377795 1 109.561207 3 176.685634 0
H  4 1.083265 2 125.412216 1 175.366612 0
C  4 1.420164 2 108.347902 1 -2.591375 0
H  6 1.082135 4 126.497600 2 175.309717 0
C  6 1.407261 4 107.628116 2 -0.793821 0
H  8 1.084309 6 124.567796 4 147.873115 0
C  1 1.438351 2 121.975826 3 -58.196726 0
H  10 1.087954 1 120.807951 2 73.594742 0
C  10 1.327716 1 105.186432 2 -107.764814 0
H  12 1.087563 10 133.492094 1 -170.076127 0
$end

 
 --------------------------------------------------------------
 
                    Orbital Energies (a.u.)
 --------------------------------------------------------------
 
 Alpha MOs
 -- Occupied --
-14.366 -10.226 -10.218 -10.217 -10.188 -10.188 -10.186  -0.983
 -0.808  -0.739  -0.698  -0.600  -0.571  -0.544  -0.507  -0.481
 -0.423  -0.410  -0.401  -0.389  -0.357  -0.292  -0.274  -0.234
 -0.159
 -- Virtual --
  0.007   0.029   0.074   0.121   0.141   0.152   0.160   0.163
  0.169   0.199   0.220   0.264   0.325   0.369   0.389   0.452
  0.490   0.523   0.535   0.558   0.572   0.581   0.588   0.593
  0.601   0.640   0.658   0.671   0.684   0.767   0.794   0.806
  0.815   0.836   0.838   0.868   0.878   0.887   0.907   0.940
  0.973   0.986   1.041   1.102   1.119   1.159   1.225   1.266
  1.399   1.434   1.456   1.466   1.477   1.532   1.624   1.694
  1.772   1.815   1.855   1.917   1.958   1.984   1.989   2.009
  2.022   2.071   2.153   2.170   2.211   2.253   2.283   2.300
  2.381   2.391   2.441   2.608   2.635   2.653   2.679   2.733
  2.777   2.829   2.945   2.987   3.001   4.043   4.133   4.144
  4.175   4.289   4.428   4.526
 
 Beta MOs
 -- Occupied --
-14.364 -10.228 -10.218 -10.214 -10.189 -10.181 -10.178  -0.978
 -0.802  -0.731  -0.693  -0.590  -0.567  -0.540  -0.502  -0.474
 -0.416  -0.406  -0.398  -0.386  -0.350  -0.281  -0.246  -0.221
 -- Virtual --
 -0.065   0.019   0.039   0.090   0.124   0.143   0.157   0.161
  0.168   0.172   0.202   0.225   0.269   0.328   0.375   0.393
  0.463   0.496   0.528   0.542   0.562   0.578   0.587   0.591
  0.598   0.611   0.647   0.667   0.680   0.688   0.770   0.799
  0.808   0.817   0.838   0.841   0.873   0.881   0.895   0.913
  0.944   0.981   0.991   1.046   1.108   1.124   1.163   1.228
  1.273   1.405   1.439   1.462   1.472   1.485   1.542   1.630
  1.709   1.789   1.823   1.866   1.924   1.967   1.989   1.992
  2.014   2.033   2.084   2.160   2.175   2.219   2.264   2.294
  2.305   2.389   2.399   2.448   2.615   2.640   2.658   2.684
  2.738   2.783   2.835   2.951   2.989   3.003   4.052   4.136
  4.153   4.181   4.295   4.434   4.529
 --------------------------------------------------------------
 
          Ground-State Mulliken Net Atomic Charges

     Atom                 Charge (a.u.)    Spin (a.u.)
  --------------------------------------------------------
      1 C                     0.016292      -0.084482
      2 C                    -0.013686      -0.156528
      3 C                    -0.148610       0.359635
      4 C                    -0.142891      -0.094705
      5 C                     0.016427       0.274041
      6 N                    -0.379537       0.068134
      7 H                     0.142556       0.018249
      8 H                     0.176329       0.021678
      9 H                     0.136896      -0.017336
     10 H                     0.137117       0.002199
     11 H                     0.150308      -0.014119
     12 C                    -0.225130       0.598628
     13 H                     0.133929       0.024606
  --------------------------------------------------------
  Sum of atomic charges =    -0.000000
  Sum of spin   charges =     1.000000

 -----------------------------------------------------------------
                    Cartesian Multipole Moments
 -----------------------------------------------------------------
    Charge (ESU x 10^10)
                 0.0000
    Dipole Moment (Debye)
         X      -0.0696      Y       0.4167      Z       0.1471
       Tot       0.4474
    Quadrupole Moments (Debye-Ang)
        XX     -37.5551     XY       0.6232     YY     -36.0852
        XZ      -1.8157     YZ       0.8251     ZZ     -43.2576
    Octopole Moments (Debye-Ang^2)
       XXX      -8.1590    XXY       2.1801    XYY      -0.2647
       YYY       3.4182    XXZ      -3.5407    XYZ      -0.9373
       YYZ       1.0485    XZZ       2.9243    YZZ      -0.1483
       ZZZ     -11.0044
    Hexadecapole Moments (Debye-Ang^3)
      XXXX    -394.8454   XXXY      -6.1404   XXYY     -95.3109
      XYYY      -7.9592   YYYY    -200.5832   XXXZ      66.2576
      XXYZ      -4.2767   XYYZ      25.0227   YYYZ     -16.5593
      XXZZ     -95.5452   XYZZ      -9.1322   YYZZ     -67.4569
      XZZZ      71.1775   YZZZ     -16.7805   ZZZZ    -176.9312
 -----------------------------------------------------------------
Archival summary:
1\1\c8-90\TS\ProcedureUnspecified\6-31G*\166(2)\hpark21\TueMar109:10:162022TueMar109:10:162022\0\\#,TS,ProcedureUnspecified,6-31G*,\\0,2\N\C,1,1.39369\H,2,1.08172,1,120.291\C,2,1.3778,1,109.561,3,176.686,0\H,4,1.08327,2,125.412,1,175.367,0\C,4,1.42016,2,108.348,1,-2.59138,0\H,6,1.08213,4,126.498,2,175.31,0\C,6,1.40726,4,107.628,2,-0.793821,0\H,8,1.08431,6,124.568,4,147.873,0\C,1,1.43835,2,121.976,3,-58.1967,0\H,10,1.08795,1,120.808,2,73.5947,0\C,10,1.32772,1,105.186,2,-107.765,0\H,12,1.08756,10,133.492,1,-170.076,0\\\@

 Total job time:  3679.34s(wall), 3622.02s(cpu) 
 Tue Mar  1 09:10:16 2022

        *************************************************************
        *                                                           *
        *  Thank you very much for using Q-Chem.  Have a nice day.  *
        *                                                           *
        *************************************************************


