
Running Job 1 of 1 qcts1.in
qchem qcts1.in_44865.0 ./qcts1.d/ 1
/home/leeping/opt/qchem/5.0.2-openmp/exe/qcprog.exe_s qcts1.in_44865.0 ./qcts1.d/
Check license passed

                  Welcome to Q-Chem
     A Quantum Leap Into The Future Of Chemistry


 Q-Chem 5.0, Q-Chem, Inc., Pleasanton, CA (2017)

 Yihan Shao,  Zhengting Gan,  E. Epifanovsky,  A. T. B. Gilbert,  M. Wormit,  
 J. Kussmann,  A. W. Lange,  A. Behn,  Jia Deng,  Xintian Feng,  D. Ghosh,  
 M. Goldey,  P. R. Horn,  L. D. Jacobson,  I. Kaliman,  T. Kus,  A. Landau,  
 Jie Liu,  E. I. Proynov,  R. M. Richard,  R. P. Steele,  E. J. Sundstrom,  
 H. L. Woodcock III,  P. M. Zimmerman,  D. Zuev,  B. Albrecht,  E. Alguire,  
 S. A. Baeppler,  D. Barton,  Z. Benda,  Y. A. Bernard,  E. J. Berquist,  
 K. B. Bravaya,  H. Burton,  D. Casanova,  Chun-Min Chang,  Yunqing Chen,  
 A. Chien,  K. D. Closser,  M. P. Coons,  S. Dasgupta,  A. L. Dempwolff,  
 M. Diedenhofen,  Hainam Do,  R. G. Edgar,  Po-Tung Fang,  S. Fatehi,  
 Qingguo Feng,  J. Fosso-Tande,  Qinghui Ge,  A. Ghysels,  G. Gidofalvi,  
 J. Gomes,  J. Gonthier,  A. Gunina,  M. W. D. Hanson-Heine,  
 P. H. P. Harbach,  A. W. Hauser,  J. E. Herr,  E. G. Hohenstein,  
 Z. C. Holden,  Kerwin Hui,  T.-C. Jagau,  Hyunjun Ji,  B. Kaduk,  
 K. Khistyaev,  Jaehoon Kim,  P. Klunzinger,  K. Koh,  D. Kosenkov,  
 L. Koulias,  T. Kowalczyk,  C. M. Krauter,  A. Kunitsa,  Ka Un Lao,  
 A. Laurent,  K. V. Lawler,  Joonho Lee,  D. Lefrancois,  S. Lehtola,  
 D. S. Levine,  Yi-Pei Li,  You-Sheng Lin,  Fenglai Liu,  E. Livshits,  
 A. Luenser,  P. Manohar,  E. Mansoor,  S. F. Manzer,  Shan-Ping Mao,  
 Yuezhi Mao,  N. Mardirossian,  A. V. Marenich,  T. Markovich,  
 L. A. Martinez-Martinez,  S. A. Maurer,  N. J. Mayhall,  S. C. McKenzie,  
 J.-M. Mewes,  A. F. Morrison,  J. W. Mullinax,  K. Nanda,  
 T. S. Nguyen-Beck,  R. Olivares-Amaya,  J. A. Parkhill,  T. M. Perrine,  
 F. Plasser,  S. Prager,  A. Prociuk,  E. Ramos,  D. R. Rehn,  F. Rob,  
 M. Schneider,  N. Sergueev,  S. M. Sharada,  S. Sharma,  D. W. Small,  
 T. Stauch,  T. Stein,  Yu-Chuan Su,  A. J. W. Thom,  A. Tkatchenko,  
 T. Tsuchimochi,  L. Vogt,  O. Vydrov,  M. A. Watson,  J. Wenzel,  
 M. de Wergifosse,  T. A. Wesolowski,  A. White,  J. Witte,  A. Yamada,  
 Jun Yang,  K. Yao,  S. Yeganeh,  S. R. Yost,  Zhi-Qiang You,  A. Zech,  
 Igor Ying Zhang,  Xing Zhang,  Yan Zhao,  Ying Zhu,  B. R. Brooks,  
 G. K. L. Chan,  C. J. Cramer,  M. S. Gordon,  W. J. Hehre,  A. Klamt,  
 M. W. Schmidt,  C. D. Sherrill,  D. G. Truhlar,  A. Aspuru-Guzik,  R. Baer,  
 A. T. Bell,  N. A. Besley,  Jeng-Da Chai,  R. A. DiStasio Jr.,  A. Dreuw,  
 B. D. Dunietz,  T. R. Furlani,  Chao-Ping Hsu,  Yousung Jung,  Jing Kong,  
 D. S. Lambrecht,  WanZhen Liang,  C. Ochsenfeld,  V. A. Rassolov,  
 L. V. Slipchenko,  J. E. Subotnik,  T. Van Voorhis,  J. M. Herbert,  
 A. I. Krylov,  P. M. W. Gill,  M. Head-Gordon

 Contributors to earlier versions of Q-Chem not listed above: 
 R. D. Adamson,  B. Austin,  J. Baker,  G. J. O. Beran,  K. Brandhorst,  
 S. T. Brown,  E. F. C. Byrd,  A. K. Chakraborty,  C.-L. Cheng,  
 Siu Hung Chien,  D. M. Chipman,  D. L. Crittenden,  H. Dachsel,  
 R. J. Doerksen,  A. D. Dutoi,  L. Fusti-Molnar,  W. A. Goddard III,  
 A. Golubeva-Zadorozhnaya,  S. R. Gwaltney,  G. Hawkins,  A. Heyden,  
 S. Hirata,  G. Kedziora,  F. J. Keil,  C. Kelley,  Jihan Kim,  R. A. King,  
 R. Z. Khaliullin,  P. P. Korambath,  W. Kurlancheek,  A. M. Lee,  M. S. Lee,  
 S. V. Levchenko,  Ching Yeh Lin,  D. Liotard,  R. C. Lochan,  I. Lotan,  
 P. E. Maslen,  N. Nair,  D. P. O'Neill,  D. Neuhauser,  E. Neuscamman,  
 C. M. Oana,  R. Olson,  B. Peters,  R. Peverati,  P. A. Pieniazek,  
 Y. M. Rhee,  J. Ritchie,  M. A. Rohrdanz,  E. Rosta,  N. J. Russ,  
 H. F. Schaefer III,  N. E. Schultz,  N. Shenvi,  A. C. Simmonett,  A. Sodt,  
 D. Stuck,  K. S. Thanthiriwatte,  V. Vanovschi,  Tao Wang,  A. Warshel,  
 C. F. Williams,  Q. Wu,  X. Xu,  W. Zhang

 Please cite Q-Chem as follows:
 Y. Shao et al., Mol. Phys. 113, 184-215 (2015)
 DOI: 10.1080/00268976.2014.952696

 Q-Chem 5.0.2 for Intel X86 EM64T Linux

 Parts of Q-Chem use Armadillo 5.200.1 (Boston Tea Smuggler).
 http://arma.sourceforge.net/

 Q-Chem begins on Tue Mar  1 09:11:22 2022  

Host: 
0

     Scratch files written to ./qcts1.d//
 Dec517 15110_ 26548  26544 5633   
Processing $rem in /home/leeping/opt/qchem/5.0.2-openmp/config/preferences.
 MEM_STATIC 2000
 MEM_TOTAL  8000
 SYMMETRY   OFF
 SYM_IGNORE TRUE 

Checking the input file for inconsistencies... 	...done.

--------------------------------------------------------------
User input:
--------------------------------------------------------------
$molecule
0 2
C        1.5262957913    0.6136739264   -0.4650169551
C        0.1600737586   -0.9909179551    0.1758882791
C       -1.2457316191   -1.0203329504    0.2327119329
C       -1.6897314264    0.2845435271    0.5748029694
C       -0.5837948086    1.0891698906    0.7415359908
N        0.5739651281    0.3313355522    0.5752743947
H        2.1861888103    1.4759968593   -0.3973042306
H        0.8036727333   -1.8256845664    0.4301929459
H       -1.8653877841   -1.8982966683    0.1053484984
H       -2.7180973974    0.5935213276    0.7178410443
H       -0.5181794239    2.1551783193    0.9130901090
C        1.3784261887   -0.3672362114   -1.3475018027
H        1.9454203091   -0.6796593679   -2.2214024380
$end

$rem
method                b3lyp
basis                 6-31g(d)
unrestricted          true
symmetry              off
sym_ignore            true
incdft                false
incfock               0
scf_convergence       8
thresh                14
jobtype               sp
scf_guess             read
scf_algorithm         diis
max_scf_cycles        100
$end

--------------------------------------------------------------
 ----------------------------------------------------------------
             Standard Nuclear Orientation (Angstroms)
    I     Atom           X                Y                Z
 ----------------------------------------------------------------
    1      C       1.5262957913     0.6136739264    -0.4650169551
    2      C       0.1600737586    -0.9909179551     0.1758882791
    3      C      -1.2457316191    -1.0203329504     0.2327119329
    4      C      -1.6897314264     0.2845435271     0.5748029694
    5      C      -0.5837948086     1.0891698906     0.7415359908
    6      N       0.5739651281     0.3313355522     0.5752743947
    7      H       2.1861888103     1.4759968593    -0.3973042306
    8      H       0.8036727333    -1.8256845664     0.4301929459
    9      H      -1.8653877841    -1.8982966683     0.1053484984
   10      H      -2.7180973974     0.5935213276     0.7178410443
   11      H      -0.5181794239     2.1551783193     0.9130901090
   12      C       1.3784261887    -0.3672362114    -1.3475018027
   13      H       1.9454203091    -0.6796593679    -2.2214024380
 ----------------------------------------------------------------
 Nuclear Repulsion Energy =   270.4606611416 hartrees
 There are       25 alpha and       24 beta electrons
 Requested basis set is 6-31G(d)
 There are 40 shells and 117 basis functions

 Total QAlloc Memory Limit   8000 MB
 Mega-Array Size      1956 MB
 MEM_STATIC part      2000 MB

                       Distance Matrix (Angstroms)
             C (  1)   C (  2)   C (  3)   C (  4)   C (  5)   N (  6)
   C (  2)  2.202734
   C (  3)  3.292558  1.407261
   C (  4)  3.395936  2.282042  1.420164
   C (  5)  2.476762  2.280365  2.268714  1.377795
   N (  6)  1.438351  1.441933  2.292521  2.264180  1.393687
   H (  7)  1.087954  3.243356  4.290298  4.169809  3.019835  2.203503
   H (  8)  2.697046  1.084309  2.210803  3.269715  3.243205  2.174063
   H (  9)  4.258971  2.220542  1.082135  2.239650  3.312427  3.338043
   H ( 10)  4.406181  3.329869  2.237797  1.083265  2.191227  3.305562
   H ( 11)  2.907799  3.301729  3.328080  2.232991  1.081716  2.152511
   C ( 12)  1.327716  2.047945  3.132062  3.678813  3.214889  2.198233
   H ( 13)  2.221096  3.005220  4.040073  4.686446  4.278398  3.274813
             H (  7)   H (  8)   H (  9)   H ( 10)   H ( 11)   C ( 12)
   H (  8)  3.673854
   H (  9)  5.296583  2.689736
   H ( 10)  5.106303  4.282308  2.703963
   H ( 11)  3.080914  4.222292  4.347192  2.704909
   C ( 12)  2.225503  2.370150  3.870045  4.687238  3.882005
   H ( 13)  2.834106  3.106110  4.628294  5.657609  4.891899  1.087563

 
 A cutoff of  1.0D-14 yielded    801 shell pairs
 There are      7073 function pairs
 
 -------------------------------------------------------
 OpenMP Integral Computing Module                       
 Release: version 1.0, May 2013, Q-Chem Inc. Pittsburgh 
 -------------------------------------------------------
 Integral Job Info:
 Integral job number is                      11
 Integral operator is                         1
 short-range coefficients                     0
 long-range coefficients              100000000
 Omega coefficients                           0
 if combine SR and LR in K                    0
 Integral screening is                        0
 Integral computing path is                   2
 max size of driver memory is            800000
 size of driver memory is                593474
 size of scratch memory is              2361544
 max col of scratch BK array               1296
 max len of scratch array in speh3          155
 max len of scratch index in speh4           18
 max int batch size is                      520
 min int batch size is                       52
 fixed nKL is                                52
 max L of basis functions is                  2
 order of int derivative is                   0
 number of shells is                         40
 number of basis is                         117
 number of cartesian basis is               117
 number of contracted shell pairs           801
 number of primitive shell pairs           3457
 maxK2 (contraction) of shell pair           36
 max number of K2 of shell pair               1
 max number of CS2 of shell pair             88
 max number of PS2 of shell pair            384
 mem total for path MDJ                  534060
 -------------------------------------------------------
 Smallest overlap matrix eigenvalue = 1.10E-03

 Scale SEOQF with 1.000000e-01/1.000000e-01/1.000000e-01

 Standard Electronic Orientation quadrupole field applied
 Nucleus-field energy     =     0.0000000026 hartrees
 Guess MOs from SCF MO coefficient file
 Reading MOs from coefficient file
 Reading MOs from coefficient file
 An unrestricted hybrid HF-DFT SCF calculation will be
 performed using Pulay DIIS extrapolation
 Exchange:     0.2000 Hartree-Fock + 0.0800 Slater + 0.7200 B88
 Correlation:  0.1900 VWN1RPA + 0.8100 LYP
 Using SG-1 standard quadrature grid
 SCF converges when DIIS error is below 1.0E-08
Using Q-Chem read-in guess as SCF_GUESS READ specified.

 using 4 threads for integral computing
 -------------------------------------------------------
 OpenMP Integral computing Module                
 Release: version 1.0, May 2013, Q-Chem Inc. Pittsburgh 
 -------------------------------------------------------
 -------------------------------------------------------
 OpenMP BLAS3 based DFT computing Module                
 Release: version 1.0, May 2013, Q-Chem Inc. Pittsburgh 
 -------------------------------------------------------
 ---------------------------------------
  Cycle       Energy         DIIS Error
 ---------------------------------------
    1    -286.8304338305      7.60E-09
    2    -286.8304338305      1.38E-08
    3    -286.8304338305      1.70E-09 Convergence criterion met
 ---------------------------------------
 <S^2> = 0.7817
 SCF time:  CPU 7.81 s  wall 10.69 s
 SCF   energy in the final basis set = -286.83043383
 Total energy in the final basis set = -286.83043383
 
 --------------------------------------------------------------
 
                    Orbital Energies (a.u.)
 --------------------------------------------------------------
 
 Alpha MOs
 -- Occupied --
-14.366 -10.226 -10.218 -10.217 -10.188 -10.188 -10.186  -0.983
 -0.808  -0.739  -0.698  -0.600  -0.571  -0.544  -0.507  -0.481
 -0.423  -0.410  -0.401  -0.389  -0.357  -0.292  -0.274  -0.234
 -0.159
 -- Virtual --
  0.007   0.029   0.074   0.121   0.141   0.152   0.160   0.163
  0.169   0.199   0.220   0.264   0.325   0.369   0.389   0.452
  0.490   0.523   0.535   0.558   0.572   0.581   0.588   0.593
  0.601   0.640   0.658   0.671   0.684   0.767   0.794   0.806
  0.815   0.836   0.838   0.868   0.878   0.887   0.907   0.940
  0.973   0.986   1.041   1.102   1.119   1.159   1.225   1.266
  1.399   1.434   1.456   1.466   1.477   1.532   1.624   1.694
  1.772   1.815   1.855   1.917   1.958   1.984   1.989   2.009
  2.022   2.071   2.153   2.170   2.211   2.253   2.283   2.300
  2.381   2.391   2.441   2.608   2.635   2.653   2.679   2.733
  2.777   2.829   2.945   2.987   3.001   4.043   4.133   4.144
  4.175   4.289   4.428   4.526
 
 Beta MOs
 -- Occupied --
-14.364 -10.228 -10.218 -10.214 -10.189 -10.181 -10.178  -0.978
 -0.802  -0.731  -0.693  -0.590  -0.567  -0.540  -0.502  -0.474
 -0.416  -0.406  -0.398  -0.386  -0.350  -0.281  -0.246  -0.221
 -- Virtual --
 -0.065   0.019   0.039   0.090   0.124   0.143   0.157   0.161
  0.168   0.172   0.202   0.225   0.269   0.328   0.375   0.393
  0.463   0.496   0.528   0.542   0.562   0.578   0.587   0.591
  0.598   0.611   0.647   0.667   0.680   0.688   0.770   0.799
  0.808   0.817   0.838   0.841   0.873   0.881   0.895   0.913
  0.944   0.981   0.991   1.046   1.108   1.124   1.163   1.228
  1.273   1.405   1.439   1.462   1.472   1.485   1.542   1.630
  1.709   1.789   1.823   1.866   1.924   1.967   1.989   1.992
  2.014   2.033   2.084   2.160   2.175   2.219   2.264   2.294
  2.305   2.389   2.399   2.448   2.615   2.640   2.658   2.684
  2.738   2.783   2.835   2.951   2.989   3.003   4.052   4.136
  4.153   4.181   4.295   4.434   4.529
 --------------------------------------------------------------
 
          Ground-State Mulliken Net Atomic Charges

     Atom                 Charge (a.u.)    Spin (a.u.)
  --------------------------------------------------------
      1 C                     0.016292      -0.084484
      2 C                    -0.013686      -0.156528
      3 C                    -0.148610       0.359633
      4 C                    -0.142892      -0.094703
      5 C                     0.016427       0.274039
      6 N                    -0.379536       0.068134
      7 H                     0.142556       0.018249
      8 H                     0.176329       0.021678
      9 H                     0.136896      -0.017336
     10 H                     0.137117       0.002199
     11 H                     0.150308      -0.014119
     12 C                    -0.225129       0.598631
     13 H                     0.133929       0.024606
  --------------------------------------------------------
  Sum of atomic charges =    -0.000000
  Sum of spin   charges =     1.000000

 -----------------------------------------------------------------
                    Cartesian Multipole Moments
 -----------------------------------------------------------------
    Charge (ESU x 10^10)
                -0.0000
    Dipole Moment (Debye)
         X      -0.0696      Y       0.4167      Z       0.1471
       Tot       0.4474
    Quadrupole Moments (Debye-Ang)
        XX     -37.5551     XY       0.6232     YY     -36.0852
        XZ      -1.8157     YZ       0.8251     ZZ     -43.2576
    Octopole Moments (Debye-Ang^2)
       XXX      -8.1590    XXY       2.1801    XYY      -0.2647
       YYY       3.4182    XXZ      -3.5407    XYZ      -0.9373
       YYZ       1.0485    XZZ       2.9243    YZZ      -0.1483
       ZZZ     -11.0044
    Hexadecapole Moments (Debye-Ang^3)
      XXXX    -394.8454   XXXY      -6.1404   XXYY     -95.3109
      XYYY      -7.9592   YYYY    -200.5832   XXXZ      66.2576
      XXYZ      -4.2767   XYYZ      25.0227   YYYZ     -16.5592
      XXZZ     -95.5452   XYZZ      -9.1323   YYZZ     -67.4569
      XZZZ      71.1775   YZZZ     -16.7805   ZZZZ    -176.9312
 -----------------------------------------------------------------
Archival summary:
1\1\c8-90\SP\ProcedureUnspecified\6-31G*\166(2)\hpark21\TueMar109:11:482022TueMar109:11:482022\0\\#,ProcedureUnspecified,6-31G*,\\0,2\N\C,1,1.39369\H,2,1.08172,1,120.291\C,2,1.3778,1,109.561,3,176.686,0\H,4,1.08327,2,125.412,1,175.367,0\C,4,1.42016,2,108.348,1,-2.59138,0\H,6,1.08213,4,126.498,2,175.31,0\C,6,1.40726,4,107.628,2,-0.793821,0\H,8,1.08431,6,124.568,4,147.873,0\C,1,1.43835,2,121.976,3,-58.1967,0\H,10,1.08795,1,120.808,2,73.5947,0\C,10,1.32772,1,105.186,2,-107.765,0\H,12,1.08756,10,133.492,1,-170.076,0\\\@

 Total job time:  25.91s(wall), 9.64s(cpu) 
 Tue Mar  1 09:11:48 2022

        *************************************************************
        *                                                           *
        *  Thank you very much for using Q-Chem.  Have a nice day.  *
        *                                                           *
        *************************************************************


