13   
From qcopt_rct.out: Frame 2 / 2, Energy=    -286.9243464889
C        1.3474869406    0.8471001124   -0.5697777411
C        0.2490375546   -1.4171812593   -0.2303871444
C       -0.9302069982   -1.0642963781    0.3547474483
C       -1.3746982504    0.2693859506    0.6698884406
C       -0.7127301464    1.4634708896    0.4556439758
N        0.4884936252    1.7744687665   -0.0859559543
H        2.2580764442    1.3017070838   -0.9663872920
H        0.4252343762   -2.4780783497   -0.3966659290
H       -1.6166538675   -1.8670772986    0.6162310157
H       -2.3528024560    0.3518423940    1.1377209736
H       -1.2544346136    2.3530580177    0.7845821709
C        1.3014918557   -0.5316964602   -0.6593645415
H        2.1717055355   -1.0027034685   -1.1102754222
13   
From qcopt_prd.out: Frame 2 / 2, Energy=    -286.8723883492
C        1.5318036026    0.2376704625   -0.7051446845
C       -0.2663822870   -1.2891438191    0.0244490077
C       -1.4968454115   -1.1576114542    0.6171748834
C       -1.7176875461    0.2385673433    0.8317602775
C       -0.6162002806    0.9098443364    0.3620420183
N        0.2780124456   -0.0237771152   -0.1326696085
H        2.0512690981   -0.6709624628   -1.0213829841
H        0.2796264255   -2.1623311283   -0.3036296638
H       -2.1671552187   -1.9674156180    0.8716009903
H       -2.5902095825    0.6943491784    1.2804741772
H       -0.3749725142    1.9618162106    0.3294628536
C        2.0836501416    1.4231165387   -0.8718502313
H        3.0050911270    1.8058775279   -1.2822870359
