13   
From optimize.out: Frame 2 / 3, Energy=    -286.9243457448
C        1.3472515847    0.8471269015   -0.5704831078
C        0.2493269033   -1.4171693927   -0.2298456718
C       -0.9303587591   -1.0642376942    0.3544671919
C       -1.3751082017    0.2694510511    0.6690993065
C       -0.7124542785    1.4634158877    0.4565457979
N        0.4890174313    1.7744295363   -0.0849378111
H        2.2578093568    1.3015884455   -0.9674658055
H        0.4258924868   -2.4781684505   -0.3950965960
H       -1.6167315406   -1.8670413326    0.6160883127
H       -2.3535799602    0.3520229829    1.1361447548
H       -1.2541165101    2.3528849344    0.7859345114
C        1.3014963144   -0.5317091505   -0.6595939709
H        2.1715551728   -1.0025937188   -1.1108569119
