13   
From optimize.out: Frame 1 / 2, Energy=    -286.8516580738
C        1.1257872283    0.1915103642    0.4753344904
C        0.8530562582   -0.9771834436   -0.4844585579
C       -0.4708821211   -0.9917798802   -0.7112761441
C       -1.0733753324    0.1689504635    0.1058247809
C       -0.4268768735    1.4516272469   -0.4559746898
N        0.8343480124    1.4888641751   -0.2636226176
H        2.1013688013    0.2175611497    0.9584965789
H        1.6121067179   -1.6257873646   -0.9077038328
H       -1.0351172358   -1.6489404257   -1.3639214750
H       -2.1544426050    0.1672496931    0.2459404249
H       -0.9623959612    2.2384269214   -0.9846100443
C       -0.1373892975    0.0439136282    1.3126277610
H       -0.2661875919   -0.7244125280    2.0733433255
13   
From optimize.out: Frame 23 / 24, Energy=    -286.8516580738
C        1.1257872283    0.1915103642    0.4753344904
C        0.8530562582   -0.9771834436   -0.4844585579
C       -0.4708821211   -0.9917798802   -0.7112761441
C       -1.0733753324    0.1689504635    0.1058247809
C       -0.4268768735    1.4516272469   -0.4559746898
N        0.8343480124    1.4888641751   -0.2636226176
H        2.1013688013    0.2175611497    0.9584965789
H        1.6121067179   -1.6257873646   -0.9077038328
H       -1.0351172358   -1.6489404257   -1.3639214750
H       -2.1544426050    0.1672496931    0.2459404249
H       -0.9623959612    2.2384269214   -0.9846100443
C       -0.1373892975    0.0439136282    1.3126277610
H       -0.2661875919   -0.7244125280    2.0733433255
13   
From optimize.out: Frame 22 / 24, Energy=    -286.8516562724
C        1.1217173849    0.1858537413    0.4719361817
C        0.8522744501   -0.9760038480   -0.4937640524
C       -0.4683157951   -0.9924868693   -0.7299308376
C       -1.0748936886    0.1626118570    0.1020438600
C       -0.4301311118    1.4510635250   -0.4569003025
N        0.8245545306    1.5006743092   -0.2476963496
H        2.1006198673    0.2090705051    0.9486393268
H        1.6100228217   -1.6364469781   -0.9004894784
H       -1.0272012759   -1.6641820319   -1.3719614089
H       -2.1555780377    0.1676253582    0.2458784871
H       -0.9581184880    2.2491813448   -0.9758966534
C       -0.1318824858    0.0456379210    1.3146382246
H       -0.2630681717   -0.7025988343    2.0935030025
13   
From optimize.out: Frame 22 / 24, Energy=    -286.8516562724
C        1.1293852620    0.1815108727    0.4622605828
C        0.8561891368   -0.9921760620   -0.4782812654
C       -0.4669477867   -0.9992365113   -0.7059053579
C       -1.0805970258    0.1632474571    0.0840666812
C       -0.4342145703    1.4578516779   -0.4612221667
N        0.8253734111    1.4935838213   -0.2620767839
H        2.1061616937    0.2381230888    0.9385366688
H        1.6138153203   -1.6523491919   -0.8831321092
H       -1.0296131418   -1.6590907702   -1.3580856751
H       -2.1602718232    0.1610635085    0.2292099106
H       -0.9594687935    2.2849120995   -0.9359732442
C       -0.1323459577    0.0351262719    1.2945292449
H       -0.2674657246   -0.7125662623    2.0760735142
13   
From optimize.out: Frame 21 / 24, Energy=    -286.8516375257
C        1.1235660866    0.1872708649    0.4658724636
C        0.8487434945   -0.9963536181   -0.4715342649
C       -0.4703894338   -0.9988286327   -0.7185382317
C       -1.0776292619    0.1614323044    0.0882331692
C       -0.4440533592    1.4547878328   -0.4668164727
N        0.8149256813    1.4916795536   -0.2710436790
H        2.1126824228    0.2573739720    0.9114086799
H        1.6014329983   -1.6965210573   -0.8169606764
H       -1.0165852600   -1.6254203676   -1.4146928190
H       -2.1572775699    0.1514563177    0.2390057953
H       -0.9682812027    2.2947855590   -0.9180582365
C       -0.1158207083    0.0273559558    1.2922393695
H       -0.2513138876   -0.7090186845    2.0808849026
13   
From optimize.out: Frame 20 / 24, Energy=    -286.8516119950
C        1.1300445551    0.1806660631    0.4651078056
C        0.8591641830   -1.0005763176   -0.4925278131
C       -0.4652568403   -1.0061221584   -0.7226989289
C       -1.0772932947    0.1575408265    0.1078961522
C       -0.4547404995    1.4344930192   -0.4815489441
N        0.8014861219    1.4801436520   -0.2624685998
H        2.1311272233    0.2678375332    0.8827339569
H        1.6009480547   -1.7282071238   -0.7979386871
H       -1.0121659810   -1.5650778778   -1.4727250909
H       -2.1614266760    0.1264092454    0.2381639474
H       -0.9696535621    2.2891190864   -0.9126452396
C       -0.1189087430    0.0385046752    1.3216820330
H       -0.2633245414   -0.6747306233    2.1269694085
13   
From optimize.out: Frame 19 / 24, Energy=    -286.8515658299
C        1.1285329962    0.1834516856    0.4470558707
C        0.8747730068   -1.0058021600   -0.5002128323
C       -0.4567715346   -1.0292796769   -0.7157507561
C       -1.0883120427    0.1725709030    0.1271786762
C       -0.4714990626    1.4229245913   -0.4975443734
N        0.7926199369    1.4586403124   -0.2904527907
H        2.1292932711    0.2898827147    0.8636895251
H        1.6032428229   -1.7770471010   -0.7203984940
H       -1.0038891253   -1.4908346821   -1.5280955509
H       -2.1717769344    0.1024142085    0.2518375330
H       -0.9739469295    2.3090802159   -0.8775655798
C       -0.1061325044    0.0328686425    1.3122329133
H       -0.2561339004   -0.6688696539    2.1280258588
13   
From optimize.out: Frame 19 / 24, Energy=    -286.8515658299
C        1.1513530207    0.2019176776    0.4261597003
C        0.8611932645   -1.0220148621   -0.4569239832
C       -0.4777870283   -1.0053345767   -0.7171602040
C       -1.0699685333    0.1651938100    0.1094371342
C       -0.4867391390    1.4293369664   -0.4966133443
N        0.7804641396    1.4741002850   -0.2853072847
H        2.1514193099    0.3084337661    0.8437551310
H        1.5669127339   -1.8278180375   -0.6219191357
H       -1.0175036584   -1.4282924949   -1.5538530899
H       -2.1528026698    0.0549066395    0.2171687079
H       -1.0003224987    2.3168004553   -0.8591093868
C       -0.0842064705    0.0225691178    1.2943843238
H       -0.2220124705   -0.6897987465    2.0999814314
13   
From optimize.out: Frame 18 / 24, Energy=    -286.8514974168
C        1.1682419698    0.2175856610    0.3824972939
C        0.8495526153   -1.0268618879   -0.4293102989
C       -0.4922020701   -1.0234153142   -0.7406462440
C       -1.0635919658    0.1733086676    0.1161299491
C       -0.4987435635    1.4286418435   -0.4907687372
N        0.7706975745    1.4833974872   -0.2770837410
H        2.1654690023    0.2981808397    0.8100972971
H        1.5530168199   -1.8493864900   -0.5302188975
H       -1.0107954772   -1.4072502252   -1.6110732146
H       -2.1425608598    0.0302066285    0.2170509660
H       -1.0115381230    2.3267220175   -0.8308049938
C       -0.0738285545    0.0304311999    1.2885083398
H       -0.2137173679   -0.6815604276    2.0956222810
13   
From optimize.out: Frame 17 / 24, Energy=    -286.8511511751
C        1.1848439313    0.2375962750    0.3335883740
C        0.8296797760   -1.0232150358   -0.3919450386
C       -0.5016142018   -1.0354179718   -0.7622626947
C       -1.0632592240    0.1814811104    0.1207609689
C       -0.5059360671    1.4261501484   -0.4876322921
N        0.7670235491    1.4914839959   -0.2831824223
H        2.1756362609    0.2944542195    0.7784233300
H        1.5253593087   -1.8600074201   -0.4218400878
H       -0.9932969731   -1.4015531415   -1.6586659574
H       -2.1354428213    0.0152162438    0.2311335063
H       -1.0150412539    2.3397801796   -0.7931392699
C       -0.0621370189    0.0256368730    1.2639804256
H       -0.2058152659   -0.6916054765    2.0707811580
13   
From optimize.out: Frame 17 / 24, Energy=    -286.8511511751
C        1.1989978054    0.2566753126    0.2881509959
C        0.8018158483   -1.0207689950   -0.3463692554
C       -0.5101969446   -1.0280647552   -0.7714138494
C       -1.0552955076    0.1839875763    0.1108418692
C       -0.5099537669    1.4301475050   -0.4856684410
N        0.7628392056    1.5046924322   -0.2892078629
H        2.1801395019    0.3020271742    0.7542027036
H        1.4762463439   -1.8767139954   -0.3045018900
H       -0.9794730427   -1.3920485717   -1.6832817635
H       -2.1189947811   -0.0122452222    0.2278949145
H       -1.0215526579    2.3559469600   -0.7519981353
C       -0.0419909803    0.0139494342    1.2257510361
H       -0.1825810240   -0.7175848550    2.0255996781
13   
From optimize.out: Frame 16 / 24, Energy=    -286.8509243224
C        1.2156274279    0.2643892688    0.2316737270
C        0.7805420481   -1.0188825308   -0.3182050775
C       -0.5109223569   -1.0258573373   -0.7728344062
C       -1.0459720503    0.1863839271    0.0998511446
C       -0.5099323936    1.4368152261   -0.4758674911
N        0.7560898035    1.5182054159   -0.2746590308
H        2.1875095717    0.2990699895    0.7173207415
H        1.4357049998   -1.8876202070   -0.2165698617
H       -0.9686532334   -1.3903547622   -1.6934333150
H       -2.0998968099   -0.0508530140    0.2040631296
H       -1.0253399359    2.3710666374   -0.7084685188
C       -0.0353178998    0.0202246707    1.2058707425
H       -0.1794391712   -0.7225872843    2.0012582159
13   
From optimize.out: Frame 15 / 24, Energy=    -286.8495260980
C        1.2644800733    0.2655662624    0.1697973268
C        0.7954517471   -1.0159077684   -0.3176052627
C       -0.4951864003   -1.0252043112   -0.7523282226
C       -1.0639743239    0.1831293892    0.0956782229
C       -0.5080247275    1.4314386342   -0.4559515984
N        0.7571331792    1.5163681657   -0.2541554962
H        2.2428766710    0.3004763866    0.6419762535
H        1.4474507444   -1.8870435314   -0.2040305484
H       -0.9680155472   -1.3823826722   -1.6697356016
H       -2.1142441320   -0.0733384471    0.1693263917
H       -1.0160870826    2.3739909329   -0.6729217624
C       -0.0832092685    0.0275363583    1.2267487682
H       -0.2586509331   -0.7146293991    2.0232015293
13   
From optimize.out: Frame 14 / 24, Energy=    -286.8484613114
C        1.2847241074    0.2704064089    0.1245136588
C        0.8119475823   -1.0149886287   -0.3186887051
C       -0.4825043334   -1.0558355709   -0.7077698141
C       -1.0792363865    0.1975358196    0.0823267160
C       -0.4983104379    1.4468423494   -0.4304732331
N        0.7551574286    1.5182058943   -0.2431349379
H        2.2751145057    0.3161910998    0.5695065885
H        1.4812882293   -1.8747481454   -0.2106824700
H       -0.9740651958   -1.4278128397   -1.6125633774
H       -2.1278582559   -0.0614474787    0.1299634921
H       -0.9898721658    2.4024844824   -0.6267541534
C       -0.1241661422    0.0177489260    1.2304249171
H       -0.3322189357   -0.7345823170    2.0133313186
13   
From optimize.out: Frame 14 / 24, Energy=    -286.8484613114
C        1.3057213882    0.2746530100    0.0788334660
C        0.8292250352   -1.0145066231   -0.3197491167
C       -0.4685705084   -1.0842763469   -0.6637553694
C       -1.0956366830    0.2111238917    0.0694974995
C       -0.4892251976    1.4609317141   -0.4052871142
N        0.7527823541    1.5189786450   -0.2321630695
H        2.3078602005    0.3317455533    0.4969289033
H        1.5149030503   -1.8635860875   -0.2166941202
H       -0.9795585369   -1.4691355301   -1.5561244633
H       -2.1426634807   -0.0503889930    0.0914102127
H       -0.9640012516    2.4296068191   -0.5812616178
C       -0.1652916390    0.0083196165    1.2341671143
H       -0.4055447312   -0.7534656690    2.0041976754
13   
From optimize.out: Frame 13 / 24, Energy=    -286.8455816218
C        1.3425350552    0.2664365704    0.0248271971
C        0.8629145999   -1.0232033915   -0.3203259354
C       -0.4283527444   -1.0667221808   -0.6311628691
C       -1.1359371799    0.2075283880    0.0676351351
C       -0.4933484927    1.4474228498   -0.3862374711
N        0.7420224288    1.4973893953   -0.2222135728
H        2.3512697469    0.3439349319    0.4220830505
H        1.5438424613   -1.8762212181   -0.2092615959
H       -0.9733707450   -1.4242109820   -1.5150833155
H       -2.1824789855   -0.0568106622    0.0698570299
H       -0.9453535713    2.4279369538   -0.5499440136
C       -0.2099578176    0.0064100314    1.2392961683
H       -0.4737847558   -0.7498906858    2.0105301926
13   
From optimize.out: Frame 12 / 24, Energy=    -286.8405214169
C        1.3510062271    0.2669005496    0.0213406079
C        0.8465551668   -1.0179618953   -0.3185245905
C       -0.4394751933   -1.0418889357   -0.6541439808
C       -1.1269723352    0.1856634948    0.0700880856
C       -0.4900959004    1.4318672799   -0.3868649574
N        0.7481542572    1.4964623101   -0.2125468580
H        2.3532029680    0.3389045479    0.4315824263
H        1.5091598115   -1.8804782443   -0.1892520167
H       -0.9741411603   -1.3849069238   -1.5451200917
H       -2.1670850880   -0.1059005040    0.0667063779
H       -0.9510078538    2.4049062528   -0.5557276345
C       -0.2000012280    0.0280452210    1.2453536266
H       -0.4592996715   -0.7216131530    2.0271090053
13   
From optimize.out: Frame 12 / 24, Energy=    -286.8405214169
C        1.3476713763    0.2709803439    0.0388979135
C        0.8093479008   -1.0069144366   -0.3157326252
C       -0.4719833289   -1.0140236015   -0.7002741948
C       -1.0974860882    0.1561885155    0.0743385739
C       -0.4837708937    1.4154591581   -0.3956889217
N        0.7613223196    1.5041420177   -0.2029979356
H        2.3378592897    0.3267012983    0.4762156771
H        1.4479754902   -1.8812453840   -0.1640034847
H       -0.9778100061   -1.3479440720   -1.6047642676
H       -2.1286937992   -0.1727637072    0.0712212719
H       -0.9667850816    2.3729777286   -0.5769657135
C       -0.1672916085    0.0594879504    1.2517978103
H       -0.4103555705   -0.6830458111    2.0479558966
13   
From optimize.out: Frame 11 / 24, Energy=    -286.8332354354
C        1.3443365255    0.2750601383    0.0564552191
C        0.7721406347   -0.9958669778   -0.3129406600
C       -0.5044914644   -0.9861582672   -0.7464044089
C       -1.0679998412    0.1267135363    0.0785890622
C       -0.4774458869    1.3990510362   -0.4045128860
N        0.7744903821    1.5118217252   -0.1934490133
H        2.3225156114    0.3144980487    0.5208489280
H        1.3867911689   -1.8820125237   -0.1387549527
H       -0.9814788519   -1.3109812202   -1.6644084436
H       -2.0903025103   -0.2396269104    0.0757361659
H       -0.9825623093    2.3410492044   -0.5982037926
C       -0.1345819890    0.0909306797    1.2582419939
H       -0.3614114695   -0.6444784693    2.0688027879
13   
From optimize.out: Frame 10 / 24, Energy=    -286.8230493891
C        1.3466052369    0.2770138441    0.0702388309
C        0.7419234242   -0.9888361688   -0.3140911716
C       -0.5309541607   -0.9693170506   -0.7951523772
C       -1.0477673226    0.1039287733    0.0866376052
C       -0.4741149121    1.3863583127   -0.4090083059
N        0.7886393278    1.5172390290   -0.1826182729
H        2.3138684877    0.3019538703    0.5585597536
H        1.3359227175   -1.8842978995   -0.1188834095
H       -0.9810121812   -1.2859387837   -1.7242063625
H       -2.0619310525   -0.2975755896    0.0857942662
H       -0.9968770353    2.3152422755   -0.6135783717
C       -0.1104093634    0.1257678542    1.2656113146
H       -0.3238931662   -0.6015384670    2.0906965009
13   
From optimize.out: Frame 9 / 24, Energy=    -286.8090541289
C        1.3817946870    0.2664768517    0.0618521196
C        0.7527725533   -1.0054030408   -0.3384036018
C       -0.5219001063   -1.0172421517   -0.8592795630
C       -1.0819001446    0.1204488048    0.1169995916
C       -0.4883737738    1.3954934289   -0.3880736744
N        0.8085509298    1.5093647879   -0.1642568956
H        2.3445633956    0.2874067470    0.5556015653
H        1.3456596522   -1.8955028605   -0.1306014940
H       -0.9562494912   -1.3309283839   -1.7849075160
H       -2.0924257634   -0.3031517415    0.1284185159
H       -1.0025996127    2.3253995109   -0.5945050875
C       -0.1363912878    0.1805472794    1.2784157836
H       -0.3535010380   -0.5329092322    2.1187402562
13   
From optimize.out: Frame 9 / 24, Energy=    -286.8090541289
C        1.4128541123    0.2628717289    0.0537660373
C        0.7654307573   -1.0164592243   -0.3478563608
C       -0.5175710451   -1.0561755482   -0.8772157592
C       -1.1090377760    0.1358866219    0.1220176899
C       -0.4987057810    1.4101902866   -0.3708792685
N        0.8239710672    1.5069544549   -0.1465989636
H        2.3765306675    0.2836943850    0.5422821914
H        1.3626197260   -1.9003111890   -0.1367961733
H       -0.9545275827   -1.3698629218   -1.7915081124
H       -2.1168674262   -0.3039782980    0.1339148081
H       -1.0051759101    2.3433213174   -0.5683297924
C       -0.1589906701    0.2087618686    1.2728607330
H       -0.3805301392   -0.5048934820    2.1143429706
13   
From optimize.out: Frame 8 / 24, Energy=    -286.7923231042
C        1.4369985221    0.2708728286    0.0461833062
C        0.7811179461   -1.0182887088   -0.3324291585
C       -0.5211531715   -1.0800538830   -0.8178130951
C       -1.1244631646    0.1495124573    0.0846018107
C       -0.5024629466    1.4341993230   -0.3599472266
N        0.8318710203    1.5136924954   -0.1301188297
H        2.4106282941    0.2981229656    0.5116147956
H        1.3916737026   -1.8944094573   -0.1337428618
H       -0.9913834964   -1.3986593005   -1.7075266392
H       -2.1311743020   -0.2968524745    0.0772467271
H       -1.0024843033    2.3742435615   -0.5302634028
C       -0.1759265676    0.1924982132    1.2365658273
H       -0.4032415332   -0.5448780205    2.0556287468
13   
From optimize.out: Frame 7 / 24, Energy=    -286.7734394401
C        1.4611429319    0.2788739283    0.0386005752
C        0.7968051348   -1.0201181933   -0.3170019563
C       -0.5247352980   -1.1039322178   -0.7584104310
C       -1.1398885532    0.1631382927    0.0471859314
C       -0.5062201121    1.4582083595   -0.3490151848
N        0.8397709734    1.5204305358   -0.1136386957
H        2.4447259206    0.3125515462    0.4809473998
H        1.4207276793   -1.8885077257   -0.1306895502
H       -1.0282394101   -1.4274556791   -1.6235451660
H       -2.1454811777   -0.2897266509    0.0205786461
H       -0.9997926966    2.4051658056   -0.4921970131
C       -0.1928624652    0.1762345577    1.2002709216
H       -0.4259529271   -0.5848625589    1.9969145230
13   
From optimize.out: Frame 7 / 24, Energy=    -286.7734394401
C        1.4852873417    0.2868750280    0.0310178441
C        0.8124923236   -1.0219476778   -0.3015747541
C       -0.5283174244   -1.1278105527   -0.6990077668
C       -1.1553139418    0.1767641281    0.0097700521
C       -0.5099772777    1.4822173959   -0.3380831429
N        0.8476709265    1.5271685763   -0.0971585618
H        2.4788235472    0.3269801268    0.4502800040
H        1.4497816559   -1.8826059940   -0.1276362386
H       -1.0650953239   -1.4562520578   -1.5395636928
H       -2.1597880534   -0.2826008274   -0.0360894348
H       -0.9971010898    2.4360880497   -0.4541306234
C       -0.2097983627    0.1599709022    1.1639760159
H       -0.4486643211   -0.6248470974    1.9382002992
13   
From optimize.out: Frame 6 / 24, Energy=    -286.7440823765
C        1.4997836007    0.2869912784    0.0198672061
C        0.8346794548   -1.0363387589   -0.2965192798
C       -0.5148044737   -1.1729213242   -0.6634495211
C       -1.1866796689    0.2080683818   -0.0076164062
C       -0.5186169440    1.5100050484   -0.3231409686
N        0.8485537257    1.5261951285   -0.0883815611
H        2.4996305283    0.3375850619    0.4211879973
H        1.4897675022   -1.8836389508   -0.1320842942
H       -1.0680105927   -1.5119379175   -1.4857780538
H       -2.1976419101   -0.2397995905   -0.0570410813
H       -0.9893861366    2.4725808739   -0.4098200052
C       -0.2270790050    0.1524098516    1.1331994472
H       -0.4701960807   -0.6491990825    1.8895765207
13   
From optimize.out: Frame 5 / 24, Energy=    -286.7106062759
C        1.5090875342    0.2828641556    0.0067964348
C        0.8603646468   -1.0574900888   -0.2970455371
C       -0.4920915004   -1.2294587126   -0.6407235771
C       -1.2266239751    0.2488865934   -0.0142236722
C       -0.5298842157    1.5398262310   -0.3060406696
N        0.8456601176    1.5210716049   -0.0837501397
H        2.5132849100    0.3461322337    0.3929438147
H        1.5356365303   -1.8884039346   -0.1405693451
H       -1.0526600943   -1.5820948341   -1.4482428450
H       -2.2481679971   -0.1777989896   -0.0587712876
H       -0.9789677794    2.5120716056   -0.3621489432
C       -0.2445451778    0.1495322641    1.1053926707
H       -0.4910929991   -0.6651381285    1.8463830965
13   
From optimize.out: Frame 4 / 24, Energy=    -286.7013606847
C        1.5183914677    0.2787370329   -0.0062743364
C        0.8860498388   -1.0786414187   -0.2975717944
C       -0.4693785272   -1.2859961011   -0.6179976331
C       -1.2665682814    0.2897048050   -0.0208309382
C       -0.5411514874    1.5696474136   -0.2889403705
N        0.8427665095    1.5159480813   -0.0791187183
H        2.5269392917    0.3546794054    0.3646996320
H        1.5815055584   -1.8931689184   -0.1490543961
H       -1.0373095960   -1.6522517506   -1.4107076362
H       -2.2986940842   -0.1157983888   -0.0605014939
H       -0.9685494221    2.5515623373   -0.3144778813
C       -0.2620113506    0.1466546765    1.0775858942
H       -0.5119899174   -0.6810771745    1.8031896723
13   
From optimize.out: Frame 4 / 24, Energy=    -286.7013606847
C        1.5276954012    0.2746099102   -0.0193451077
C        0.9117350307   -1.0997927486   -0.2980980518
C       -0.4466655539   -1.3425334895   -0.5952716891
C       -1.3065125876    0.3305230167   -0.0274382041
C       -0.5524187591    1.5994685962   -0.2718400715
N        0.8398729014    1.5108245577   -0.0744872970
H        2.5405936735    0.3632265771    0.3364554494
H        1.6273745864   -1.8979339022   -0.1575394470
H       -1.0219590976   -1.7224086672   -1.3731724274
H       -2.3492201712   -0.0537977880   -0.0622317002
H       -0.9581310648    2.5910530691   -0.2668068193
C       -0.2794775234    0.1437770889    1.0497791177
H       -0.5328868357   -0.6970162206    1.7599962481
13   
From optimize.out: Frame 3 / 24, Energy=    -286.6721216232
C        1.5369993347    0.2704827875   -0.0324158790
C        0.9374202227   -1.1209440785   -0.2986243091
C       -0.4239525806   -1.3990708779   -0.5725457451
C       -1.3464568939    0.3713412283   -0.0340454701
C       -0.5636860308    1.6292897788   -0.2547397724
N        0.8369792933    1.5057010342   -0.0698558756
H        2.5542480552    0.3717737489    0.3082112667
H        1.6732436145   -1.9026988860   -0.1660244980
H       -1.0066085993   -1.7925655838   -1.3356372186
H       -2.3997462582    0.0082028129   -0.0639619065
H       -0.9477127075    2.6305438008   -0.2191357574
C       -0.2969436962    0.1408995014    1.0219723412
H       -0.5537837540   -0.7129552666    1.7168028239
13   
From optimize.out: Frame 2 / 24, Energy=    -286.6491115880
C        1.5334611734    0.2659746420   -0.0353694800
C        0.9442123404   -1.1392692897   -0.3133260818
C       -0.4038092677   -1.4350211870   -0.5811308696
C       -1.3633334451    0.4034948132   -0.0446072781
C       -0.5747185269    1.6599775599   -0.2606991437
N        0.8340151290    1.5067963844   -0.0690791326
H        2.5482992107    0.3712873903    0.3212358478
H        1.6984041311   -1.9083153678   -0.1975375557
H       -0.9863109260   -1.8458273591   -1.3003514886
H       -2.4124451806    0.0364438575   -0.0318694654
H       -0.9378102648    2.6708835049   -0.2131210061
C       -0.3175986184    0.1438047977    1.0178309524
H       -0.5623657551   -0.7302297461    1.7080247014
13   
From optimize.out: Frame 2 / 24, Energy=    -286.6491115880
C        1.5107418190    0.2619366727   -0.0221120925
C        0.9294726413   -1.1496239365   -0.3421990454
C       -0.3833953853   -1.4393322429   -0.6215626239
C       -1.3473745315    0.4221333355   -0.0549049515
C       -0.5821085647    1.6904239620   -0.2912079300
N        0.8284226410    1.5186473114   -0.0719611524
H        2.5184325639    0.3591164672    0.3859228914
H        1.7014222529   -1.9158431812   -0.2600195702
H       -0.9768743803   -1.9028262157   -1.2948521547
H       -2.3697522687    0.0315452432    0.0413425955
H       -0.9318222804    2.7129613308   -0.2595473531
C       -0.3450298783    0.1500609021    1.0475542583
H       -0.5521346289   -0.7391996488    1.7435471285
13   
From optimize.out: Frame 1 / 24, Energy=    -286.5632287070
C        1.4932632222    0.2642391712   -0.0064872705
C        0.9083791375   -1.1400610343   -0.3513968582
C       -0.3882608951   -1.4089673389   -0.6486188373
C       -1.3129579759    0.4063797842   -0.0540637163
C       -0.5765198575    1.6868158211   -0.3126155571
N        0.8269946850    1.5289896517   -0.0739766091
H        2.4941597407    0.3500192777    0.4298092441
H        1.6769855484   -1.9150885121   -0.2789289106
H       -0.9910119291   -1.8984503576   -1.3243659694
H       -2.3196619024    0.0002208117    0.0706011290
H       -0.9374398535    2.7069399505   -0.3057775275
C       -0.3427011289    0.1515105885    1.0765758422
H       -0.5312287915   -0.7325478138    1.7792450408
13   
C5H5N+CH->C6H6N atoms 1-13 frame 114 charge +0.000 sz -1.000 sz^2 0.555
C        1.4807470699    0.2704244054    0.0085690002
C        0.8802522892   -1.1188098340   -0.3493462252
C       -0.4134306958   -1.3570196699   -0.6716886972
C       -1.2674519689    0.3674294713   -0.0492408913
C       -0.5642336214    1.6598608357   -0.3315120710
N        0.8297112555    1.5366632713   -0.0764404508
H        2.4738903065    0.3433604572    0.4611417495
H        1.6302482873   -1.9090154893   -0.2662346331
H       -1.0111526158   -1.8338134991   -1.3628432693
H       -2.2658271625   -0.0568290093    0.0712850682
H       -0.9499085162    2.6674247659   -0.3536372202
C       -0.3183445656    0.1519071688    1.1029801869
H       -0.5045000621   -0.7215828739    1.8169674533
13   
C5H5N+CH->C6H6N atoms 1-13 frame 115 charge -0.000 sz -1.000 sz^2 0.576
C        1.4682309176    0.2766096397    0.0236252710
C        0.8521254409   -1.0975586338   -0.3472955923
C       -0.4386004965   -1.3050720010   -0.6947585572
C       -1.2219459620    0.3284791583   -0.0444180662
C       -0.5519473853    1.6329058502   -0.3504085848
N        0.8324278260    1.5443368909   -0.0789042924
H        2.4536208722    0.3367016367    0.4924742549
H        1.5835110261   -1.9029424665   -0.2535403556
H       -1.0312933026   -1.7691766407   -1.4013205693
H       -2.2119924226   -0.1138788302    0.0719690075
H       -0.9623771788    2.6279095814   -0.4014969129
C       -0.2939880024    0.1523037491    1.1293845316
H       -0.4777713326   -0.7106179339    1.8546898658
13   
C5H5N+CH->C6H6N atoms 1-13 frame 115 charge -0.000 sz -1.000 sz^2 0.576
C        1.4557147653    0.2827948739    0.0386815417
C        0.8239985926   -1.0763074335   -0.3452449593
C       -0.4637702972   -1.2531243320   -0.7178284172
C       -1.1764399551    0.2895288454   -0.0395952411
C       -0.5396611492    1.6059508647   -0.3693050987
N        0.8351443964    1.5520105105   -0.0813681340
H        2.4333514379    0.3300428162    0.5238067604
H        1.5367737650   -1.8968694437   -0.2408460781
H       -1.0514339894   -1.7045397823   -1.4397978692
H       -2.1581576826   -0.1709286512    0.0726529467
H       -0.9748458415    2.5883943968   -0.4493566056
C       -0.2696314391    0.1527003293    1.1557888762
H       -0.4510426031   -0.6996529940    1.8924122783
13   
C5H5N+CH->C6H6N atoms 1-13 frame 116 charge +0.000 sz -1.000 sz^2 0.609
C        1.4431986130    0.2889801081    0.0537378124
C        0.7958717443   -1.0550562333   -0.3431943264
C       -0.4889400979   -1.2011766631   -0.7408982772
C       -1.1309339482    0.2505785324   -0.0347724161
C       -0.5273749130    1.5789958792   -0.3882016126
N        0.8378609669    1.5596841301   -0.0838319757
H        2.4130820037    0.3233839957    0.5551392658
H        1.4900365039   -1.8907964209   -0.2281518006
H       -1.0715746761   -1.6399029239   -1.4782751691
H       -2.1043229427   -0.2279784722    0.0733368860
H       -0.9873145042    2.5488792122   -0.4972162983
C       -0.2452748759    0.1530969096    1.1821932209
H       -0.4243138736   -0.6886880541    1.9301346908
13   
C5H5N+CH->C6H6N atoms 1-13 frame 117 charge -0.000 sz -1.000 sz^2 0.648
C        1.4306824606    0.2951653423    0.0687940832
C        0.7677448960   -1.0338050330   -0.3411436934
C       -0.5141098986   -1.1492289941   -0.7639681372
C       -1.0854279413    0.2116282195   -0.0299495910
C       -0.5150886769    1.5520408937   -0.4070981264
N        0.8405775374    1.5673577497   -0.0862958173
H        2.3928125694    0.3167251752    0.5864717712
H        1.4432992428   -1.8847233981   -0.2154575230
H       -1.0917153629   -1.5752660654   -1.5167524691
H       -2.0504882028   -0.2850282931    0.0740208252
H       -0.9997831669    2.5093640276   -0.5450759911
C       -0.2209183126    0.1534934898    1.2085975656
H       -0.3975851442   -0.6777231141    1.9678571033
13   
C5H5N+CH->C6H6N atoms 1-13 frame 117 charge -0.000 sz -1.000 sz^2 0.648
C        1.4171710772    0.2991132984    0.0756859471
C        0.7563021205   -1.0183361018   -0.3434161822
C       -0.5187030104   -1.1035402728   -0.7904158931
C       -1.0617272344    0.1860966029   -0.0065175466
C       -0.5048445198    1.5223961994   -0.4282096508
N        0.8384778208    1.5674025583   -0.1076639756
H        2.3718140693    0.3172460848    0.6064396416
H        1.4176981371   -1.8799439705   -0.2076784760
H       -1.0877207614   -1.5205379641   -1.5608639435
H       -2.0325671342   -0.2937449614    0.1060571125
H       -1.0038798295    2.4698323263   -0.5946979097
C       -0.2020030161    0.1344897680    1.2405570828