13   
From optimize.out: Frame 1 / 3, Energy=    -286.8754792730
C        0.0480530000   -0.2308180000   -0.0000000000
C       -0.1149110000    0.6931870000   -0.0000000000
C       -0.1938100000   -0.0540150000   -0.0000000000
C       -0.0761700000    0.0321390000    0.0000000000
C       -0.0612870000   -0.0277670000   -0.0000000000
N       -0.3514180000    0.5168250000   -0.0000000000
H        0.1405970000    0.0074370000   -0.0000000000
H        0.1434620000   -0.0321510000   -0.0000000000
H        0.1481010000    0.0252970000   -0.0000000000
H        0.1375010000    0.0036550000    0.0000000000
H        0.1515590000    0.0253740000   -0.0000000000
C       -0.1050600000    0.0339260000    0.0000000000
H        0.1333830000    0.0069100000    0.0000000000
13   
From optimize.out: Frame 2 / 3, Energy=    -286.8754839822
C        0.0482450000   -0.2307340000   -0.0000000000
C       -0.1149200000    0.6934520000   -0.0000000000
C       -0.1937350000   -0.0539710000   -0.0000000000
C       -0.0760270000    0.0323090000    0.0000000000
C       -0.0615640000   -0.0277790000   -0.0000000000
N       -0.3514490000    0.5167360000   -0.0000000000
H        0.1406110000    0.0074330000   -0.0000000000
H        0.1433580000   -0.0321580000   -0.0000000000
H        0.1481410000    0.0253040000   -0.0000000000
H        0.1373540000    0.0036230000    0.0000000000
H        0.1515320000    0.0253130000   -0.0000000000
C       -0.1048940000    0.0336060000    0.0000000000
H        0.1333480000    0.0068670000    0.0000000000
