13   
From optimize.out: Frame 1 / 3, Energy=    -286.8754792730
C        1.6790276777    0.4830999984   -0.3260927528
C        1.1480824923   -0.8118775612   -0.4378191510
C       -0.3405772721   -0.7026571801   -0.4748621500
C       -1.2156312520    0.6018872471    0.9537731764
C       -0.5216060231    0.8648089160   -0.3834391384
N        0.7980311247    1.4779680468   -0.2908272691
H        2.7418748682    0.7076444539   -0.2455474248
H        1.7219389641   -1.7321137312   -0.4438373823
H       -0.8234852605   -1.2474930973   -1.2968410911
H       -1.6253226247    1.2818949857    1.6946776604
H       -1.1307923854    1.3573470143   -1.1512337864
C       -1.0771352298   -0.7264035322    0.8767470070
H       -1.3544050797   -1.5541055605    1.5253023026
13   
From optimize.out: Frame 2 / 3, Energy=    -286.8754839822
C        1.6788940560    0.4831173748   -0.3254226191
C        1.1472680733   -0.8115037871   -0.4356721793
C       -0.3414768064   -0.7023947536   -0.4748746117
C       -1.2147508122    0.6013225828    0.9533003207
C       -0.5218949549    0.8645749668   -0.3840361394
N        0.7983363325    1.4779555792   -0.2909041369
H        2.7415504446    0.7077504902   -0.2444427556
H        1.7213677897   -1.7315588368   -0.4442419245
H       -0.8250289056   -1.2467896183   -1.2965906657
H       -1.6238300798    1.2813387197    1.6943853014
H       -1.1308946656    1.3566780121   -1.1523330968
C       -1.0770375642   -0.7266828719    0.8758334228
H       -1.3525029078   -1.5538078583    1.5249990846
