13   
Frame   0 IRC: Energy =  -286.8593510000 ; +0.0000 kcal/mol
C        1.5549393903    0.2368494728   -0.2652312029
C        0.5819959154   -0.9242843466   -0.0909642628
C       -0.7121587794   -0.3539373094   -0.7783766174
C       -1.1067708511    0.2234280744    0.6021820470
C       -0.4363743445    1.0885426123   -0.5616803363
N        0.9750236506    1.3636032091   -0.4788665534
H        2.6280514920    0.1684324271   -0.0992649870
H        0.9527640279   -1.9293160977   -0.2993686885
H       -1.3373280643   -0.8254781560   -1.5296687978
H       -2.0714229759    0.5442240930    0.9805638926
H       -1.0758456831    1.8613122653   -0.9736230084
C       -0.1296120135   -0.6503588609    1.2320088992
H        0.1767382350   -0.8030173832    2.2622896155
13   
Frame   1 IRC: Energy =  -286.8593480000 ; +0.0019 kcal/mol
C        1.5548947385    0.2369446622   -0.2653593499
C        0.5821219391   -0.9241186905   -0.0908544622
C       -0.7122209746   -0.3540534677   -0.7784722847
C       -1.1067802669    0.2237039619    0.6023285983
C       -0.4361895240    1.0885365515   -0.5617235521
N        0.9749972570    1.3637051764   -0.4791182572
H        2.6281784934    0.1686283148   -0.0994784662
H        0.9529185123   -1.9292522251   -0.2992352029
H       -1.3373144875   -0.8255939482   -1.5292964278
H       -2.0711933249    0.5444429045    0.9806375476
H       -1.0759339301    1.8613042377   -0.9738445416
C       -0.1295079981   -0.6502823119    1.2320428879
H        0.1760295660   -0.8039651658    2.2623735106
13   
Frame   2 IRC: Energy =  -286.8593310000 ; +0.0126 kcal/mol
C        1.5552992046    0.2377276647   -0.2661100929
C        0.5827275172   -0.9236249407   -0.0903954426
C       -0.7117652958   -0.3538905779   -0.7777900780
C       -1.1057812888    0.2249083069    0.6027286438
C       -0.4362573228    1.0887503877   -0.5623564295
N        0.9750764917    1.3641518223   -0.4806182701
H        2.6285724157    0.1698427182   -0.1008720015
H        0.9538394939   -1.9286242217   -0.2983071916
H       -1.3377304284   -0.8266932221   -1.5276190971
H       -2.0702807494    0.5459907826    0.9813153473
H       -1.0761136343    1.8608648210   -0.9749979817
C       -0.1291957781   -0.6495003180    1.2321957227
H        0.1716093745   -0.8099032231    2.2628268713
13   
Frame   3 IRC: Energy =  -286.8593280000 ; +0.0144 kcal/mol
C        1.5553224246    0.2378015124   -0.2662413632
C        0.5828707293   -0.9234665455   -0.0902882584
C       -0.7118226360   -0.3540211381   -0.7778910571
C       -1.1058293342    0.2252376817    0.6028938144
C       -0.4360845551    1.0887820576   -0.5624227751
N        0.9750260340    1.3642947466   -0.4809061930
H        2.6286832918    0.1700610717   -0.1011163670
H        0.9540068891   -1.9285396631   -0.2981500871
H       -1.3377195484   -0.8268254605   -1.5272100083
H       -2.0700076140    0.5462268222    0.9813935610
H       -1.0761954031    1.8608335379   -0.9752315772
C       -0.1290499528   -0.6494250358    1.2322942797
H        0.1707996748   -0.8109595872    2.2628760315
13   
Frame   4 IRC: Energy =  -286.8593140000 ; +0.0232 kcal/mol
C        1.5555590506    0.2384459632   -0.2668137623
C        0.5833081564   -0.9231085463   -0.0899468844
C       -0.7114567819   -0.3538584304   -0.7773244778
C       -1.1050049427    0.2260765000    0.6031614600
C       -0.4361711174    1.0889131777   -0.5628817539
N        0.9751358763    1.3645528444   -0.4819884260
H        2.6289903815    0.1709453272   -0.1021355691
H        0.9546758799   -1.9280835221   -0.2974593353
H       -1.3380395731   -0.8276443643   -1.5260093947
H       -2.0693835028    0.5473648808    0.9819081525
H       -1.0763266159    1.8605077818   -0.9760706899
C       -0.1288370570   -0.6487882808    1.2323563891
H        0.1675502460   -0.8153233313    2.2632042918
13   
Frame   5 IRC: Energy =  -286.8593100000 ; +0.0257 kcal/mol
C        1.5556943312    0.2384516791   -0.2669394407
C        0.5834519659   -0.9229482427   -0.0898351418
C       -0.7114821003   -0.3539707795   -0.7773765417
C       -1.1050077537    0.2264286808    0.6033203753
C       -0.4360248507    1.0889625357   -0.5629679924
N        0.9750343532    1.3647855995   -0.4823287989
H        2.6290737629    0.1711933475   -0.1024194645
H        0.9548645383   -1.9279778445   -0.2972758825
H       -1.3380505902   -0.8278115375   -1.5255780997
H       -2.0691011391    0.5476385802    0.9820080851
H       -1.0764017446    1.8604551154   -0.9763239038
C       -0.1286798336   -0.6486862077    1.2324678394
H        0.1666290608   -0.8165209264    2.2632489661
13   
Frame   6 IRC: Energy =  -286.8592980000 ; +0.0333 kcal/mol
C        1.5557759088    0.2390557004   -0.2674146875
C        0.5838041275   -0.9226697816   -0.0895653316
C       -0.7112040179   -0.3538412144   -0.7769372571
C       -1.1043628542    0.2270758489    0.6035344030
C       -0.4360973447    1.0890495467   -0.5633202218
N        0.9751906391    1.3648861472   -0.4831480537
H        2.6293472688    0.1718749574   -0.1032044619
H        0.9553784959   -1.9276277462   -0.2967347368
H       -1.3382919314   -0.8284434951   -1.5246432911
H       -2.0686205540    0.5485157740    0.9824085950
H       -1.0765092429    1.8602024970   -0.9769723669
C       -0.1285060693   -0.6481644415    1.2325086815
H        0.1640955742   -0.8199137929    2.2634887290
13   
Frame   7 IRC: Energy =  -286.8592930000 ; +0.0364 kcal/mol
C        1.5559876968    0.2390409995   -0.2675557857
C        0.5839567050   -0.9224976208   -0.0894394884
C       -0.7111864850   -0.3539288129   -0.7769216087
C       -1.1042859611    0.2274561271    0.6036911486
C       -0.4359714142    1.0891129144   -0.5634302441
N        0.9750577389    1.3651778491   -0.4835550106
H        2.6294246230    0.1721678434   -0.1035437417
H        0.9556007968   -1.9274939668   -0.2965129436
H       -1.3383334504   -0.8286632006   -1.5241713231
H       -2.0683283245    0.5488513283    0.9825431212
H       -1.0765842938    1.8601257401   -0.9772627641
C       -0.1283425960   -0.6480133435    1.2326152426
H        0.1630049645   -0.8213358572    2.2635433975
13   
Frame   8 IRC: Energy =  -286.8592830000 ; +0.0427 kcal/mol
C        1.5559828345    0.2396022607   -0.2679706557
C        0.5842524511   -0.9222707538   -0.0892192436
C       -0.7109848386   -0.3538269926   -0.7765860542
C       -1.1037848465    0.2279918541    0.6038739930
C       -0.4360372036    1.0891708510   -0.5637107604
N        0.9752493704    1.3651877220   -0.4841984904
H        2.6296806203    0.1727168208   -0.1041693775
H        0.9560152838   -1.9272142691   -0.2960737010
H       -1.3385186407   -0.8291704942   -1.5234101884
H       -2.0679352228    0.5495513898    0.9828640442
H       -1.0766802086    1.8599230445   -0.9777858946
C       -0.1281911106   -0.6475803190    1.2326586644
H        0.1609515114   -0.8240811142    2.2637276641
13   
Frame   9 IRC: Energy =  -286.8592760000 ; +0.0471 kcal/mol
C        1.5562631058    0.2396034333   -0.2681719712
C        0.5844323361   -0.9220745052   -0.0890529330
C       -0.7109359199   -0.3539015094   -0.7764991490
C       -1.1036197543    0.2284400617    0.6040442087
C       -0.4359120382    1.0892648862   -0.5638493386
N        0.9751065207    1.3655348099   -0.4846946794
H        2.6297828887    0.1730820943   -0.1045871231
H        0.9562953912   -1.9270426223   -0.2957965682
H       -1.3386050571   -0.8294758682   -1.5228697309
H       -2.0676084896    0.5499777654    0.9830464905
H       -1.0767754459    1.8598190015   -0.9781458076
C       -0.1280157277   -0.6473619096    1.2327747424
H        0.1595921903   -0.8258656374    2.2638018593
13   
Frame  10 IRC: Energy =  -286.8592660000 ; +0.0533 kcal/mol
C        1.5562365455    0.2401553628   -0.2686789014
C        0.5847050898   -0.9218955015   -0.0889464581
C       -0.7106773067   -0.3537814452   -0.7764377805
C       -1.1032417539    0.2290403140    0.6042179660
C       -0.4359483047    1.0892877668   -0.5641754908
N        0.9753781210    1.3655722151   -0.4851685920
H        2.6300347465    0.1735524481   -0.1050965118
H        0.9566918087   -1.9268914883   -0.2954226156
H       -1.3388285876   -0.8299656473   -1.5222542320
H       -2.0674301507    0.5506001608    0.9834143067
H       -1.0768904732    1.8596318260   -0.9785751738
C       -0.1279292159   -0.6470177769    1.2329312069
H        0.1578994811   -0.8282882342    2.2641922765
13   
Frame  11 IRC: Energy =  -286.8592490000 ; +0.0640 kcal/mol
C        1.5564810803    0.2403472526   -0.2685887239
C        0.5851439540   -0.9214128327   -0.0884219277
C       -0.7106255568   -0.3539913780   -0.7753937937
C       -1.1028992032    0.2295235851    0.6045824743
C       -0.4358262973    1.0891833531   -0.5642546042
N        0.9750182709    1.3656871600   -0.4865919596
H        2.6301600788    0.1743835573   -0.1060927008
H        0.9571897516   -1.9262029076   -0.2948819194
H       -1.3386264039   -0.8302462845   -1.5206731890
H       -2.0665864234    0.5515627499    0.9836923758
H       -1.0766966967    1.8591485447   -0.9791284213
C       -0.1273491893   -0.6460545679    1.2325531555
H        0.1546166350   -0.8319282319    2.2631992340
13   
Frame  12 IRC: Energy =  -286.8592410000 ; +0.0690 kcal/mol
C        1.5562009352    0.2407556309   -0.2684886964
C        0.5853819967   -0.9212263415   -0.0880908429
C       -0.7107806178   -0.3539473084   -0.7747671553
C       -1.1027462553    0.2294969465    0.6046874506
C       -0.4360885984    1.0889147857   -0.5642309450
N        0.9752865800    1.3653034860   -0.4870797695
H        2.6302318216    0.1746853618   -0.1064508402
H        0.9573177365   -1.9258859351   -0.2947135887
H       -1.3384095965   -0.8302245988   -1.5199993924
H       -2.0661405564    0.5518801401    0.9836946293
H       -1.0765346971    1.8589478799   -0.9792889409
C       -0.1271099613   -0.6455952225    1.2322128383
H        0.1533912128   -0.8331048247    2.2625152532
13   
Frame  13 IRC: Energy =  -286.8592050000 ; +0.0916 kcal/mol
C        1.5568973150    0.2419435350   -0.2707101049
C        0.5860182206   -0.9206970818   -0.0878785700
C       -0.7098238952   -0.3535696229   -0.7758405702
C       -1.1007892485    0.2318802525    0.6052238314
C       -0.4357548420    1.0903072388   -0.5658176356
N        0.9753517443    1.3671304928   -0.4883710416
H        2.6308372007    0.1759511956   -0.1081697687
H        0.9585449676   -1.9258243957   -0.2930960661
H       -1.3398441559   -0.8325063628   -1.5188563832
H       -2.0647433478    0.5536339884    0.9845495690
H       -1.0779611020    1.8594068086   -0.9816075721
C       -0.1268487577   -0.6458187412    1.2343007926
H        0.1481159009   -0.8418373073    2.2662735195
13   
Frame  14 IRC: Energy =  -286.8591820000 ; +0.1060 kcal/mol
C        1.5571500027    0.2422597622   -0.2716737739
C        0.5862317725   -0.9203611466   -0.0879600569
C       -0.7099399830   -0.3528149773   -0.7772444781
C       -1.1003040366    0.2328686054    0.6052162324
C       -0.4365966626    1.0896153852   -0.5665616088
N        0.9765142611    1.3680743275   -0.4882704547
H        2.6308961888    0.1762802320   -0.1085321947
H        0.9590045599   -1.9263166822   -0.2926811684
H       -1.3401218784   -0.8330786469   -1.5184496580
H       -2.0646076432    0.5540452152    0.9849026350
H       -1.0785192769    1.8597614982   -0.9822719936
C       -0.1269511795   -0.6461536946    1.2350124633
H        0.1472438752   -0.8441798780    2.2685140562
13   
Frame  15 IRC: Energy =  -286.8589100000 ; +0.2767 kcal/mol
C        1.5596719670    0.2475990532   -0.2766467807
C        0.5914416408   -0.9159306855   -0.0835196987
C       -0.7074516600   -0.3542771538   -0.7702671954
C       -1.0945075358    0.2425730879    0.6092772267
C       -0.4352184834    1.0907827239   -0.5689968600
N        0.9754062442    1.3701143761   -0.5006564958
H        2.6347274137    0.1857962958   -0.1198764490
H        0.9654755365   -1.9209984212   -0.2843152935
H       -1.3414562319   -0.8399996163   -1.5044644506
H       -2.0570966408    0.5651760238    0.9908186218
H       -1.0793305232    1.8548064830   -0.9902830004
C       -0.1206169990   -0.6351405282    1.2355044101
H        0.1089552717   -0.8905016386    2.2634259657
13   
Frame  16 IRC: Energy =  -286.8588870000 ; +0.2912 kcal/mol
C        1.5600899342    0.2478928704   -0.2768195034
C        0.5919789978   -0.9154726937   -0.0830848164
C       -0.7078822690   -0.3539022298   -0.7699135834
C       -1.0943533017    0.2431786473    0.6091992812
C       -0.4361571930    1.0901592071   -0.5692272067
N        0.9761425635    1.3701835199   -0.5012881656
H        2.6345808359    0.1864026063   -0.1205679184
H        0.9658489353   -1.9207718552   -0.2838812957
H       -1.3412294077   -0.8401745779   -1.5033760115
H       -2.0564909135    0.5657771263    0.9910868361
H       -1.0791990329    1.8544374187   -0.9906514419
C       -0.1200087443   -0.6347811258    1.2359854913
H        0.1066795955   -0.8929289135    2.2625383344
13   
Frame  17 IRC: Energy =  -286.8584840000 ; +0.5441 kcal/mol
C        1.5625347150    0.2536655688   -0.2844433090
C        0.5969442229   -0.9108191762   -0.0792260800
C       -0.7051188687   -0.3551912349   -0.7650359141
C       -1.0864578033    0.2544468292    0.6133661606
C       -0.4354958818    1.0918163628   -0.5727056149
N        0.9756125964    1.3738019720   -0.5133737138
H        2.6380708482    0.1948554831   -0.1302973159
H        0.9706568484   -1.9172977911   -0.2730687827
H       -1.3431910869   -0.8474475538   -1.4914816729
H       -2.0488618651    0.5744652489    0.9975338613
H       -1.0822407842    1.8507259616   -0.9995868531
C       -0.1090137470   -0.6194962628    1.2400968815
H        0.0665608060   -0.9435254077    2.2582223529
13   
Frame  18 IRC: Energy =  -286.8584460000 ; +0.5679 kcal/mol
C        1.5626973090    0.2538477054   -0.2849832457
C        0.5976386593   -0.9102808561   -0.0788821108
C       -0.7056256013   -0.3545302294   -0.7651903980
C       -1.0861991712    0.2554988678    0.6134168954
C       -0.4368964788    1.0906569305   -0.5731577759
N        0.9768216156    1.3744614619   -0.5140925071
H        2.6381547246    0.1955393823   -0.1309962034
H        0.9710469514   -1.9172677542   -0.2723011517
H       -1.3429306868   -0.8477054089   -1.4902073029
H       -2.0480869012    0.5750024222    0.9979249190
H       -1.0823270380    1.8504656290   -1.0001645929
C       -0.1081287843   -0.6185212816    1.2403310436
H        0.0638354017   -0.9471668689    2.2583024304
13   
Frame  19 IRC: Energy =  -286.8580680000 ; +0.8051 kcal/mol
C        1.5647992093    0.2583619947   -0.2908896814
C        0.6016313726   -0.9064693892   -0.0758260669
C       -0.7038315686   -0.3574824831   -0.7595866283
C       -1.0793758124    0.2650683424    0.6167662499
C       -0.4363707511    1.0916774860   -0.5748627991
N        0.9752032413    1.3763162011   -0.5237570465
H        2.6403543574    0.2019725971   -0.1369819723
H        0.9745467762   -1.9142681325   -0.2632228021
H       -1.3441028325   -0.8537354401   -1.4814928334
H       -2.0410360330    0.5828458350    1.0045328760
H       -1.0852872327    1.8458311997   -1.0066423927
C       -0.0943793254   -0.6007948489    1.2451073100
H        0.0278485989   -0.9893233623    2.2468557868
13   
Frame  20 IRC: Energy =  -286.8580340000 ; +0.8264 kcal/mol
C        1.5650327658    0.2584766883   -0.2912736329
C        0.6022372901   -0.9059250388   -0.0754680667
C       -0.7044354514   -0.3570263380   -0.7595931771
C       -1.0791019366    0.2658842536    0.6169257656
C       -0.4378973789    1.0903514388   -0.5750787831
N        0.9765414016    1.3768490753   -0.5243369671
H        2.6402278556    0.2025573329   -0.1374449911
H        0.9748733539   -1.9142869737   -0.2626049304
H       -1.3437799822   -0.8539001093   -1.4804359059
H       -2.0402000824    0.5833423069    1.0048845334
H       -1.0854050611    1.8455620916   -1.0071068446
C       -0.0933684473   -0.5995092648    1.2454573500
H        0.0252756728   -0.9923754628    2.2460756498
13   
Frame  21 IRC: Energy =  -286.8579260000 ; +0.8942 kcal/mol
C        1.5654612028    0.2600472075   -0.2931109723
C        0.6032033646   -0.9050103923   -0.0746544121
C       -0.7033527919   -0.3585850628   -0.7574691196
C       -1.0767697740    0.2687797541    0.6180093451
C       -0.4365316682    1.0916811843   -0.5755261111
N        0.9748025373    1.3770082809   -0.5273770718
H        2.6411004837    0.2044601830   -0.1388939021
H        0.9758639003   -1.9131614158   -0.2598465186
H       -1.3443655965   -0.8559825807   -1.4782475694
H       -2.0380564580    0.5861078940    1.0073024402
H       -1.0865140099    1.8438660429   -1.0090831418
C       -0.0887911240   -0.5939196276    1.2472331713
H        0.0139499337   -1.0052914673    2.2416638622
13   
Frame  22 IRC: Energy =  -286.8578930000 ; +0.9149 kcal/mol
C        1.5657279587    0.2601826544   -0.2935265271
C        0.6038113642   -0.9044332801   -0.0743201758
C       -0.7038826542   -0.3582477216   -0.7573460963
C       -1.0763512371    0.2696708709    0.6182352300
C       -0.4379527175    1.0904161626   -0.5757225114
N        0.9759742103    1.3775417632   -0.5280734841
H        2.6409775103    0.2051098136   -0.1393104864
H        0.9762247645   -1.9131501764   -0.2591608014
H       -1.3440636838   -0.8562391863   -1.4771975215
H       -2.0370957092    0.5867768024    1.0078088543
H       -1.0867158280    1.8434998420   -1.0096225880
C       -0.0876243014   -0.5923691146    1.2476673927
H        0.0109703232   -1.0087584303    2.2405687149
13   
Frame  23 IRC: Energy =  -286.8578170000 ; +0.9626 kcal/mol
C        1.5657797202    0.2615222855   -0.2948790725
C        0.6045046170   -0.9038532157   -0.0737442169
C       -0.7031379562   -0.3594824737   -0.7558121158
C       -1.0746669197    0.2717993388    0.6190331403
C       -0.4369672113    1.0913632083   -0.5760677696
N        0.9747468282    1.3774169998   -0.5302184559
H        2.6415915504    0.2065098853   -0.1400383413
H        0.9769171465   -1.9123197017   -0.2572555906
H       -1.3443790670   -0.8577597868   -1.4757961269
H       -2.0353183984    0.5890799554    1.0098247671
H       -1.0876432591    1.8420847839   -1.0110490092
C       -0.0841719787   -0.5883607155    1.2490093408
H        0.0027449281   -1.0180005636    2.2369934506
13   
Frame  24 IRC: Energy =  -286.8577830000 ; +0.9839 kcal/mol
C        1.5660525058    0.2616946431   -0.2953285879
C        0.6051173425   -0.9032770527   -0.0734419736
C       -0.7035981816   -0.3593244384   -0.7555969255
C       -1.0741610223    0.2727978199    0.6193524922
C       -0.4382480806    1.0902153583   -0.5762659509
N        0.9757265169    1.3779368315   -0.5310342318
H        2.6414615553    0.2072390031   -0.1403574522
H        0.9773061180   -1.9122630447   -0.2565214626
H       -1.3440668649   -0.8581079739   -1.4747923569
H       -2.0341603642    0.5899908176    1.0105384533
H       -1.0879565753    1.8415788565   -1.0116664865
C       -0.0828339537   -0.5866236159    1.2495679441
H       -0.0006389960   -1.0218572043    2.2355465382
13   
Frame  25 IRC: Energy =  -286.8577280000 ; +1.0184 kcal/mol
C        1.5663264730    0.2623900057   -0.2962239302
C        0.6055083252   -0.9028986242   -0.0730273576
C       -0.7029669158   -0.3603776545   -0.7543714268
C       -1.0727857565    0.2743745588    0.6199046778
C       -0.4373142507    1.0910310645   -0.5765199246
N        0.9743142066    1.3780602816   -0.5327214048
H        2.6417889449    0.2083171641   -0.1406423829
H        0.9778179205   -1.9116212249   -0.2551949522
H       -1.3442427983   -0.8593016814   -1.4740209294
H       -2.0326929559    0.5920605735    1.0123574494
H       -1.0887845180    1.8403513214   -1.0127440242
C       -0.0801852959   -0.5837009133    1.2505360270
H       -0.0067833793   -1.0286848715    2.2326681785
13   
Frame  26 IRC: Energy =  -286.8576910000 ; +1.0417 kcal/mol
C        1.5664492500    0.2627736323   -0.2967659429
C        0.6061587502   -0.9023154842   -0.0727369619
C       -0.7033823863   -0.3603754034   -0.7540448911
C       -1.0721169163    0.2755254364    0.6203306824
C       -0.4385615916    1.0898923684   -0.5767525553
N        0.9752282065    1.3784382173   -0.5336782372
H        2.6416669567    0.2091868575   -0.1407925211
H        0.9782579236   -1.9115208931   -0.2544025099
H       -1.3438451283   -0.8597755046   -1.4731013098
H       -2.0311918536    0.5934159905    1.0134434934
H       -1.0892831209    1.8396094401   -1.0134846233
C       -0.0786130104   -0.5816953144    1.2511936670
H       -0.0107670795   -1.0331593429    2.2307917097
13   
Frame  27 IRC: Energy =  -286.8576520000 ; +1.0661 kcal/mol
C        1.5663294951    0.2635782288   -0.2974687978
C        0.6063987846   -0.9021617226   -0.0724662068
C       -0.7028498999   -0.3613026669   -0.7531368264
C       -1.0710848607    0.2766796297    0.6207551472
C       -0.4376649268    1.0906636001   -0.5769703138
N        0.9740443221    1.3781906480   -0.5348733695
H        2.6419539637    0.2099926838   -0.1407426317
H        0.9786067138   -1.9110119517   -0.2535181747
H       -1.3438784448   -0.8606953011   -1.4728160766
H       -2.0299351334    0.5952756607    1.0150734848
H       -1.0900318885    1.8385257081   -1.0142745707
C       -0.0766437614   -0.5796659283    1.2518902742
H       -0.0152443638   -1.0380685888    2.2285480618
13   
Frame  28 IRC: Energy =  -286.8576200000 ; +1.0862 kcal/mol
C        1.5665245956    0.2637641867   -0.2978704928
C        0.6069704167   -0.9016344566   -0.0722780836
C       -0.7032978860   -0.3613098225   -0.7529048513
C       -1.0704827593    0.2777110153    0.6211916283
C       -0.4389834856    1.0894443734   -0.5771922971
N        0.9748968779    1.3786711661   -0.5357481301
H        2.6416951253    0.2108285075   -0.1406867837
H        0.9790210671   -1.9109760484   -0.2529063477
H       -1.3433516318   -0.8611049924   -1.4721821913
H       -2.0283243158    0.5967733597    1.0162649248
H       -1.0905887002    1.8377431476   -1.0149520618
C       -0.0753147211   -0.5779331305    1.2524943267
H       -0.0187645828   -1.0419773060    2.2267703596
13   
Frame  29 IRC: Energy =  -286.8575820000 ; +1.1101 kcal/mol
C        1.5666256773    0.2642166525   -0.2984283380
C        0.6071389697   -0.9014948299   -0.0720081893
C       -0.7028709767   -0.3622520515   -0.7520813700
C       -1.0694286775    0.2788686531    0.6215770939
C       -0.4382221351    1.0899883199   -0.5774151166
N        0.9735182914    1.3787243447   -0.5369949781
H        2.6417609018    0.2117031665   -0.1403729049
H        0.9793887715   -1.9105137031   -0.2521710900
H       -1.3431236513   -0.8620141482   -1.4722214420
H       -2.0267544102    0.5990997419    1.0182781200
H       -1.0915127215    1.8364790152   -1.0157495372
C       -0.0733729359   -0.5760798968    1.2530921054
H       -0.0231471033   -1.0467252644    2.2244956468
13   
Frame  30 IRC: Energy =  -286.8575490000 ; +1.1308 kcal/mol
C        1.5666097697    0.2645324462   -0.2988090832
C        0.6076727479   -0.9010466635   -0.0719022267
C       -0.7033263027   -0.3623815727   -0.7519095234
C       -1.0687911875    0.2798683995    0.6221073985
C       -0.4394935499    1.0887111681   -0.5776370210
N        0.9743044560    1.3790489970   -0.5378499767
H        2.6414549534    0.2125885592   -0.1400602664
H        0.9798125323   -1.9104971891   -0.2516838653
H       -1.3423756487   -0.8624465446   -1.4719436632
H       -2.0248208566    0.6010471675    1.0198322800
H       -1.0922720739    1.8355243470   -1.0164493222
C       -0.0721625551   -0.5744337347    1.2536357943
H       -0.0266122849   -1.0505153799    2.2226694755
13   
Frame  31 IRC: Energy =  -286.8575130000 ; +1.1534 kcal/mol
C        1.5663215035    0.2652797769   -0.2993531359
C        0.6077700688   -0.9010590486   -0.0716940611
C       -0.7028943370   -0.3633620513   -0.7511900075
C       -1.0678108959    0.2809397812    0.6224536078
C       -0.4388274457    1.0892595086   -0.5779280750
N        0.9729948942    1.3787238558   -0.5389274654
H        2.6414818450    0.2134589841   -0.1394436143
H        0.9801599375   -1.9100654421   -0.2511554865
H       -1.3418668187   -0.8633473730   -1.4725149610
H       -2.0229646795    0.6038608248    1.0222472174
H       -1.0933393594    1.8340307800   -1.0171538676
C       -0.0704057230   -0.5729860298    1.2541577196
H       -0.0306189897   -1.0547335667    2.2205021296
13   
Frame  32 IRC: Energy =  -286.8574730000 ; +1.1785 kcal/mol
C        1.5663307676    0.2654780082   -0.2996591922
C        0.6082202016   -0.9006412858   -0.0716694919
C       -0.7033478172   -0.3637058451   -0.7510463466
C       -1.0670338736    0.2820542101    0.6231147332
C       -0.4402284477    1.0878094294   -0.5782144125
N        0.9734788984    1.3791712519   -0.5399344929
H        2.6409363825    0.2145647406   -0.1387463223
H        0.9806997747   -1.9100808472   -0.2507969718
H       -1.3406283114   -0.8639322422   -1.4729091903
H       -2.0202171429    0.6069264610    1.0247185839
H       -1.0945055075    1.8325959709   -1.0179422337
C       -0.0691744725   -0.5713902472    1.2547164680
H       -0.0345304519   -1.0588496045    2.2183688690
13   
Frame  33 IRC: Energy =  -286.8574380000 ; +1.2004 kcal/mol
C        1.5662007765    0.2658233710   -0.2999601866
C        0.6081897654   -0.9008256927   -0.0714961691
C       -0.7030323806   -0.3646911004   -0.7505957784
C       -1.0662192773    0.2829047027    0.6233606951
C       -0.4394515297    1.0882549514   -0.5784179655
N        0.9718688485    1.3790940806   -0.5408490423
H        2.6407901143    0.2153304912   -0.1380018921
H        0.9810020596   -1.9096841324   -0.2505289351
H       -1.3398425738   -0.8647213191   -1.4739492236
H       -2.0183260358    0.6099258220    1.0272903427
H       -1.0956512821    1.8311487580   -1.0185093725
C       -0.0678329835   -0.5704995464    1.2549409177
H       -0.0376955014   -1.0620603857    2.2167166097
13   
Frame  34 IRC: Energy =  -286.8573810000 ; +1.2362 kcal/mol
C        1.5658097508    0.2662706060   -0.3002112681
C        0.6085932526   -0.9005813494   -0.0716146979
C       -0.7036021322   -0.3653233171   -0.7507022733
C       -1.0653097292    0.2841289394    0.6242650143
C       -0.4411548509    1.0863591019   -0.5787710968
N        0.9722337736    1.3793575402   -0.5418910706
H        2.6399644125    0.2167563291   -0.1367978043
H        0.9817494840   -1.9097394446   -0.2503874725
H       -1.3376417076   -0.8655372262   -1.4754975956
H       -2.0141901668    0.6148395634    1.0312876214
H       -1.0974792155    1.8290217732   -1.0194026088
C       -0.0668140799   -0.5690998215    1.2553899642
H       -0.0421587914   -1.0664526945    2.2143332880
13   
Frame  35 IRC: Energy =  -286.8573400000 ; +1.2619 kcal/mol
C        1.5652261873    0.2669075044   -0.3004787327
C        0.6084166208   -0.9008722724   -0.0714767960
C       -0.7031581942   -0.3663654887   -0.7503471154
C       -1.0646103446    0.2848590455    0.6244005171
C       -0.4404246389    1.0869459922   -0.5790468054
N        0.9705676173    1.3788618799   -0.5425513334
H        2.6398265755    0.2174994814   -0.1359079893
H        0.9820970511   -1.9093990770   -0.2503058062
H       -1.3365433931   -0.8664132682   -1.4772479618
H       -2.0119985242    0.6184247729    1.0343789410
H       -1.0987230900    1.8273444142   -1.0198118243
C       -0.0657533565   -0.5687957404    1.2554513886
H       -0.0449225105   -1.0689972439    2.2129435178
13   
Frame  36 IRC: Energy =  -286.8572510000 ; +1.3178 kcal/mol
C        1.5647810391    0.2671560624   -0.3004070989
C        0.6085914861   -0.9007503645   -0.0718230068
C       -0.7038357950   -0.3672827997   -0.7509662785
C       -1.0637082814    0.2861078044    0.6255540899
C       -0.4426413081    1.0844200846   -0.5794316052
N        0.9705794789    1.3793562381   -0.5434422354
H        2.6384774792    0.2192697481   -0.1343745143
H        0.9832342662   -1.9096339199   -0.2504425760
H       -1.3330401671   -0.8676080573   -1.4804445424
H       -2.0060442998    0.6256356470    1.0403499821
H       -1.1012530171    1.8245121122   -1.0207264621
C       -0.0654388109   -0.5680736920    1.2555953047
H       -0.0497020701   -1.0731088634    2.2105589428
13   
Frame  37 IRC: Energy =  -286.8571900000 ; +1.3560 kcal/mol
C        1.5639041390    0.2677669147   -0.3005340239
C        0.6084403166   -0.9015185232   -0.0716441202
C       -0.7034687250   -0.3685837123   -0.7509863880
C       -1.0630308217    0.2867869947    0.6255169785
C       -0.4415165378    1.0851233197   -0.5796202395
N        0.9682933704    1.3788497142   -0.5439184173
H        2.6383162488    0.2200462155   -0.1334337230
H        0.9836087062   -1.9090701440   -0.2504370242
H       -1.3313929642   -0.8686672943   -1.4829451147
H       -2.0034063189    0.6301809903    1.0443636281
H       -1.1027739842    1.8226318886   -1.0210803896
C       -0.0646574670   -0.5683541042    1.2552118728
H       -0.0523159623   -1.0751922596    2.2095069610
13   
Frame  38 IRC: Energy =  -286.8570660000 ; +1.4339 kcal/mol
C        1.5633431292    0.2680116080   -0.3001181066
C        0.6083221550   -0.9013140711   -0.0723629997
C       -0.7041049657   -0.3693994424   -0.7521978320
C       -1.0623845493    0.2878070182    0.6269420950
C       -0.4444739229    1.0820597940   -0.5800155704
N        0.9686000530    1.3794387221   -0.5441917649
H        2.6367238050    0.2218717044   -0.1321335511
H        0.9851302070   -1.9097029074   -0.2506784357
H       -1.3271751194   -0.8701885358   -1.4871332464
H       -1.9963153727    0.6383065676    1.0512570293
H       -1.1054170765    1.8197190862   -1.0218575956
C       -0.0656436187   -0.5684577725    1.2550574157
H       -0.0566047239   -1.0781517714    2.2074325622
13   