13   
Frame   0 IRC: Energy =  -286.8593510000 ; +0.0000 kcal/mol
C       -0.0521950000    0.0538280000   -0.0000000000
C       -0.0275910000   -0.1154660000   -0.0000000000
C       -0.0621160000    0.0870810000   -0.0000000000
C       -0.0536880000   -0.1550110000    0.0000000000
C       -0.2908800000    0.1038940000   -0.0000000000
N       -0.1711370000    0.0356110000   -0.0000000000
H        0.1311860000    0.0010610000   -0.0000000000
H        0.1336850000    0.0235460000   -0.0000000000
H        0.1333660000    0.0003140000   -0.0000000000
H        0.1385740000    0.0051940000    0.0000000000
H        0.1442160000    0.0035450000   -0.0000000000
C       -0.1542990000    0.9795410000    0.0000000000
H        0.1308800000   -0.0231380000    0.0000000000
13   
Frame   1 IRC: Energy =  -286.8593480000 ; +0.0019 kcal/mol
C       -0.0521630000    0.0538500000   -0.0000000000
C       -0.0274990000   -0.1155040000   -0.0000000000
C       -0.0623370000    0.0873370000   -0.0000000000
C       -0.0539320000   -0.1549870000    0.0000000000
C       -0.2906870000    0.1037130000   -0.0000000000
N       -0.1711120000    0.0355850000   -0.0000000000
H        0.1311840000    0.0010600000   -0.0000000000
H        0.1336790000    0.0235350000   -0.0000000000
H        0.1333390000    0.0003130000   -0.0000000000
H        0.1385450000    0.0051760000    0.0000000000
H        0.1442030000    0.0035580000   -0.0000000000
C       -0.1541290000    0.9795570000    0.0000000000
H        0.1309100000   -0.0231920000    0.0000000000
13   
Frame   2 IRC: Energy =  -286.8593310000 ; +0.0126 kcal/mol
C       -0.0516100000    0.0538860000   -0.0000000000
C       -0.0282020000   -0.1156410000   -0.0000000000
C       -0.0619020000    0.0884370000   -0.0000000000
C       -0.0544250000   -0.1549160000    0.0000000000
C       -0.2906930000    0.1031710000   -0.0000000000
N       -0.1713450000    0.0354950000   -0.0000000000
H        0.1311620000    0.0010710000   -0.0000000000
H        0.1335950000    0.0234300000   -0.0000000000
H        0.1334630000    0.0003450000   -0.0000000000
H        0.1385340000    0.0051580000    0.0000000000
H        0.1441950000    0.0035880000   -0.0000000000
C       -0.1538060000    0.9794450000    0.0000000000
H        0.1310340000   -0.0234700000    0.0000000000
13   
Frame   3 IRC: Energy =  -286.8593280000 ; +0.0144 kcal/mol
C       -0.0515710000    0.0538920000   -0.0000000000
C       -0.0281540000   -0.1156770000   -0.0000000000
C       -0.0620810000    0.0887160000   -0.0000000000
C       -0.0547180000   -0.1548830000    0.0000000000
C       -0.2904830000    0.1029520000   -0.0000000000
N       -0.1713370000    0.0354850000   -0.0000000000
H        0.1311680000    0.0010680000   -0.0000000000
H        0.1335850000    0.0234120000   -0.0000000000
H        0.1334320000    0.0003420000   -0.0000000000
H        0.1384970000    0.0051360000    0.0000000000
H        0.1441800000    0.0035990000   -0.0000000000
C       -0.1535850000    0.9794950000    0.0000000000
H        0.1310660000   -0.0235380000    0.0000000000
13   
Frame   4 IRC: Energy =  -286.8593140000 ; +0.0232 kcal/mol
C       -0.0511170000    0.0539070000   -0.0000000000
C       -0.0287130000   -0.1157770000   -0.0000000000
C       -0.0617440000    0.0895130000   -0.0000000000
C       -0.0550270000   -0.1548340000    0.0000000000
C       -0.2905190000    0.1025930000   -0.0000000000
N       -0.1715040000    0.0354060000   -0.0000000000
H        0.1311380000    0.0010800000   -0.0000000000
H        0.1335220000    0.0233360000   -0.0000000000
H        0.1335380000    0.0003700000   -0.0000000000
H        0.1385010000    0.0051300000    0.0000000000
H        0.1441800000    0.0036210000   -0.0000000000
C       -0.1534140000    0.9793960000    0.0000000000
H        0.1311600000   -0.0237430000    0.0000000000
13   
Frame   5 IRC: Energy =  -286.8593100000 ; +0.0257 kcal/mol
C       -0.0511280000    0.0539240000   -0.0000000000
C       -0.0287000000   -0.1158070000   -0.0000000000
C       -0.0618320000    0.0898150000   -0.0000000000
C       -0.0553020000   -0.1547960000    0.0000000000
C       -0.2903350000    0.1023540000   -0.0000000000
N       -0.1715390000    0.0354150000   -0.0000000000
H        0.1311600000    0.0010740000   -0.0000000000
H        0.1335120000    0.0233170000   -0.0000000000
H        0.1335180000    0.0003670000   -0.0000000000
H        0.1384700000    0.0051070000    0.0000000000
H        0.1441650000    0.0036320000   -0.0000000000
C       -0.1531850000    0.9794130000    0.0000000000
H        0.1311980000   -0.0238160000    0.0000000000
13   
Frame   6 IRC: Energy =  -286.8592980000 ; +0.0333 kcal/mol
C       -0.0506890000    0.0539070000   -0.0000000000
C       -0.0291580000   -0.1158900000   -0.0000000000
C       -0.0616200000    0.0904350000   -0.0000000000
C       -0.0555620000   -0.1547580000    0.0000000000
C       -0.2903450000    0.1020870000   -0.0000000000
N       -0.1716380000    0.0353360000   -0.0000000000
H        0.1311180000    0.0010890000   -0.0000000000
H        0.1334590000    0.0232550000   -0.0000000000
H        0.1335970000    0.0003920000   -0.0000000000
H        0.1384710000    0.0051050000    0.0000000000
H        0.1441660000    0.0036490000   -0.0000000000
C       -0.1530690000    0.9793770000    0.0000000000
H        0.1312700000   -0.0239820000    0.0000000000
13   
Frame   7 IRC: Energy =  -286.8592930000 ; +0.0364 kcal/mol
C       -0.0507210000    0.0539380000   -0.0000000000
C       -0.0291930000   -0.1159190000   -0.0000000000
C       -0.0616320000    0.0907740000   -0.0000000000
C       -0.0558150000   -0.1547160000    0.0000000000
C       -0.2901880000    0.1018350000   -0.0000000000
N       -0.1717080000    0.0353520000   -0.0000000000
H        0.1311490000    0.0010810000   -0.0000000000
H        0.1334480000    0.0232330000   -0.0000000000
H        0.1335930000    0.0003900000   -0.0000000000
H        0.1384470000    0.0050830000    0.0000000000
H        0.1441530000    0.0036600000   -0.0000000000
C       -0.1528470000    0.9793530000    0.0000000000
H        0.1313150000   -0.0240640000    0.0000000000
13   
Frame   8 IRC: Energy =  -286.8592830000 ; +0.0427 kcal/mol
C       -0.0502970000    0.0538920000   -0.0000000000
C       -0.0295730000   -0.1159910000   -0.0000000000
C       -0.0615080000    0.0912760000   -0.0000000000
C       -0.0560560000   -0.1546820000    0.0000000000
C       -0.2901790000    0.1016130000   -0.0000000000
N       -0.1717610000    0.0352780000   -0.0000000000
H        0.1311000000    0.0010970000   -0.0000000000
H        0.1334010000    0.0231790000   -0.0000000000
H        0.1336510000    0.0004110000   -0.0000000000
H        0.1384440000    0.0050810000    0.0000000000
H        0.1441540000    0.0036740000   -0.0000000000
C       -0.1527500000    0.9793770000    0.0000000000
H        0.1313730000   -0.0242060000    0.0000000000
13   
Frame   9 IRC: Energy =  -286.8592760000 ; +0.0471 kcal/mol
C       -0.0503180000    0.0539320000   -0.0000000000
C       -0.0296680000   -0.1160210000   -0.0000000000
C       -0.0614710000    0.0916810000   -0.0000000000
C       -0.0563150000   -0.1546340000    0.0000000000
C       -0.2900350000    0.1013290000   -0.0000000000
N       -0.1718530000    0.0352900000   -0.0000000000
H        0.1311360000    0.0010890000   -0.0000000000
H        0.1333850000    0.0231520000   -0.0000000000
H        0.1336620000    0.0004130000   -0.0000000000
H        0.1384240000    0.0050600000    0.0000000000
H        0.1441430000    0.0036870000   -0.0000000000
C       -0.1525190000    0.9793250000    0.0000000000
H        0.1314280000   -0.0243030000    0.0000000000
13   
Frame  10 IRC: Energy =  -286.8592660000 ; +0.0533 kcal/mol
C       -0.0499260000    0.0538630000   -0.0000000000
C       -0.0299210000   -0.1160730000   -0.0000000000
C       -0.0614600000    0.0921590000   -0.0000000000
C       -0.0566060000   -0.1546190000    0.0000000000
C       -0.2900410000    0.1011080000   -0.0000000000
N       -0.1718520000    0.0351890000   -0.0000000000
H        0.1310820000    0.0011060000   -0.0000000000
H        0.1333470000    0.0230910000   -0.0000000000
H        0.1337280000    0.0004270000   -0.0000000000
H        0.1384310000    0.0050580000    0.0000000000
H        0.1441470000    0.0036950000   -0.0000000000
C       -0.1524270000    0.9794190000    0.0000000000
H        0.1314970000   -0.0244220000    0.0000000000
13   
Frame  11 IRC: Energy =  -286.8592490000 ; +0.0640 kcal/mol
C       -0.0496650000    0.0539140000   -0.0000000000
C       -0.0305140000   -0.1162320000   -0.0000000000
C       -0.0609730000    0.0929260000   -0.0000000000
C       -0.0568400000   -0.1544720000    0.0000000000
C       -0.2897600000    0.1006940000   -0.0000000000
N       -0.1721710000    0.0353090000   -0.0000000000
H        0.1311040000    0.0010960000   -0.0000000000
H        0.1332940000    0.0230730000   -0.0000000000
H        0.1336830000    0.0004590000   -0.0000000000
H        0.1383920000    0.0050220000    0.0000000000
H        0.1440940000    0.0037280000   -0.0000000000
C       -0.1521810000    0.9791810000    0.0000000000
H        0.1315350000   -0.0246980000    0.0000000000
13   
Frame  12 IRC: Energy =  -286.8592410000 ; +0.0690 kcal/mol
C       -0.0492100000    0.0537850000   -0.0000000000
C       -0.0308560000   -0.1163440000   -0.0000000000
C       -0.0607490000    0.0930550000   -0.0000000000
C       -0.0568400000   -0.1543840000    0.0000000000
C       -0.2897650000    0.1006540000   -0.0000000000
N       -0.1722450000    0.0353390000   -0.0000000000
H        0.1310330000    0.0011160000   -0.0000000000
H        0.1332570000    0.0230760000   -0.0000000000
H        0.1336330000    0.0004920000   -0.0000000000
H        0.1383640000    0.0050270000    0.0000000000
H        0.1440810000    0.0037410000   -0.0000000000
C       -0.1522080000    0.9792660000    0.0000000000
H        0.1315050000   -0.0248240000    0.0000000000
13   
Frame  13 IRC: Energy =  -286.8592050000 ; +0.0916 kcal/mol
C       -0.0490370000    0.0539490000   -0.0000000000
C       -0.0311500000   -0.1162350000   -0.0000000000
C       -0.0614270000    0.0947570000   -0.0000000000
C       -0.0588410000   -0.1544780000    0.0000000000
C       -0.2890160000    0.0997150000   -0.0000000000
N       -0.1722160000    0.0348710000   -0.0000000000
H        0.1310600000    0.0011150000   -0.0000000000
H        0.1331960000    0.0228170000   -0.0000000000
H        0.1339670000    0.0004780000   -0.0000000000
H        0.1383130000    0.0049850000    0.0000000000
H        0.1441530000    0.0037520000   -0.0000000000
C       -0.1509500000    0.9793590000    0.0000000000
H        0.1319480000   -0.0250860000    0.0000000000
13   
Frame  14 IRC: Energy =  -286.8591820000 ; +0.1060 kcal/mol
C       -0.0490820000    0.0535950000   -0.0000000000
C       -0.0303710000   -0.1162680000   -0.0000000000
C       -0.0619450000    0.0951300000   -0.0000000000
C       -0.0595890000   -0.1544070000    0.0000000000
C       -0.2891990000    0.0992240000   -0.0000000000
N       -0.1721930000    0.0347770000   -0.0000000000
H        0.1310370000    0.0011420000   -0.0000000000
H        0.1331930000    0.0227690000   -0.0000000000
H        0.1340130000    0.0004770000   -0.0000000000
H        0.1383260000    0.0049920000    0.0000000000
H        0.1442230000    0.0037540000   -0.0000000000
C       -0.1505700000    0.9799590000    0.0000000000
H        0.1321570000   -0.0251440000    0.0000000000
13   
Frame  15 IRC: Energy =  -286.8589100000 ; +0.2767 kcal/mol
C       -0.0441240000    0.0523120000   -0.0000000000
C       -0.0379290000   -0.1172320000   -0.0000000000
C       -0.0594810000    0.1057080000   -0.0000000000
C       -0.0650440000   -0.1528070000    0.0000000000
C       -0.2855260000    0.0929040000   -0.0000000000
N       -0.1741610000    0.0350080000   -0.0000000000
H        0.1309480000    0.0012110000   -0.0000000000
H        0.1324760000    0.0218580000   -0.0000000000
H        0.1344490000    0.0008030000   -0.0000000000
H        0.1380470000    0.0046520000    0.0000000000
H        0.1439840000    0.0040180000   -0.0000000000
C       -0.1470340000    0.9800850000    0.0000000000
H        0.1333940000   -0.0285190000    0.0000000000
13   
Frame  16 IRC: Energy =  -286.8588870000 ; +0.2912 kcal/mol
C       -0.0433040000    0.0516900000   -0.0000000000
C       -0.0385150000   -0.1173310000   -0.0000000000
C       -0.0589430000    0.1058660000   -0.0000000000
C       -0.0650660000   -0.1524400000    0.0000000000
C       -0.2858180000    0.0922260000   -0.0000000000
N       -0.1744390000    0.0351410000   -0.0000000000
H        0.1309180000    0.0012430000   -0.0000000000
H        0.1324140000    0.0218120000   -0.0000000000
H        0.1343600000    0.0008410000   -0.0000000000
H        0.1379910000    0.0046340000    0.0000000000
H        0.1439890000    0.0040270000   -0.0000000000
C       -0.1469630000    0.9810830000    0.0000000000
H        0.1333750000   -0.0287930000    0.0000000000
13   
Frame  17 IRC: Energy =  -286.8584840000 ; +0.5441 kcal/mol
C       -0.0388780000    0.0479630000   -0.0000000000
C       -0.0473790000   -0.1175360000   -0.0000000000
C       -0.0583020000    0.1182260000   -0.0000000000
C       -0.0747150000   -0.1502290000    0.0000000000
C       -0.2783470000    0.0840870000   -0.0000000000
N       -0.1762950000    0.0357960000   -0.0000000000
H        0.1308760000    0.0013340000   -0.0000000000
H        0.1317890000    0.0205210000   -0.0000000000
H        0.1349490000    0.0013210000   -0.0000000000
H        0.1377750000    0.0042220000    0.0000000000
H        0.1439900000    0.0041400000   -0.0000000000
C       -0.1410200000    0.9833310000    0.0000000000
H        0.1355580000   -0.0331770000    0.0000000000
13   
Frame  18 IRC: Energy =  -286.8584460000 ; +0.5679 kcal/mol
C       -0.0386410000    0.0470860000   -0.0000000000
C       -0.0474100000   -0.1175770000   -0.0000000000
C       -0.0580640000    0.1187360000   -0.0000000000
C       -0.0756680000   -0.1497760000    0.0000000000
C       -0.2783290000    0.0831500000   -0.0000000000
N       -0.1765350000    0.0359880000   -0.0000000000
H        0.1308610000    0.0013730000   -0.0000000000
H        0.1317600000    0.0204460000   -0.0000000000
H        0.1348590000    0.0013830000   -0.0000000000
H        0.1377460000    0.0042040000    0.0000000000
H        0.1440220000    0.0041530000   -0.0000000000
C       -0.1403780000    0.9843830000    0.0000000000
H        0.1357780000   -0.0335510000    0.0000000000
13   
Frame  19 IRC: Energy =  -286.8580680000 ; +0.8051 kcal/mol
C       -0.0346570000    0.0410470000   -0.0000000000
C       -0.0572810000   -0.1167600000   -0.0000000000
C       -0.0577750000    0.1299080000   -0.0000000000
C       -0.0834950000   -0.1464220000    0.0000000000
C       -0.2699520000    0.0742000000   -0.0000000000
N       -0.1779600000    0.0373290000   -0.0000000000
H        0.1309110000    0.0014540000   -0.0000000000
H        0.1312680000    0.0190350000   -0.0000000000
H        0.1351710000    0.0020300000   -0.0000000000
H        0.1376790000    0.0037290000    0.0000000000
H        0.1440710000    0.0041210000   -0.0000000000
C       -0.1352920000    0.9880360000    0.0000000000
H        0.1373110000   -0.0377060000    0.0000000000
13   
Frame  20 IRC: Energy =  -286.8580340000 ; +0.8264 kcal/mol
C       -0.0343170000    0.0400100000   -0.0000000000
C       -0.0574040000   -0.1166810000   -0.0000000000
C       -0.0575830000    0.1303840000   -0.0000000000
C       -0.0841770000   -0.1458890000    0.0000000000
C       -0.2698770000    0.0732500000   -0.0000000000
N       -0.1782170000    0.0375340000   -0.0000000000
H        0.1308860000    0.0014910000   -0.0000000000
H        0.1312500000    0.0189550000   -0.0000000000
H        0.1350670000    0.0021110000   -0.0000000000
H        0.1376580000    0.0037090000    0.0000000000
H        0.1441150000    0.0041290000   -0.0000000000
C       -0.1348300000    0.9890440000    0.0000000000
H        0.1374300000   -0.0380470000    0.0000000000
13   
Frame  21 IRC: Energy =  -286.8579260000 ; +0.8942 kcal/mol
C       -0.0334000000    0.0381950000   -0.0000000000
C       -0.0608860000   -0.1161010000   -0.0000000000
C       -0.0577690000    0.1339550000   -0.0000000000
C       -0.0865320000   -0.1447630000    0.0000000000
C       -0.2667520000    0.0704550000   -0.0000000000
N       -0.1783190000    0.0377900000   -0.0000000000
H        0.1309440000    0.0014910000   -0.0000000000
H        0.1311330000    0.0184360000   -0.0000000000
H        0.1352250000    0.0023300000   -0.0000000000
H        0.1376950000    0.0035330000    0.0000000000
H        0.1441130000    0.0040870000   -0.0000000000
C       -0.1332490000    0.9897330000    0.0000000000
H        0.1377980000   -0.0391400000    0.0000000000
13   
Frame  22 IRC: Energy =  -286.8578930000 ; +0.9149 kcal/mol
C       -0.0330890000    0.0370950000   -0.0000000000
C       -0.0611480000   -0.1159390000   -0.0000000000
C       -0.0576000000    0.1345780000   -0.0000000000
C       -0.0872450000   -0.1441710000    0.0000000000
C       -0.2665340000    0.0693990000   -0.0000000000
N       -0.1785740000    0.0379890000   -0.0000000000
H        0.1309300000    0.0015220000   -0.0000000000
H        0.1311210000    0.0183300000   -0.0000000000
H        0.1351340000    0.0024250000   -0.0000000000
H        0.1376880000    0.0035040000    0.0000000000
H        0.1441590000    0.0040920000   -0.0000000000
C       -0.1327550000    0.9906620000    0.0000000000
H        0.1379130000   -0.0394860000    0.0000000000
13   
Frame  23 IRC: Energy =  -286.8578170000 ; +0.9626 kcal/mol
C       -0.0323700000    0.0356260000   -0.0000000000
C       -0.0636400000   -0.1154310000   -0.0000000000
C       -0.0579270000    0.1371050000   -0.0000000000
C       -0.0889210000   -0.1432600000    0.0000000000
C       -0.2642280000    0.0672970000   -0.0000000000
N       -0.1784910000    0.0381280000   -0.0000000000
H        0.1309400000    0.0015310000   -0.0000000000
H        0.1310450000    0.0179260000   -0.0000000000
H        0.1352270000    0.0026010000   -0.0000000000
H        0.1377140000    0.0033730000    0.0000000000
H        0.1441590000    0.0040510000   -0.0000000000
C       -0.1316250000    0.9912620000    0.0000000000
H        0.1381160000   -0.0402070000    0.0000000000
13   
Frame  24 IRC: Energy =  -286.8577830000 ; +0.9839 kcal/mol
C       -0.0320870000    0.0344660000   -0.0000000000
C       -0.0640240000   -0.1151840000   -0.0000000000
C       -0.0578320000    0.1378820000   -0.0000000000
C       -0.0896930000   -0.1426050000    0.0000000000
C       -0.2638280000    0.0661220000   -0.0000000000
N       -0.1787160000    0.0383180000   -0.0000000000
H        0.1309360000    0.0015570000   -0.0000000000
H        0.1310380000    0.0177860000   -0.0000000000
H        0.1351430000    0.0027040000   -0.0000000000
H        0.1377090000    0.0033320000    0.0000000000
H        0.1442020000    0.0040500000   -0.0000000000
C       -0.1310610000    0.9921210000    0.0000000000
H        0.1382130000   -0.0405470000    0.0000000000
13   
Frame  25 IRC: Energy =  -286.8577280000 ; +1.0184 kcal/mol
C       -0.0319490000    0.0334220000   -0.0000000000
C       -0.0658150000   -0.1147180000   -0.0000000000
C       -0.0580520000    0.1397850000   -0.0000000000
C       -0.0907800000   -0.1418770000    0.0000000000
C       -0.2620860000    0.0645030000   -0.0000000000
N       -0.1786780000    0.0385020000   -0.0000000000
H        0.1310170000    0.0015480000   -0.0000000000
H        0.1310030000    0.0174840000   -0.0000000000
H        0.1352300000    0.0028360000   -0.0000000000
H        0.1377560000    0.0032240000    0.0000000000
H        0.1441990000    0.0040120000   -0.0000000000
C       -0.1301990000    0.9922930000    0.0000000000
H        0.1383530000   -0.0410130000    0.0000000000
13   
Frame  26 IRC: Energy =  -286.8576910000 ; +1.0417 kcal/mol
C       -0.0315870000    0.0321180000   -0.0000000000
C       -0.0663460000   -0.1143870000   -0.0000000000
C       -0.0581060000    0.1407560000   -0.0000000000
C       -0.0916550000   -0.1411360000    0.0000000000
C       -0.2614820000    0.0631660000   -0.0000000000
N       -0.1788320000    0.0386670000   -0.0000000000
H        0.1309930000    0.0015770000   -0.0000000000
H        0.1309970000    0.0173020000   -0.0000000000
H        0.1351480000    0.0029610000   -0.0000000000
H        0.1377530000    0.0031730000    0.0000000000
H        0.1442450000    0.0040040000   -0.0000000000
C       -0.1295650000    0.9931630000    0.0000000000
H        0.1384370000   -0.0413640000    0.0000000000
13   
Frame  27 IRC: Energy =  -286.8576520000 ; +1.0661 kcal/mol
C       -0.0313740000    0.0313690000   -0.0000000000
C       -0.0677100000   -0.1140320000   -0.0000000000
C       -0.0585030000    0.1421640000   -0.0000000000
C       -0.0924400000   -0.1406270000    0.0000000000
C       -0.2600820000    0.0620170000   -0.0000000000
N       -0.1786440000    0.0387320000   -0.0000000000
H        0.1310110000    0.0015780000   -0.0000000000
H        0.1309660000    0.0170610000   -0.0000000000
H        0.1352130000    0.0030630000   -0.0000000000
H        0.1377810000    0.0030940000    0.0000000000
H        0.1442370000    0.0039700000   -0.0000000000
C       -0.1289580000    0.9932720000    0.0000000000
H        0.1385050000   -0.0416610000    0.0000000000
13   
Frame  28 IRC: Energy =  -286.8576200000 ; +1.0862 kcal/mol
C       -0.0312030000    0.0301710000   -0.0000000000
C       -0.0680390000   -0.1136830000   -0.0000000000
C       -0.0585610000    0.1430390000   -0.0000000000
C       -0.0931910000   -0.1399320000    0.0000000000
C       -0.2595680000    0.0607840000   -0.0000000000
N       -0.1788250000    0.0389100000   -0.0000000000
H        0.1310100000    0.0015990000   -0.0000000000
H        0.1309750000    0.0168960000   -0.0000000000
H        0.1351290000    0.0031790000   -0.0000000000
H        0.1377780000    0.0030470000    0.0000000000
H        0.1442810000    0.0039610000   -0.0000000000
C       -0.1283530000    0.9939660000    0.0000000000
H        0.1385660000   -0.0419370000    0.0000000000
13   
Frame  29 IRC: Energy =  -286.8575820000 ; +1.1101 kcal/mol
C       -0.0313650000    0.0294180000   -0.0000000000
C       -0.0691510000   -0.1132800000   -0.0000000000
C       -0.0589760000    0.1444320000   -0.0000000000
C       -0.0938560000   -0.1393730000    0.0000000000
C       -0.2582200000    0.0595660000   -0.0000000000
N       -0.1787090000    0.0390920000   -0.0000000000
H        0.1310900000    0.0015910000   -0.0000000000
H        0.1309640000    0.0166680000   -0.0000000000
H        0.1351820000    0.0032790000   -0.0000000000
H        0.1378140000    0.0029650000    0.0000000000
H        0.1442770000    0.0039240000   -0.0000000000
C       -0.1276890000    0.9939060000    0.0000000000
H        0.1386400000   -0.0421880000    0.0000000000
13   
Frame  30 IRC: Energy =  -286.8575490000 ; +1.1308 kcal/mol
C       -0.0312120000    0.0282630000   -0.0000000000
C       -0.0694090000   -0.1129090000   -0.0000000000
C       -0.0592610000    0.1453970000   -0.0000000000
C       -0.0946190000   -0.1387210000    0.0000000000
C       -0.2575690000    0.0583670000   -0.0000000000
N       -0.1788120000    0.0392290000   -0.0000000000
H        0.1310640000    0.0016120000   -0.0000000000
H        0.1309760000    0.0164920000   -0.0000000000
H        0.1350930000    0.0034000000   -0.0000000000
H        0.1378050000    0.0029190000    0.0000000000
H        0.1443210000    0.0039140000   -0.0000000000
C       -0.1270670000    0.9944600000    0.0000000000
H        0.1386900000   -0.0424250000    0.0000000000
13   
Frame  31 IRC: Energy =  -286.8575130000 ; +1.1534 kcal/mol
C       -0.0312130000    0.0275530000   -0.0000000000
C       -0.0704130000   -0.1125490000   -0.0000000000
C       -0.0599090000    0.1466590000   -0.0000000000
C       -0.0951800000   -0.1382470000    0.0000000000
C       -0.2562650000    0.0572880000   -0.0000000000
N       -0.1785590000    0.0393470000   -0.0000000000
H        0.1310830000    0.0016170000   -0.0000000000
H        0.1309560000    0.0162680000   -0.0000000000
H        0.1351410000    0.0035020000   -0.0000000000
H        0.1378220000    0.0028470000    0.0000000000
H        0.1443160000    0.0038700000   -0.0000000000
C       -0.1265010000    0.9944640000    0.0000000000
H        0.1387220000   -0.0426180000    0.0000000000
13   
Frame  32 IRC: Energy =  -286.8574730000 ; +1.1785 kcal/mol
C       -0.0313460000    0.0263410000   -0.0000000000
C       -0.0705410000   -0.1120900000   -0.0000000000
C       -0.0604000000    0.1478710000   -0.0000000000
C       -0.0959500000   -0.1375560000    0.0000000000
C       -0.2554000000    0.0559430000   -0.0000000000
N       -0.1786810000    0.0395600000   -0.0000000000
H        0.1310930000    0.0016300000   -0.0000000000
H        0.1309840000    0.0160690000   -0.0000000000
H        0.1350550000    0.0036380000   -0.0000000000
H        0.1378080000    0.0027910000    0.0000000000
H        0.1443620000    0.0038480000   -0.0000000000
C       -0.1257530000    0.9947860000    0.0000000000
H        0.1387700000   -0.0428310000    0.0000000000
13   
Frame  33 IRC: Energy =  -286.8574380000 ; +1.2004 kcal/mol
C       -0.0317600000    0.0258900000   -0.0000000000
C       -0.0711740000   -0.1117730000   -0.0000000000
C       -0.0611420000    0.1490080000   -0.0000000000
C       -0.0962780000   -0.1372140000    0.0000000000
C       -0.2541910000    0.0550540000   -0.0000000000
N       -0.1784680000    0.0397610000   -0.0000000000
H        0.1311670000    0.0016220000   -0.0000000000
H        0.1309700000    0.0158880000   -0.0000000000
H        0.1350850000    0.0037080000   -0.0000000000
H        0.1378260000    0.0027300000    0.0000000000
H        0.1443510000    0.0038100000   -0.0000000000
C       -0.1252070000    0.9944600000    0.0000000000
H        0.1388210000   -0.0429450000    0.0000000000
13   
Frame  34 IRC: Energy =  -286.8573810000 ; +1.2362 kcal/mol
C       -0.0320000000    0.0246000000   -0.0000000000
C       -0.0710970000   -0.1112410000   -0.0000000000
C       -0.0622280000    0.1506450000   -0.0000000000
C       -0.0971110000   -0.1365650000    0.0000000000
C       -0.2529230000    0.0535720000   -0.0000000000
N       -0.1784840000    0.0399770000   -0.0000000000
H        0.1311350000    0.0016400000   -0.0000000000
H        0.1309920000    0.0156460000   -0.0000000000
H        0.1349710000    0.0038700000   -0.0000000000
H        0.1377840000    0.0026740000    0.0000000000
H        0.1444060000    0.0037780000   -0.0000000000
C       -0.1243120000    0.9945390000    0.0000000000
H        0.1388660000   -0.0431350000    0.0000000000
13   
Frame  35 IRC: Energy =  -286.8573400000 ; +1.2619 kcal/mol
C       -0.0322760000    0.0242730000   -0.0000000000
C       -0.0715700000   -0.1110150000   -0.0000000000
C       -0.0632070000    0.1516420000   -0.0000000000
C       -0.0972680000   -0.1363670000    0.0000000000
C       -0.2518020000    0.0528870000   -0.0000000000
N       -0.1781350000    0.0401120000   -0.0000000000
H        0.1311500000    0.0016440000   -0.0000000000
H        0.1309740000    0.0154910000   -0.0000000000
H        0.1350270000    0.0039360000   -0.0000000000
H        0.1377780000    0.0026270000    0.0000000000
H        0.1443910000    0.0037320000   -0.0000000000
C       -0.1239480000    0.9942420000    0.0000000000
H        0.1388860000   -0.0432030000    0.0000000000
13   
Frame  36 IRC: Energy =  -286.8572510000 ; +1.3178 kcal/mol
C       -0.0330120000    0.0230800000   -0.0000000000
C       -0.0709510000   -0.1104350000   -0.0000000000
C       -0.0648130000    0.1538010000   -0.0000000000
C       -0.0980160000   -0.1358630000    0.0000000000
C       -0.2502380000    0.0513490000   -0.0000000000
N       -0.1782120000    0.0404370000   -0.0000000000
H        0.1311520000    0.0016490000   -0.0000000000
H        0.1310070000    0.0152500000   -0.0000000000
H        0.1349070000    0.0040990000   -0.0000000000
H        0.1376950000    0.0025760000    0.0000000000
H        0.1444550000    0.0036900000   -0.0000000000
C       -0.1229170000    0.9937020000    0.0000000000
H        0.1389420000   -0.0433360000    0.0000000000
13   
Frame  37 IRC: Energy =  -286.8571900000 ; +1.3560 kcal/mol
C       -0.0335700000    0.0229600000   -0.0000000000
C       -0.0712640000   -0.1102060000   -0.0000000000
C       -0.0663390000    0.1549770000   -0.0000000000
C       -0.0978370000   -0.1358070000    0.0000000000
C       -0.2489140000    0.0507050000   -0.0000000000
N       -0.1776980000    0.0406260000   -0.0000000000
H        0.1311770000    0.0016500000   -0.0000000000
H        0.1309490000    0.0150780000   -0.0000000000
H        0.1349300000    0.0041340000   -0.0000000000
H        0.1376940000    0.0025390000    0.0000000000
H        0.1444290000    0.0036480000   -0.0000000000
C       -0.1225550000    0.9930660000    0.0000000000
H        0.1389990000   -0.0433690000    0.0000000000
13   
Frame  38 IRC: Energy =  -286.8570660000 ; +1.4339 kcal/mol
C       -0.0343770000    0.0220640000   -0.0000000000
C       -0.0701150000   -0.1097180000   -0.0000000000
C       -0.0680210000    0.1574400000   -0.0000000000
C       -0.0985030000   -0.1356300000    0.0000000000
C       -0.2474960000    0.0494820000   -0.0000000000
N       -0.1778840000    0.0408700000   -0.0000000000
H        0.1311510000    0.0016460000   -0.0000000000
H        0.1309980000    0.0148990000   -0.0000000000
H        0.1348490000    0.0042800000   -0.0000000000
H        0.1375530000    0.0025160000    0.0000000000
H        0.1445040000    0.0036050000   -0.0000000000
C       -0.1216840000    0.9919730000    0.0000000000
H        0.1390230000   -0.0434260000    0.0000000000
13   