
Running Job 1 of 1 irc_product.in
qchem irc_product.in_3722.0 ./irc_product.d/ 1
/home/leeping/opt/qchem/5.0.2-openmp/exe/qcprog.exe_s irc_product.in_3722.0 ./irc_product.d/
Check license passed

                  Welcome to Q-Chem
     A Quantum Leap Into The Future Of Chemistry


 Q-Chem 5.0, Q-Chem, Inc., Pleasanton, CA (2017)

 Yihan Shao,  Zhengting Gan,  E. Epifanovsky,  A. T. B. Gilbert,  M. Wormit,  
 J. Kussmann,  A. W. Lange,  A. Behn,  Jia Deng,  Xintian Feng,  D. Ghosh,  
 M. Goldey,  P. R. Horn,  L. D. Jacobson,  I. Kaliman,  T. Kus,  A. Landau,  
 Jie Liu,  E. I. Proynov,  R. M. Richard,  R. P. Steele,  E. J. Sundstrom,  
 H. L. Woodcock III,  P. M. Zimmerman,  D. Zuev,  B. Albrecht,  E. Alguire,  
 S. A. Baeppler,  D. Barton,  Z. Benda,  Y. A. Bernard,  E. J. Berquist,  
 K. B. Bravaya,  H. Burton,  D. Casanova,  Chun-Min Chang,  Yunqing Chen,  
 A. Chien,  K. D. Closser,  M. P. Coons,  S. Dasgupta,  A. L. Dempwolff,  
 M. Diedenhofen,  Hainam Do,  R. G. Edgar,  Po-Tung Fang,  S. Fatehi,  
 Qingguo Feng,  J. Fosso-Tande,  Qinghui Ge,  A. Ghysels,  G. Gidofalvi,  
 J. Gomes,  J. Gonthier,  A. Gunina,  M. W. D. Hanson-Heine,  
 P. H. P. Harbach,  A. W. Hauser,  J. E. Herr,  E. G. Hohenstein,  
 Z. C. Holden,  Kerwin Hui,  T.-C. Jagau,  Hyunjun Ji,  B. Kaduk,  
 K. Khistyaev,  Jaehoon Kim,  P. Klunzinger,  K. Koh,  D. Kosenkov,  
 L. Koulias,  T. Kowalczyk,  C. M. Krauter,  A. Kunitsa,  Ka Un Lao,  
 A. Laurent,  K. V. Lawler,  Joonho Lee,  D. Lefrancois,  S. Lehtola,  
 D. S. Levine,  Yi-Pei Li,  You-Sheng Lin,  Fenglai Liu,  E. Livshits,  
 A. Luenser,  P. Manohar,  E. Mansoor,  S. F. Manzer,  Shan-Ping Mao,  
 Yuezhi Mao,  N. Mardirossian,  A. V. Marenich,  T. Markovich,  
 L. A. Martinez-Martinez,  S. A. Maurer,  N. J. Mayhall,  S. C. McKenzie,  
 J.-M. Mewes,  A. F. Morrison,  J. W. Mullinax,  K. Nanda,  
 T. S. Nguyen-Beck,  R. Olivares-Amaya,  J. A. Parkhill,  T. M. Perrine,  
 F. Plasser,  S. Prager,  A. Prociuk,  E. Ramos,  D. R. Rehn,  F. Rob,  
 M. Schneider,  N. Sergueev,  S. M. Sharada,  S. Sharma,  D. W. Small,  
 T. Stauch,  T. Stein,  Yu-Chuan Su,  A. J. W. Thom,  A. Tkatchenko,  
 T. Tsuchimochi,  L. Vogt,  O. Vydrov,  M. A. Watson,  J. Wenzel,  
 M. de Wergifosse,  T. A. Wesolowski,  A. White,  J. Witte,  A. Yamada,  
 Jun Yang,  K. Yao,  S. Yeganeh,  S. R. Yost,  Zhi-Qiang You,  A. Zech,  
 Igor Ying Zhang,  Xing Zhang,  Yan Zhao,  Ying Zhu,  B. R. Brooks,  
 G. K. L. Chan,  C. J. Cramer,  M. S. Gordon,  W. J. Hehre,  A. Klamt,  
 M. W. Schmidt,  C. D. Sherrill,  D. G. Truhlar,  A. Aspuru-Guzik,  R. Baer,  
 A. T. Bell,  N. A. Besley,  Jeng-Da Chai,  R. A. DiStasio Jr.,  A. Dreuw,  
 B. D. Dunietz,  T. R. Furlani,  Chao-Ping Hsu,  Yousung Jung,  Jing Kong,  
 D. S. Lambrecht,  WanZhen Liang,  C. Ochsenfeld,  V. A. Rassolov,  
 L. V. Slipchenko,  J. E. Subotnik,  T. Van Voorhis,  J. M. Herbert,  
 A. I. Krylov,  P. M. W. Gill,  M. Head-Gordon

 Contributors to earlier versions of Q-Chem not listed above: 
 R. D. Adamson,  B. Austin,  J. Baker,  G. J. O. Beran,  K. Brandhorst,  
 S. T. Brown,  E. F. C. Byrd,  A. K. Chakraborty,  C.-L. Cheng,  
 Siu Hung Chien,  D. M. Chipman,  D. L. Crittenden,  H. Dachsel,  
 R. J. Doerksen,  A. D. Dutoi,  L. Fusti-Molnar,  W. A. Goddard III,  
 A. Golubeva-Zadorozhnaya,  S. R. Gwaltney,  G. Hawkins,  A. Heyden,  
 S. Hirata,  G. Kedziora,  F. J. Keil,  C. Kelley,  Jihan Kim,  R. A. King,  
 R. Z. Khaliullin,  P. P. Korambath,  W. Kurlancheek,  A. M. Lee,  M. S. Lee,  
 S. V. Levchenko,  Ching Yeh Lin,  D. Liotard,  R. C. Lochan,  I. Lotan,  
 P. E. Maslen,  N. Nair,  D. P. O'Neill,  D. Neuhauser,  E. Neuscamman,  
 C. M. Oana,  R. Olson,  B. Peters,  R. Peverati,  P. A. Pieniazek,  
 Y. M. Rhee,  J. Ritchie,  M. A. Rohrdanz,  E. Rosta,  N. J. Russ,  
 H. F. Schaefer III,  N. E. Schultz,  N. Shenvi,  A. C. Simmonett,  A. Sodt,  
 D. Stuck,  K. S. Thanthiriwatte,  V. Vanovschi,  Tao Wang,  A. Warshel,  
 C. F. Williams,  Q. Wu,  X. Xu,  W. Zhang

 Please cite Q-Chem as follows:
 Y. Shao et al., Mol. Phys. 113, 184-215 (2015)
 DOI: 10.1080/00268976.2014.952696

 Q-Chem 5.0.2 for Intel X86 EM64T Linux

 Parts of Q-Chem use Armadillo 5.200.1 (Boston Tea Smuggler).
 http://arma.sourceforge.net/

 Q-Chem begins on Wed Mar  2 22:05:11 2022  

Host: 
0

     Scratch files written to ./irc_product.d//
 Dec517 15110_ 26548  26544 5633   
Processing $rem in /home/leeping/opt/qchem/5.0.2-openmp/config/preferences.
 MEM_STATIC 2000
 MEM_TOTAL  8000
 SYMMETRY   OFF
 SYM_IGNORE TRUE 

Checking the input file for inconsistencies... 	...done.

--------------------------------------------------------------
User input:
--------------------------------------------------------------
$molecule
0 2
C        1.5302432459    0.3168656677   -0.2498989377
C        0.5997421009   -0.9048222158   -0.1153124090
C       -0.4126286376   -0.4434815996   -1.1697675340
C       -0.9867633594    0.4908055767    0.8423491256
C       -0.5652962661    0.9461798030   -0.5633453307
N        0.8870956888    1.3924858918   -0.4985593091
H        2.6111962129    0.2954898233   -0.1280808732
H        1.0527729940   -1.8927768894   -0.1861997360
H       -1.2492063221   -1.0577059784   -1.4967553313
H       -1.7017750516    1.0036623626    1.4743967631
H       -1.1918517816    1.6898851304   -1.0515032301
C       -0.2842204656   -0.6230851325    1.1170845698
H       -0.2893083586   -1.2135024400    2.0255922326
$end

$rem
method                b3lyp
basis                 6-31+g(d,p)
unrestricted          true
symmetry              off
sym_ignore            true
incdft                false
incfock               0
scf_convergence       8
thresh                14
jobtype               sp
scf_guess             core
scf_guess_mix         5
scf_algorithm         diis
max_scf_cycles        100
$end

--------------------------------------------------------------
 ----------------------------------------------------------------
             Standard Nuclear Orientation (Angstroms)
    I     Atom           X                Y                Z
 ----------------------------------------------------------------
    1      C       1.5302432459     0.3168656677    -0.2498989377
    2      C       0.5997421009    -0.9048222158    -0.1153124090
    3      C      -0.4126286376    -0.4434815996    -1.1697675340
    4      C      -0.9867633594     0.4908055767     0.8423491256
    5      C      -0.5652962661     0.9461798030    -0.5633453307
    6      N       0.8870956888     1.3924858918    -0.4985593091
    7      H       2.6111962129     0.2954898233    -0.1280808732
    8      H       1.0527729940    -1.8927768894    -0.1861997360
    9      H      -1.2492063221    -1.0577059784    -1.4967553313
   10      H      -1.7017750516     1.0036623626     1.4743967631
   11      H      -1.1918517816     1.6898851304    -1.0515032301
   12      C      -0.2842204656    -0.6230851325     1.1170845698
   13      H      -0.2893083586    -1.2135024400     2.0255922326
 ----------------------------------------------------------------
 Nuclear Repulsion Energy =   279.0215581166 hartrees
 There are       25 alpha and       24 beta electrons
 Requested basis set is 6-31+G(d,p)
 There are 53 shells and 163 basis functions

 Total QAlloc Memory Limit   8000 MB
 Mega-Array Size      1956 MB
 MEM_STATIC part      2000 MB

                       Distance Matrix (Angstroms)
             C (  1)   C (  2)   C (  3)   C (  4)   C (  5)   N (  6)
   C (  2)  1.541579
   C (  3)  2.280140  1.532842
   C (  4)  2.749288  2.319891  2.291536
   C (  5)  2.210333  2.232545  1.523881  1.536547
   N (  6)  1.277666  2.346716  2.347463  2.474351  1.520799
   H (  7)  1.088005  2.342405  3.282485  3.731648  3.271537  2.076819
   H (  8)  2.261538  1.089182  2.283695  3.301376  3.289386  3.304235
   H (  9)  3.342071  2.313086  1.088143  2.817477  2.313989  3.400533
   H ( 10)  3.727040  3.386218  3.278373  1.083397  2.333941  3.278108
   H ( 11)  3.152388  3.289190  2.274297  2.250895  1.088103  2.171685
   C ( 12)  2.458542  1.542585  2.297485  1.345288  2.316342  2.836338
   H ( 13)  3.290996  2.338625  3.289143  2.188875  3.382750  3.813980
             H (  7)   H (  8)   H (  9)   H ( 10)   H ( 11)   C ( 12)
   H (  8)  2.687112
   H (  9)  4.313597  2.777410
   H ( 10)  4.655230  4.328334  3.644421
   H ( 11)  4.154542  4.315386  2.784025  2.666663
   C ( 12)  3.282934  2.257924  2.819974  2.187108  3.297939
   H ( 13)  3.915136  2.674812  3.654122  2.686019  4.325825  1.083515

 
 A cutoff of  1.0D-14 yielded   1410 shell pairs
 There are     13528 function pairs
 
 -------------------------------------------------------
 OpenMP Integral Computing Module                       
 Release: version 1.0, May 2013, Q-Chem Inc. Pittsburgh 
 -------------------------------------------------------
 Integral Job Info:
 Integral job number is                      11
 Integral operator is                         1
 short-range coefficients                     0
 long-range coefficients              100000000
 Omega coefficients                           0
 if combine SR and LR in K                    0
 Integral screening is                        0
 Integral computing path is                   2
 max size of driver memory is            800000
 size of driver memory is                593474
 size of scratch memory is              2361544
 max col of scratch BK array               1296
 max len of scratch array in speh3          155
 max len of scratch index in speh4           18
 max int batch size is                      520
 min int batch size is                       52
 fixed nKL is                                52
 max L of basis functions is                  2
 order of int derivative is                   0
 number of shells is                         53
 number of basis is                         163
 number of cartesian basis is               163
 number of contracted shell pairs          1410
 number of primitive shell pairs           4819
 maxK2 (contraction) of shell pair           36
 max number of K2 of shell pair               1
 max number of CS2 of shell pair            127
 max number of PS2 of shell pair            684
 mem total for path MDJ                  535308
 -------------------------------------------------------
 Smallest overlap matrix eigenvalue = 2.22E-05

 Scale SEOQF with 1.000000e-01/1.000000e-01/1.000000e-01

 Standard Electronic Orientation quadrupole field applied
 Nucleus-field energy     =     0.0000000008 hartrees
 Guess MOs from core Hamiltonian diagonalization
 Mixing HOMO and LUMO in initial guess
 Adding  50% of the LUMO to the HOMO
 An unrestricted hybrid HF-DFT SCF calculation will be
 performed using Pulay DIIS extrapolation
 Exchange:     0.2000 Hartree-Fock + 0.0800 Slater + 0.7200 B88
 Correlation:  0.1900 VWN1RPA + 0.8100 LYP
 Using SG-1 standard quadrature grid
 SCF converges when DIIS error is below 1.0E-08
 using 4 threads for integral computing
 -------------------------------------------------------
 OpenMP Integral computing Module                
 Release: version 1.0, May 2013, Q-Chem Inc. Pittsburgh 
 -------------------------------------------------------
 -------------------------------------------------------
 OpenMP BLAS3 based DFT computing Module                
 Release: version 1.0, May 2013, Q-Chem Inc. Pittsburgh 
 -------------------------------------------------------
 ---------------------------------------
  Cycle       Energy         DIIS Error
 ---------------------------------------
    1    -234.7444364977      1.00E-01
    2    -215.2746761564      7.13E-02
    3    -253.7343276201      7.79E-02
    4    -280.8549221313      3.80E-02
    5    -279.8714454908      3.54E-02
    6    -286.0819409030      1.37E-02
    7    -286.2283869171      1.30E-02
    8    -286.7782927117      5.29E-03
    9    -286.8471734912      2.91E-03
   10    -286.8707042928      9.24E-04
   11    -286.8731659433      3.06E-04
   12    -286.8734931904      5.01E-05
   13    -286.8735051923      1.53E-05
   14    -286.8735065558      6.05E-06
   15    -286.8735070080      2.00E-06
   16    -286.8735072041      4.35E-07
   17    -286.8735072583      1.36E-07
   18    -286.8735072738      5.98E-08
   19    -286.8735072843      3.89E-08
   20    -286.8735072896      2.23E-08
   21    -286.8735072912      6.17E-09 Convergence criterion met
 ---------------------------------------
 <S^2> = 0.7539
 SCF time:  CPU 106.81 s  wall 33.96 s
 SCF   energy in the final basis set = -286.87350729
 Total energy in the final basis set = -286.87350729
 
 --------------------------------------------------------------
 
                    Orbital Energies (a.u.)
 --------------------------------------------------------------
 
 Alpha MOs
 -- Occupied --
-14.337 -10.234 -10.231 -10.221 -10.216 -10.213 -10.209  -0.965
 -0.833  -0.737  -0.715  -0.589  -0.583  -0.539  -0.520  -0.481
 -0.429  -0.420  -0.391  -0.383  -0.358  -0.305  -0.283  -0.271
 -0.206
 -- Virtual --
 -0.041   0.002   0.002   0.020   0.026   0.032   0.048   0.049
  0.065   0.072   0.075   0.093   0.104   0.106   0.109   0.120
  0.121   0.131   0.138   0.150   0.169   0.171   0.185   0.190
  0.193   0.199   0.204   0.219   0.230   0.234   0.239   0.248
  0.257   0.267   0.280   0.286   0.303   0.325   0.336   0.343
  0.353   0.392   0.421   0.455   0.616   0.669   0.681   0.701
  0.707   0.717   0.727   0.737   0.746   0.764   0.777   0.789
  0.805   0.832   0.859   0.893   0.898   0.951   0.959   0.994
  1.011   1.026   1.053   1.071   1.083   1.107   1.121   1.146
  1.210   1.288   1.308   1.331   1.360   1.406   1.428   1.481
  1.499   1.576   1.624   1.685   1.744   1.754   1.808   1.831
  1.890   1.899   1.971   1.987   2.032   2.048   2.093   2.112
  2.122   2.171   2.218   2.265   2.292   2.324   2.353   2.396
  2.402   2.449   2.454   2.478   2.495   2.513   2.517   2.558
  2.590   2.605   2.626   2.636   2.686   2.742   2.776   2.791
  2.817   2.867   2.916   3.043   3.111   3.286   3.329   3.387
  3.447   3.541   3.718   4.140   4.375   4.473   4.555   4.612
  4.763   4.827
 
 Beta MOs
 -- Occupied --
-14.336 -10.235 -10.231 -10.221 -10.211 -10.208 -10.203  -0.961
 -0.827  -0.735  -0.700  -0.587  -0.571  -0.536  -0.517  -0.472
 -0.425  -0.416  -0.389  -0.379  -0.352  -0.298  -0.273  -0.268
 -- Virtual --
 -0.064  -0.036   0.003   0.004   0.021   0.028   0.033   0.048
  0.050   0.068   0.073   0.076   0.094   0.105   0.107   0.109
  0.120   0.127   0.132   0.140   0.152   0.170   0.171   0.185
  0.191   0.197   0.200   0.208   0.223   0.233   0.238   0.241
  0.250   0.260   0.269   0.280   0.291   0.308   0.328   0.340
  0.345   0.362   0.393   0.422   0.457   0.619   0.682   0.687
  0.710   0.714   0.725   0.733   0.740   0.750   0.769   0.791
  0.795   0.808   0.835   0.861   0.899   0.905   0.953   0.967
  0.999   1.013   1.029   1.058   1.077   1.084   1.109   1.125
  1.149   1.213   1.292   1.311   1.336   1.364   1.408   1.433
  1.486   1.508   1.585   1.630   1.692   1.747   1.760   1.817
  1.841   1.895   1.911   1.974   1.990   2.048   2.055   2.097
  2.123   2.130   2.173   2.224   2.272   2.306   2.326   2.359
  2.398   2.406   2.453   2.457   2.480   2.497   2.517   2.521
  2.565   2.601   2.610   2.636   2.638   2.689   2.746   2.779
  2.797   2.821   2.871   2.918   3.045   3.113   3.287   3.330
  3.396   3.450   3.542   3.719   4.142   4.385   4.477   4.571
  4.620   4.766   4.828
 --------------------------------------------------------------
 
          Ground-State Mulliken Net Atomic Charges

     Atom                 Charge (a.u.)    Spin (a.u.)
  --------------------------------------------------------
      1 C                    -0.092048      -0.031251
      2 C                     0.008865      -0.061164
      3 C                    -0.271211       1.035699
      4 C                    -0.145682       0.046252
      5 C                     0.024196      -0.090239
      6 N                    -0.203139       0.025770
      7 H                     0.137416      -0.000110
      8 H                     0.124706       0.003433
      9 H                     0.138818      -0.026201
     10 H                     0.138804       0.000613
     11 H                     0.129386       0.003558
     12 C                    -0.128470       0.093430
     13 H                     0.138359       0.000210
  --------------------------------------------------------
  Sum of atomic charges =    -0.000000
  Sum of spin   charges =     1.000000

 -----------------------------------------------------------------
                    Cartesian Multipole Moments
 -----------------------------------------------------------------
    Charge (ESU x 10^10)
                -0.0000
    Dipole Moment (Debye)
         X      -0.8082      Y      -2.1820      Z       1.1368
       Tot       2.5897
    Quadrupole Moments (Debye-Ang)
        XX     -38.7165     XY      -4.8125     YY     -44.2607
        XZ       1.1046     YZ       0.5110     ZZ     -42.4870
    Octopole Moments (Debye-Ang^2)
       XXX      -3.8377    XXY      -6.2494    XYY     -11.5602
       YYY     -29.2427    XXZ       3.4040    XYZ       0.3973
       YYZ       5.8500    XZZ      -8.7511    YZZ      -8.1192
       ZZZ      17.4682
    Hexadecapole Moments (Debye-Ang^3)
      XXXX    -243.7971   XXXY      -9.7154   XXYY     -87.9926
      XYYY     -24.4355   YYYY    -259.0210   XXXZ      22.3479
      XXYZ      11.5614   XYYZ      12.1980   YYYZ      21.2742
      XXZZ     -79.3107   XYZZ      -4.5991   YYZZ     -74.8834
      XZZZ      21.5353   YZZZ      11.9640   ZZZZ    -228.2565
 -----------------------------------------------------------------
Archival summary:
1\1\c8-66\SP\ProcedureUnspecified\6-31+G**\166(2)\hpark21\WedMar222:05:482022WedMar222:05:482022\0\\#,ProcedureUnspecified,6-31+G**,\\0,2\N\C,1,1.27767\H,2,1.08801,1,122.578\C,1,1.5208,2,104.003,3,-179.232,0\H,4,1.0881,1,111.62,2,-163.177,0\C,4,1.52388,1,100.888,2,-34.3766,0\H,6,1.08814,4,123.87,1,-171.996,0\C,6,1.53284,4,93.8347,1,53.387,0\H,8,1.08918,6,120.194,4,-176.871,0\C,4,1.53655,1,108.057,2,66.7285,0\H,10,1.0834,4,125.061,1,111.756,0\C,10,1.34529,4,106.796,1,-67.1111,0\H,12,1.08351,10,128.314,4,178.011,0\\\@

 Total job time:  36.34s(wall), 108.41s(cpu) 
 Wed Mar  2 22:05:48 2022

        *************************************************************
        *                                                           *
        *  Thank you very much for using Q-Chem.  Have a nice day.  *
        *                                                           *
        *************************************************************


