
Running Job 1 of 1 qcopt_prd.in
qchem qcopt_prd.in_53101.0 ./qcopt_prd.d/ 1
/home/leeping/opt/qchem/5.0.2-openmp/exe/qcprog.exe_s qcopt_prd.in_53101.0 ./qcopt_prd.d/
Check license passed

                  Welcome to Q-Chem
     A Quantum Leap Into The Future Of Chemistry


 Q-Chem 5.0, Q-Chem, Inc., Pleasanton, CA (2017)

 Yihan Shao,  Zhengting Gan,  E. Epifanovsky,  A. T. B. Gilbert,  M. Wormit,  
 J. Kussmann,  A. W. Lange,  A. Behn,  Jia Deng,  Xintian Feng,  D. Ghosh,  
 M. Goldey,  P. R. Horn,  L. D. Jacobson,  I. Kaliman,  T. Kus,  A. Landau,  
 Jie Liu,  E. I. Proynov,  R. M. Richard,  R. P. Steele,  E. J. Sundstrom,  
 H. L. Woodcock III,  P. M. Zimmerman,  D. Zuev,  B. Albrecht,  E. Alguire,  
 S. A. Baeppler,  D. Barton,  Z. Benda,  Y. A. Bernard,  E. J. Berquist,  
 K. B. Bravaya,  H. Burton,  D. Casanova,  Chun-Min Chang,  Yunqing Chen,  
 A. Chien,  K. D. Closser,  M. P. Coons,  S. Dasgupta,  A. L. Dempwolff,  
 M. Diedenhofen,  Hainam Do,  R. G. Edgar,  Po-Tung Fang,  S. Fatehi,  
 Qingguo Feng,  J. Fosso-Tande,  Qinghui Ge,  A. Ghysels,  G. Gidofalvi,  
 J. Gomes,  J. Gonthier,  A. Gunina,  M. W. D. Hanson-Heine,  
 P. H. P. Harbach,  A. W. Hauser,  J. E. Herr,  E. G. Hohenstein,  
 Z. C. Holden,  Kerwin Hui,  T.-C. Jagau,  Hyunjun Ji,  B. Kaduk,  
 K. Khistyaev,  Jaehoon Kim,  P. Klunzinger,  K. Koh,  D. Kosenkov,  
 L. Koulias,  T. Kowalczyk,  C. M. Krauter,  A. Kunitsa,  Ka Un Lao,  
 A. Laurent,  K. V. Lawler,  Joonho Lee,  D. Lefrancois,  S. Lehtola,  
 D. S. Levine,  Yi-Pei Li,  You-Sheng Lin,  Fenglai Liu,  E. Livshits,  
 A. Luenser,  P. Manohar,  E. Mansoor,  S. F. Manzer,  Shan-Ping Mao,  
 Yuezhi Mao,  N. Mardirossian,  A. V. Marenich,  T. Markovich,  
 L. A. Martinez-Martinez,  S. A. Maurer,  N. J. Mayhall,  S. C. McKenzie,  
 J.-M. Mewes,  A. F. Morrison,  J. W. Mullinax,  K. Nanda,  
 T. S. Nguyen-Beck,  R. Olivares-Amaya,  J. A. Parkhill,  T. M. Perrine,  
 F. Plasser,  S. Prager,  A. Prociuk,  E. Ramos,  D. R. Rehn,  F. Rob,  
 M. Schneider,  N. Sergueev,  S. M. Sharada,  S. Sharma,  D. W. Small,  
 T. Stauch,  T. Stein,  Yu-Chuan Su,  A. J. W. Thom,  A. Tkatchenko,  
 T. Tsuchimochi,  L. Vogt,  O. Vydrov,  M. A. Watson,  J. Wenzel,  
 M. de Wergifosse,  T. A. Wesolowski,  A. White,  J. Witte,  A. Yamada,  
 Jun Yang,  K. Yao,  S. Yeganeh,  S. R. Yost,  Zhi-Qiang You,  A. Zech,  
 Igor Ying Zhang,  Xing Zhang,  Yan Zhao,  Ying Zhu,  B. R. Brooks,  
 G. K. L. Chan,  C. J. Cramer,  M. S. Gordon,  W. J. Hehre,  A. Klamt,  
 M. W. Schmidt,  C. D. Sherrill,  D. G. Truhlar,  A. Aspuru-Guzik,  R. Baer,  
 A. T. Bell,  N. A. Besley,  Jeng-Da Chai,  R. A. DiStasio Jr.,  A. Dreuw,  
 B. D. Dunietz,  T. R. Furlani,  Chao-Ping Hsu,  Yousung Jung,  Jing Kong,  
 D. S. Lambrecht,  WanZhen Liang,  C. Ochsenfeld,  V. A. Rassolov,  
 L. V. Slipchenko,  J. E. Subotnik,  T. Van Voorhis,  J. M. Herbert,  
 A. I. Krylov,  P. M. W. Gill,  M. Head-Gordon

 Contributors to earlier versions of Q-Chem not listed above: 
 R. D. Adamson,  B. Austin,  J. Baker,  G. J. O. Beran,  K. Brandhorst,  
 S. T. Brown,  E. F. C. Byrd,  A. K. Chakraborty,  C.-L. Cheng,  
 Siu Hung Chien,  D. M. Chipman,  D. L. Crittenden,  H. Dachsel,  
 R. J. Doerksen,  A. D. Dutoi,  L. Fusti-Molnar,  W. A. Goddard III,  
 A. Golubeva-Zadorozhnaya,  S. R. Gwaltney,  G. Hawkins,  A. Heyden,  
 S. Hirata,  G. Kedziora,  F. J. Keil,  C. Kelley,  Jihan Kim,  R. A. King,  
 R. Z. Khaliullin,  P. P. Korambath,  W. Kurlancheek,  A. M. Lee,  M. S. Lee,  
 S. V. Levchenko,  Ching Yeh Lin,  D. Liotard,  R. C. Lochan,  I. Lotan,  
 P. E. Maslen,  N. Nair,  D. P. O'Neill,  D. Neuhauser,  E. Neuscamman,  
 C. M. Oana,  R. Olson,  B. Peters,  R. Peverati,  P. A. Pieniazek,  
 Y. M. Rhee,  J. Ritchie,  M. A. Rohrdanz,  E. Rosta,  N. J. Russ,  
 H. F. Schaefer III,  N. E. Schultz,  N. Shenvi,  A. C. Simmonett,  A. Sodt,  
 D. Stuck,  K. S. Thanthiriwatte,  V. Vanovschi,  Tao Wang,  A. Warshel,  
 C. F. Williams,  Q. Wu,  X. Xu,  W. Zhang

 Please cite Q-Chem as follows:
 Y. Shao et al., Mol. Phys. 113, 184-215 (2015)
 DOI: 10.1080/00268976.2014.952696

 Q-Chem 5.0.2 for Intel X86 EM64T Linux

 Parts of Q-Chem use Armadillo 5.200.1 (Boston Tea Smuggler).
 http://arma.sourceforge.net/

 Q-Chem begins on Wed Mar  2 18:12:48 2022  

Host: 
0

     Scratch files written to ./qcopt_prd.d//
 Dec517 15110_ 26548  26544 5633   
Processing $rem in /home/leeping/opt/qchem/5.0.2-openmp/config/preferences.
 MEM_STATIC 2000
 MEM_TOTAL  8000
 SYMMETRY   OFF
 SYM_IGNORE TRUE 

Checking the input file for inconsistencies... 	...done.

--------------------------------------------------------------
User input:
--------------------------------------------------------------
$molecule
0 2
C        1.6734165274    0.3585994487   -0.4786081570
C        1.0560964190   -0.9023133348   -0.4899042838
C       -0.4210820371   -0.6979284812   -0.4122503498
C       -1.0940610298    0.7178317038    1.0191400177
C       -0.4966459967    0.8809769575   -0.3786482585
N        0.8626220794    1.4102193109   -0.4174465208
H        2.7509730711    0.5169359842   -0.4918985162
H        1.5698937605   -1.8573436279   -0.5079707163
H       -1.0049221580   -1.2412848790   -1.1669316396
H       -1.4016860956    1.4518428844    1.7577843526
H       -1.1335018324    1.3801692155   -1.1194248033
C       -1.0443735287   -0.6184600040    0.9905342412
H       -1.3167291791   -1.3992451781    1.6956246336
$end

$rem
method                b3lyp
basis                 6-31g(d)
unrestricted          true
symmetry              off
sym_ignore            true
incdft                false
incfock               0
scf_convergence       8
thresh                14
jobtype               opt
scf_guess             core
scf_guess_mix         5
scf_algorithm         diis
max_scf_cycles        100
geom_opt_max_cycles   300
$end

--------------------------------------------------------------
 ----------------------------------------------------------------
             Standard Nuclear Orientation (Angstroms)
    I     Atom           X                Y                Z
 ----------------------------------------------------------------
    1      C       1.6734165274     0.3585994487    -0.4786081570
    2      C       1.0560964190    -0.9023133348    -0.4899042838
    3      C      -0.4210820371    -0.6979284812    -0.4122503498
    4      C      -1.0940610298     0.7178317038     1.0191400177
    5      C      -0.4966459967     0.8809769575    -0.3786482585
    6      N       0.8626220794     1.4102193109    -0.4174465208
    7      H       2.7509730711     0.5169359842    -0.4918985162
    8      H       1.5698937605    -1.8573436279    -0.5079707163
    9      H      -1.0049221580    -1.2412848790    -1.1669316396
   10      H      -1.4016860956     1.4518428844     1.7577843526
   11      H      -1.1335018324     1.3801692155    -1.1194248033
   12      C      -1.0443735287    -0.6184600040     0.9905342412
   13      H      -1.3167291791    -1.3992451781     1.6956246336
 ----------------------------------------------------------------
 Nuclear Repulsion Energy =   273.0246405464 hartrees
 There are       25 alpha and       24 beta electrons
 Requested basis set is 6-31G(d)
 There are 40 shells and 117 basis functions

 Total QAlloc Memory Limit   8000 MB
 Mega-Array Size      1956 MB
 MEM_STATIC part      2000 MB
 A cutoff of  1.0D-14 yielded    806 shell pairs
 There are      7078 function pairs
 
 -------------------------------------------------------
 OpenMP Integral Computing Module                       
 Release: version 1.0, May 2013, Q-Chem Inc. Pittsburgh 
 -------------------------------------------------------
 Integral Job Info:
 Integral job number is                      11
 Integral operator is                         1
 short-range coefficients                     0
 long-range coefficients              100000000
 Omega coefficients                           0
 if combine SR and LR in K                    0
 Integral screening is                        0
 Integral computing path is                   2
 max size of driver memory is            800000
 size of driver memory is                593474
 size of scratch memory is              2361544
 max col of scratch BK array               1296
 max len of scratch array in speh3          155
 max len of scratch index in speh4           18
 max int batch size is                      520
 min int batch size is                       52
 fixed nKL is                                52
 max L of basis functions is                  2
 order of int derivative is                   0
 number of shells is                         40
 number of basis is                         117
 number of cartesian basis is               117
 number of contracted shell pairs           806
 number of primitive shell pairs           3534
 maxK2 (contraction) of shell pair           36
 max number of K2 of shell pair               1
 max number of CS2 of shell pair             89
 max number of PS2 of shell pair            396
 mem total for path MDJ                  535308
 -------------------------------------------------------
 Smallest overlap matrix eigenvalue = 9.72E-04

 Scale SEOQF with 1.000000e-01/1.000000e-01/1.000000e-01

 Standard Electronic Orientation quadrupole field applied
 Nucleus-field energy     =     0.0000000024 hartrees
 Guess MOs from core Hamiltonian diagonalization
 Mixing HOMO and LUMO in initial guess
 Adding  50% of the LUMO to the HOMO
 An unrestricted hybrid HF-DFT SCF calculation will be
 performed using Pulay DIIS extrapolation
 Exchange:     0.2000 Hartree-Fock + 0.0800 Slater + 0.7200 B88
 Correlation:  0.1900 VWN1RPA + 0.8100 LYP
 Using SG-1 standard quadrature grid
 SCF converges when DIIS error is below 1.0E-08
 using 4 threads for integral computing
 -------------------------------------------------------
 OpenMP Integral computing Module                
 Release: version 1.0, May 2013, Q-Chem Inc. Pittsburgh 
 -------------------------------------------------------
 -------------------------------------------------------
 OpenMP BLAS3 based DFT computing Module                
 Release: version 1.0, May 2013, Q-Chem Inc. Pittsburgh 
 -------------------------------------------------------
 ---------------------------------------
  Cycle       Energy         DIIS Error
 ---------------------------------------
    1    -232.4148792276      1.40E-01
    2    -229.2501037380      1.02E-01
    3    -251.7753158943      1.09E-01
    4    -282.3879145040      4.47E-02
    5    -284.5538382543      3.37E-02
    6    -286.3683720549      1.36E-02
    7    -286.3416478087      1.43E-02
    8    -286.8303242946      4.52E-03
    9    -286.8652415155      2.02E-03
   10    -286.8736544671      7.63E-04
   11    -286.8750878795      1.31E-04
   12    -286.8753726929      5.66E-05
   13    -286.8754597781      2.89E-05
   14    -286.8754864378      1.34E-05
   15    -286.8754930776      7.62E-06
   16    -286.8754948271      2.32E-06
   17    -286.8754952871      8.56E-07
   18    -286.8754954077      3.55E-07
   19    -286.8754954441      9.09E-08
   20    -286.8754954517      3.21E-08
   21    -286.8754954549      1.86E-08
   22    -286.8754954559      8.28E-09 Convergence criterion met
 ---------------------------------------
 <S^2> = 0.7770
 SCF time:  CPU 54.67 s  wall 18.72 s
 SCF   energy in the final basis set = -286.87549546
 Total energy in the final basis set = -286.87549546
 
 --------------------------------------------------------------
 
                    Orbital Energies (a.u.)
 --------------------------------------------------------------
 
 Alpha MOs
 -- Occupied --
-14.328 -10.217 -10.216 -10.207 -10.202 -10.200 -10.195  -0.944
 -0.838  -0.752  -0.665  -0.618  -0.554  -0.523  -0.515  -0.481
 -0.428  -0.402  -0.386  -0.355  -0.341  -0.322  -0.270  -0.253
 -0.203
 -- Virtual --
  0.012   0.030   0.114   0.130   0.143   0.147   0.160   0.166
  0.186   0.188   0.216   0.266   0.295   0.363   0.409   0.452
  0.486   0.502   0.531   0.544   0.575   0.593   0.597   0.618
  0.624   0.634   0.654   0.680   0.694   0.747   0.774   0.786
  0.813   0.825   0.839   0.855   0.860   0.876   0.909   0.928
  0.956   0.970   1.018   1.064   1.090   1.170   1.234   1.411
  1.420   1.436   1.471   1.496   1.520   1.572   1.637   1.693
  1.761   1.820   1.882   1.887   1.934   1.948   1.977   2.028
  2.051   2.143   2.174   2.211   2.222   2.265   2.309   2.353
  2.412   2.425   2.521   2.561   2.573   2.606   2.618   2.674
  2.693   2.863   2.907   2.916   2.993   3.909   4.085   4.196
  4.295   4.372   4.448   4.716
 
 Beta MOs
 -- Occupied --
-14.318 -10.219 -10.218 -10.203 -10.199 -10.198 -10.194  -0.932
 -0.831  -0.734  -0.665  -0.610  -0.549  -0.520  -0.512  -0.475
 -0.420  -0.396  -0.381  -0.343  -0.334  -0.301  -0.264  -0.246
 -- Virtual --
 -0.087   0.016   0.054   0.116   0.132   0.147   0.149   0.162
  0.168   0.190   0.193   0.222   0.270   0.297   0.368   0.414
  0.455   0.491   0.509   0.535   0.548   0.579   0.598   0.613
  0.618   0.629   0.634   0.661   0.684   0.707   0.751   0.776
  0.794   0.821   0.831   0.845   0.859   0.863   0.884   0.913
  0.931   0.962   0.975   1.025   1.070   1.094   1.176   1.238
  1.418   1.436   1.441   1.478   1.504   1.524   1.579   1.640
  1.698   1.773   1.828   1.898   1.900   1.938   1.954   1.979
  2.031   2.054   2.148   2.185   2.224   2.234   2.269   2.321
  2.357   2.417   2.431   2.534   2.570   2.584   2.616   2.626
  2.678   2.697   2.866   2.909   2.919   2.996   3.924   4.094
  4.195   4.300   4.375   4.457   4.716
 --------------------------------------------------------------
 
          Ground-State Mulliken Net Atomic Charges

     Atom                 Charge (a.u.)    Spin (a.u.)
  --------------------------------------------------------
      1 C                     0.048027      -0.230982
      2 C                    -0.114529       0.693649
      3 C                    -0.193456      -0.054044
      4 C                    -0.075621       0.031502
      5 C                    -0.062267      -0.027547
      6 N                    -0.351324       0.517065
      7 H                     0.140499       0.007445
      8 H                     0.143433      -0.032157
      9 H                     0.148105       0.025243
     10 H                     0.137415       0.003572
     11 H                     0.151542       0.025402
     12 C                    -0.105069       0.033952
     13 H                     0.133245       0.006899
  --------------------------------------------------------
  Sum of atomic charges =    -0.000000
  Sum of spin   charges =     1.000000

 -----------------------------------------------------------------
                    Cartesian Multipole Moments
 -----------------------------------------------------------------
    Charge (ESU x 10^10)
                -0.0000
    Dipole Moment (Debye)
         X      -0.5897      Y      -2.0658      Z       0.1413
       Tot       2.1529
    Quadrupole Moments (Debye-Ang)
        XX     -38.3946     XY      -3.0263     YY     -42.1870
        XZ      -0.5469     YZ       0.9286     ZZ     -39.8248
    Octopole Moments (Debye-Ang^2)
       XXX       2.6379    XXY      -6.9274    XYY      -9.0571
       YYY     -28.3847    XXZ      -0.3179    XYZ       0.9707
       YYZ       3.9846    XZZ      -7.2945    YZZ      -5.1975
       ZZZ       5.1785
    Hexadecapole Moments (Debye-Ang^3)
      XXXX    -320.7193   XXXY      -5.3982   XXYY     -95.5194
      XYYY     -22.9749   YYYY    -264.2007   XXXZ      60.4437
      XXYZ       1.8053   XYYZ      19.1034   YYYZ       7.9807
      XXZZ     -82.6533   XYZZ      -3.0116   YYZZ     -64.8189
      XZZZ      60.9625   YZZZ       2.8788   ZZZZ    -169.7664
 -----------------------------------------------------------------
 Calculating analytic gradient of the SCF energy
 Gradient of SCF Energy
            1           2           3           4           5           6
    1  -0.0000845   0.0000693  -0.0000403  -0.0000177   0.0001235  -0.0000550
    2  -0.0002004  -0.0002744  -0.0003231   0.0003144  -0.0000706   0.0004739
    3  -0.0000471  -0.0002936   0.0004846   0.0002013   0.0003462  -0.0000452
            7           8           9          10          11          12
    1  -0.0000035   0.0000898  -0.0001040  -0.0000362  -0.0000566   0.0000299
    2   0.0001120  -0.0000566  -0.0000299  -0.0000307   0.0000240  -0.0000245
    3   0.0000348  -0.0000251   0.0000159   0.0000047  -0.0000534  -0.0004287
           13
    1   0.0000851
    2   0.0000859
    3  -0.0001945
 Max gradient component =       4.846E-04
 RMS gradient           =       1.861E-04
 Gradient time:  CPU 7.87 s  wall 2.72 s
 Geometry Optimization Parameters
   NAtoms,    NIC,     NZ,  NCons,   NDum,   NFix, NCnnct, MaxDiis
       13     105       0       0       0       0       0       0


** GEOMETRY OPTIMIZATION IN DELOCALIZED INTERNAL COORDINATES **
   Searching for a Minimum

   Optimization Cycle:   1

                       Coordinates (Angstroms)
     ATOM                X               Y               Z
      1  C         1.6734165274    0.3585994487   -0.4786081570
      2  C         1.0560964190   -0.9023133348   -0.4899042838
      3  C        -0.4210820371   -0.6979284812   -0.4122503498
      4  C        -1.0940610298    0.7178317038    1.0191400177
      5  C        -0.4966459967    0.8809769575   -0.3786482585
      6  N         0.8626220794    1.4102193109   -0.4174465208
      7  H         2.7509730711    0.5169359842   -0.4918985162
      8  H         1.5698937605   -1.8573436279   -0.5079707163
      9  H        -1.0049221580   -1.2412848790   -1.1669316396
     10  H        -1.4016860956    1.4518428844    1.7577843526
     11  H        -1.1335018324    1.3801692155   -1.1194248033
     12  C        -1.0443735287   -0.6184600040    0.9905342412
     13  H        -1.3167291791   -1.3992451781    1.6956246336
   Point Group: c1    Number of degrees of freedom:    33


   Energy is   -286.875495456


 Attempting to Generate Delocalized Internal Coordinates

 33 Hessian modes will be used to form the next step
  Hessian Eigenvalues:
     0.006733    0.011666    0.014284    0.017005    0.018261    0.022867
     0.035953    0.041048    0.045177    0.059626    0.065083    0.095579
     0.105545    0.159604    0.159728    0.159903    0.159960    0.172943
     0.190473    0.228915    0.261883    0.291574    0.318729    0.339020
     0.340100    0.349043    0.351947    0.353004    0.354420    0.356160
     0.418737    0.513279    0.556237

 Minimum Search - Taking Simple RFO Step
 Searching for Lamda that Minimizes Along All modes
 Value Taken    Lamda =  -0.00000497
 Step Taken.  Stepsize is  0.009310

                             Maximum     Tolerance    Cnvgd?
         Gradient           0.000582      0.000300      NO
         Displacement       0.004472      0.001200      NO
         Energy change     *********      0.000001      NO


 New Cartesian Coordinates Obtained by Inverse Iteration

 Displacement from previous Coordinates is:  0.009027
 ----------------------------------------------------------------
             Standard Nuclear Orientation (Angstroms)
    I     Atom           X                Y                Z
 ----------------------------------------------------------------
    1      C       1.6735663229     0.3588087724    -0.4783642984
    2      C       1.0557197907    -0.9015777980    -0.4881686818
    3      C      -0.4213376186    -0.6972551981    -0.4129515884
    4      C      -1.0939381177     0.7171042896     1.0187938063
    5      C      -0.4971121657     0.8811549637    -0.3793364788
    6      N       0.8624135805     1.4099116698    -0.4180266852
    7      H       2.7511826145     0.5164349546    -0.4929643867
    8      H       1.5689008570    -1.8567754213    -0.5059553986
    9      H      -1.0038782145    -1.2406790489    -1.1684555495
   10      H      -1.4000654926     1.4511013948     1.7580969941
   11      H      -1.1341225639     1.3807239130    -1.1195327466
   12      C      -1.0448225908    -0.6190813247     0.9905074652
   13      H      -1.3165064018    -1.3998711670     1.6963575481
 ----------------------------------------------------------------
 Nuclear Repulsion Energy =   273.0429070361 hartrees
 There are       25 alpha and       24 beta electrons
 Applying Cartesian multipole field
    Component          Value
    ---------          -----
     (2,0,0)        1.00000E-11
     (0,2,0)        2.00000E-11
     (0,0,2)       -3.00000E-11
 Nucleus-field energy     =     0.0000000024 hartrees
 Requested basis set is 6-31G(d)
 There are 40 shells and 117 basis functions
 A cutoff of  1.0D-14 yielded    806 shell pairs
 There are      7078 function pairs
 Smallest overlap matrix eigenvalue = 9.72E-04
 Guess MOs from SCF MO coefficient file
 Reading MOs from coefficient file
 Mixing HOMO and LUMO in initial guess
 Adding  50% of the LUMO to the HOMO
 Reading MOs from coefficient file
 An unrestricted hybrid HF-DFT SCF calculation will be
 performed using Pulay DIIS extrapolation
 Exchange:     0.2000 Hartree-Fock + 0.0800 Slater + 0.7200 B88
 Correlation:  0.1900 VWN1RPA + 0.8100 LYP
 Using SG-1 standard quadrature grid
 SCF converges when DIIS error is below 1.0E-08
 Geometry optimization detected.  Setting ReadMinima to 0
 Setting SaveMinima to 0
 using 4 threads for integral computing
 -------------------------------------------------------
 OpenMP Integral computing Module                
 Release: version 1.0, May 2013, Q-Chem Inc. Pittsburgh 
 -------------------------------------------------------
 -------------------------------------------------------
 OpenMP BLAS3 based DFT computing Module                
 Release: version 1.0, May 2013, Q-Chem Inc. Pittsburgh 
 -------------------------------------------------------
 ---------------------------------------
  Cycle       Energy         DIIS Error
 ---------------------------------------
    1    -286.8398074335      1.22E-03
    2    -286.8676906802      1.79E-03
    3    -286.8746137912      3.27E-04
    4    -286.8751581821      3.83E-04
    5    -286.8754538100      1.17E-04
    6    -286.8754900005      4.85E-05
    7    -286.8754961042      1.78E-05
    8    -286.8754977351      6.22E-06
    9    -286.8754979822      1.88E-06
   10    -286.8754980788      8.52E-07
   11    -286.8754981171      4.21E-07
   12    -286.8754981300      1.80E-07
   13    -286.8754981341      5.71E-08
   14    -286.8754981355      3.16E-08
   15    -286.8754981360      1.33E-08
   16    -286.8754981364      5.55E-09 Convergence criterion met
 ---------------------------------------
 <S^2> = 0.7770
 SCF time:  CPU 40.26 s  wall 14.68 s
 SCF   energy in the final basis set = -286.87549814
 Total energy in the final basis set = -286.87549814
 
 --------------------------------------------------------------
 
                    Orbital Energies (a.u.)
 --------------------------------------------------------------
 
 Alpha MOs
 -- Occupied --
-14.328 -10.217 -10.216 -10.207 -10.202 -10.200 -10.195  -0.944
 -0.837  -0.752  -0.665  -0.618  -0.554  -0.523  -0.515  -0.481
 -0.428  -0.403  -0.386  -0.355  -0.341  -0.322  -0.270  -0.253
 -0.203
 -- Virtual --
  0.012   0.031   0.114   0.130   0.143   0.147   0.160   0.166
  0.186   0.188   0.216   0.266   0.295   0.363   0.409   0.452
  0.486   0.502   0.531   0.544   0.575   0.593   0.597   0.618
  0.624   0.634   0.654   0.680   0.695   0.747   0.774   0.786
  0.813   0.825   0.839   0.855   0.860   0.876   0.909   0.928
  0.956   0.970   1.018   1.064   1.090   1.170   1.234   1.412
  1.420   1.436   1.472   1.495   1.519   1.571   1.637   1.694
  1.761   1.821   1.882   1.887   1.935   1.948   1.977   2.028
  2.051   2.143   2.175   2.211   2.222   2.265   2.309   2.353
  2.412   2.425   2.522   2.560   2.573   2.606   2.618   2.674
  2.693   2.864   2.907   2.917   2.993   3.909   4.085   4.197
  4.295   4.372   4.448   4.716
 
 Beta MOs
 -- Occupied --
-14.318 -10.219 -10.218 -10.203 -10.199 -10.198 -10.194  -0.932
 -0.831  -0.734  -0.665  -0.610  -0.549  -0.520  -0.512  -0.475
 -0.420  -0.396  -0.381  -0.343  -0.334  -0.301  -0.264  -0.246
 -- Virtual --
 -0.087   0.016   0.054   0.116   0.132   0.147   0.149   0.162
  0.168   0.190   0.193   0.222   0.270   0.297   0.368   0.414
  0.455   0.491   0.509   0.534   0.548   0.579   0.598   0.613
  0.617   0.629   0.634   0.661   0.684   0.707   0.751   0.776
  0.794   0.821   0.831   0.845   0.859   0.863   0.884   0.913
  0.931   0.962   0.975   1.025   1.070   1.094   1.177   1.238
  1.418   1.436   1.441   1.478   1.504   1.524   1.579   1.640
  1.699   1.773   1.828   1.898   1.900   1.938   1.954   1.979
  2.031   2.053   2.148   2.185   2.225   2.234   2.269   2.321
  2.357   2.417   2.432   2.534   2.569   2.584   2.616   2.627
  2.678   2.697   2.867   2.908   2.920   2.996   3.924   4.094
  4.195   4.301   4.375   4.457   4.716
 --------------------------------------------------------------
 
          Ground-State Mulliken Net Atomic Charges

     Atom                 Charge (a.u.)    Spin (a.u.)
  --------------------------------------------------------
      1 C                     0.048237      -0.230810
      2 C                    -0.114541       0.693401
      3 C                    -0.193553      -0.054005
      4 C                    -0.075783       0.031802
      5 C                    -0.062089      -0.027658
      6 N                    -0.351515       0.517049
      7 H                     0.140563       0.007437
      8 H                     0.143337      -0.032146
      9 H                     0.148110       0.025272
     10 H                     0.137341       0.003600
     11 H                     0.151606       0.025343
     12 C                    -0.105052       0.033842
     13 H                     0.133339       0.006873
  --------------------------------------------------------
  Sum of atomic charges =     0.000000
  Sum of spin   charges =     1.000000

 -----------------------------------------------------------------
                    Cartesian Multipole Moments
 -----------------------------------------------------------------
    Charge (ESU x 10^10)
                 0.0000
    Dipole Moment (Debye)
         X      -0.5878      Y      -2.0667      Z       0.1408
       Tot       2.1533
    Quadrupole Moments (Debye-Ang)
        XX     -38.3958     XY      -3.0230     YY     -42.1912
        XZ      -0.5441     YZ       0.9247     ZZ     -39.8178
    Octopole Moments (Debye-Ang^2)
       XXX       2.6855    XXY      -6.9248    XYY      -9.0521
       YYY     -28.3882    XXZ      -0.3323    XYZ       0.9809
       YYZ       3.9923    XZZ      -7.2866    YZZ      -5.2087
       ZZZ       5.1797
    Hexadecapole Moments (Debye-Ang^3)
      XXXX    -320.6783   XXXY      -5.4197   XXYY     -95.5240
      XYYY     -22.9943   YYYY    -264.1177   XXXZ      60.3859
      XXYZ       1.8053   XYYZ      19.1079   YYYZ       8.0528
      XXZZ     -82.6470   XYZZ      -3.0054   YYZZ     -64.7985
      XZZZ      60.9076   YZZZ       2.9542   ZZZZ    -169.7214
 -----------------------------------------------------------------
 Calculating analytic gradient of the SCF energy
 Gradient of SCF Energy
            1           2           3           4           5           6
    1   0.0000625  -0.0000216   0.0000415   0.0000418  -0.0000369  -0.0000218
    2  -0.0000464  -0.0000069  -0.0000262  -0.0000137   0.0000983  -0.0000380
    3  -0.0000334  -0.0000202   0.0002137   0.0000625   0.0000053   0.0000215
            7           8           9          10          11          12
    1   0.0000074   0.0000261  -0.0000530   0.0000043  -0.0000475  -0.0000198
    2   0.0000221   0.0000453   0.0000244  -0.0000481  -0.0000069   0.0000651
    3  -0.0000573  -0.0000517   0.0000159   0.0000059  -0.0000153  -0.0001570
           13
    1   0.0000169
    2  -0.0000690
    3   0.0000103
 Max gradient component =       2.137E-04
 RMS gradient           =       5.722E-05
 Gradient time:  CPU 7.87 s  wall 2.78 s
 Geometry Optimization Parameters
   NAtoms,    NIC,     NZ,  NCons,   NDum,   NFix, NCnnct, MaxDiis
       13     105       0       0       0       0       0       0

 Cartesian Hessian Update
 Hessian Updated using BFGS Update


** GEOMETRY OPTIMIZATION IN DELOCALIZED INTERNAL COORDINATES **
   Searching for a Minimum

   Optimization Cycle:   2

                       Coordinates (Angstroms)
     ATOM                X               Y               Z
      1  C         1.6735663229    0.3588087724   -0.4783642984
      2  C         1.0557197907   -0.9015777980   -0.4881686818
      3  C        -0.4213376186   -0.6972551981   -0.4129515884
      4  C        -1.0939381177    0.7171042896    1.0187938063
      5  C        -0.4971121657    0.8811549637   -0.3793364788
      6  N         0.8624135805    1.4099116698   -0.4180266852
      7  H         2.7511826145    0.5164349546   -0.4929643867
      8  H         1.5689008570   -1.8567754213   -0.5059553986
      9  H        -1.0038782145   -1.2406790489   -1.1684555495
     10  H        -1.4000654926    1.4511013948    1.7580969941
     11  H        -1.1341225639    1.3807239130   -1.1195327466
     12  C        -1.0448225908   -0.6190813247    0.9905074652
     13  H        -1.3165064018   -1.3998711670    1.6963575481
   Point Group: c1    Number of degrees of freedom:    33


   Energy is   -286.875498136

 Hessian Updated using BFGS Update

 33 Hessian modes will be used to form the next step
  Hessian Eigenvalues:
     0.006824    0.011401    0.014470    0.017476    0.018316    0.023762
     0.034222    0.038772    0.045283    0.059253    0.063639    0.094621
     0.104566    0.154406    0.159675    0.159845    0.160688    0.171808
     0.196331    0.239226    0.249312    0.287645    0.317619    0.338823
     0.339569    0.348961    0.352612    0.353898    0.355861    0.361561
     0.420484    0.515252    0.553871

 Minimum Search - Taking Simple RFO Step
 Searching for Lamda that Minimizes Along All modes
 Value Taken    Lamda =   0.00000000
 Step Taken.  Stepsize is  0.004311

                             Maximum     Tolerance    Cnvgd?
         Gradient           0.000099      0.000300     YES
         Displacement       0.002092      0.001200      NO
         Energy change     -0.000003      0.000001      NO


 New Cartesian Coordinates Obtained by Inverse Iteration

 Displacement from previous Coordinates is:  0.005798
 ----------------------------------------------------------------
             Standard Nuclear Orientation (Angstroms)
    I     Atom           X                Y                Z
 ----------------------------------------------------------------
    1      C       1.6732083198     0.3588634606    -0.4779431527
    2      C       1.0553283678    -0.9014998133    -0.4884873920
    3      C      -0.4216372418    -0.6971985856    -0.4136870369
    4      C      -1.0939311685     0.7169645018     1.0184265320
    5      C      -0.4973235177     0.8810806303    -0.3797794139
    6      N       0.8621236733     1.4099817808    -0.4182798464
    7      H       2.7508422652     0.5162541656    -0.4914102351
    8      H       1.5681936566    -1.8568933619    -0.5056117356
    9      H      -1.0039451140    -1.2408350884    -1.1691892878
   10      H      -1.3993374503     1.4511203217     1.7579520969
   11      H      -1.1343031880     1.3811112412    -1.1195677630
   12      C      -1.0442430042    -0.6192119191     0.9905554207
   13      H      -1.3149755984    -1.3997373337     1.6970218136
 ----------------------------------------------------------------
 Nuclear Repulsion Energy =   273.0530508206 hartrees
 There are       25 alpha and       24 beta electrons
 Applying Cartesian multipole field
    Component          Value
    ---------          -----
     (2,0,0)        1.00000E-11
     (0,2,0)        2.00000E-11
     (0,0,2)       -3.00000E-11
 Nucleus-field energy     =     0.0000000024 hartrees
 Requested basis set is 6-31G(d)
 There are 40 shells and 117 basis functions
 A cutoff of  1.0D-14 yielded    806 shell pairs
 There are      7078 function pairs
 Smallest overlap matrix eigenvalue = 9.73E-04
 Guess MOs from SCF MO coefficient file
 Reading MOs from coefficient file
 Mixing HOMO and LUMO in initial guess
 Adding  50% of the LUMO to the HOMO
 Reading MOs from coefficient file
 An unrestricted hybrid HF-DFT SCF calculation will be
 performed using Pulay DIIS extrapolation
 Exchange:     0.2000 Hartree-Fock + 0.0800 Slater + 0.7200 B88
 Correlation:  0.1900 VWN1RPA + 0.8100 LYP
 Using SG-1 standard quadrature grid
 SCF converges when DIIS error is below 1.0E-08
 Geometry optimization detected.  Setting ReadMinima to 0
 Setting SaveMinima to 0
 using 4 threads for integral computing
 -------------------------------------------------------
 OpenMP Integral computing Module                
 Release: version 1.0, May 2013, Q-Chem Inc. Pittsburgh 
 -------------------------------------------------------
 -------------------------------------------------------
 OpenMP BLAS3 based DFT computing Module                
 Release: version 1.0, May 2013, Q-Chem Inc. Pittsburgh 
 -------------------------------------------------------
 ---------------------------------------
  Cycle       Energy         DIIS Error
 ---------------------------------------
    1    -286.8394976768      1.21E-03
    2    -286.8676662448      1.79E-03
    3    -286.8746083990      3.29E-04
    4    -286.8751535208      3.86E-04
    5    -286.8754542358      1.17E-04
    6    -286.8754901712      4.91E-05
    7    -286.8754963934      1.79E-05
    8    -286.8754980650      6.23E-06
    9    -286.8754983185      1.89E-06
   10    -286.8754984186      8.65E-07
   11    -286.8754984586      4.27E-07
   12    -286.8754984721      1.82E-07
   13    -286.8754984763      5.76E-08
   14    -286.8754984778      3.19E-08
   15    -286.8754984784      1.35E-08
   16    -286.8754984787      5.67E-09 Convergence criterion met
 ---------------------------------------
 <S^2> = 0.7769
 SCF time:  CPU 40.80 s  wall 16.57 s
 SCF   energy in the final basis set = -286.87549848
 Total energy in the final basis set = -286.87549848
 
 --------------------------------------------------------------
 
                    Orbital Energies (a.u.)
 --------------------------------------------------------------
 
 Alpha MOs
 -- Occupied --
-14.328 -10.217 -10.216 -10.207 -10.202 -10.200 -10.195  -0.944
 -0.837  -0.752  -0.665  -0.618  -0.554  -0.523  -0.515  -0.481
 -0.428  -0.403  -0.386  -0.355  -0.341  -0.322  -0.270  -0.253
 -0.203
 -- Virtual --
  0.012   0.031   0.114   0.130   0.143   0.147   0.160   0.166
  0.186   0.188   0.216   0.266   0.295   0.363   0.410   0.452
  0.486   0.502   0.531   0.544   0.575   0.593   0.597   0.618
  0.624   0.634   0.655   0.680   0.695   0.747   0.773   0.786
  0.813   0.825   0.839   0.855   0.860   0.876   0.910   0.928
  0.956   0.970   1.018   1.065   1.091   1.170   1.234   1.411
  1.420   1.436   1.472   1.495   1.519   1.572   1.637   1.694
  1.761   1.821   1.883   1.886   1.935   1.948   1.977   2.028
  2.051   2.142   2.175   2.211   2.222   2.265   2.309   2.353
  2.412   2.425   2.522   2.560   2.574   2.606   2.618   2.674
  2.693   2.864   2.906   2.917   2.993   3.909   4.085   4.197
  4.295   4.372   4.448   4.716
 
 Beta MOs
 -- Occupied --
-14.318 -10.219 -10.218 -10.203 -10.199 -10.198 -10.194  -0.932
 -0.831  -0.734  -0.665  -0.610  -0.549  -0.520  -0.512  -0.475
 -0.420  -0.396  -0.381  -0.343  -0.334  -0.301  -0.264  -0.246
 -- Virtual --
 -0.087   0.016   0.054   0.116   0.132   0.147   0.149   0.162
  0.168   0.190   0.193   0.222   0.270   0.296   0.368   0.414
  0.455   0.491   0.509   0.534   0.548   0.579   0.598   0.613
  0.618   0.629   0.634   0.661   0.684   0.707   0.751   0.776
  0.794   0.821   0.831   0.845   0.859   0.863   0.884   0.913
  0.931   0.962   0.975   1.025   1.070   1.095   1.177   1.238
  1.418   1.436   1.441   1.478   1.504   1.524   1.579   1.639
  1.699   1.774   1.828   1.898   1.900   1.938   1.954   1.979
  2.031   2.053   2.148   2.185   2.225   2.234   2.269   2.321
  2.357   2.417   2.432   2.534   2.569   2.585   2.616   2.627
  2.678   2.697   2.867   2.908   2.920   2.996   3.924   4.094
  4.195   4.301   4.375   4.457   4.716
 --------------------------------------------------------------
 
          Ground-State Mulliken Net Atomic Charges

     Atom                 Charge (a.u.)    Spin (a.u.)
  --------------------------------------------------------
      1 C                     0.048261      -0.230737
      2 C                    -0.114524       0.693367
      3 C                    -0.193591      -0.053989
      4 C                    -0.075745       0.031976
      5 C                    -0.062076      -0.027668
      6 N                    -0.351500       0.516876
      7 H                     0.140539       0.007433
      8 H                     0.143339      -0.032146
      9 H                     0.148130       0.025255
     10 H                     0.137350       0.003610
     11 H                     0.151571       0.025327
     12 C                    -0.105118       0.033824
     13 H                     0.133364       0.006872
  --------------------------------------------------------
  Sum of atomic charges =     0.000000
  Sum of spin   charges =     1.000000

 -----------------------------------------------------------------
                    Cartesian Multipole Moments
 -----------------------------------------------------------------
    Charge (ESU x 10^10)
                 0.0000
    Dipole Moment (Debye)
         X      -0.5869      Y      -2.0672      Z       0.1424
       Tot       2.1536
    Quadrupole Moments (Debye-Ang)
        XX     -38.4012     XY      -3.0229     YY     -42.1901
        XZ      -0.5390     YZ       0.9252     ZZ     -39.8161
    Octopole Moments (Debye-Ang^2)
       XXX       2.6995    XXY      -6.9205    XYY      -9.0449
       YYY     -28.3879    XXZ      -0.3203    XYZ       0.9811
       YYZ       4.0011    XZZ      -7.2847    YZZ      -5.2138
       ZZZ       5.2066
    Hexadecapole Moments (Debye-Ang^3)
      XXXX    -320.5694   XXXY      -5.4183   XXYY     -95.5091
      XYYY     -22.9898   YYYY    -264.1119   XXXZ      60.3695
      XXYZ       1.8110   XYYZ      19.0998   YYYZ       8.0610
      XXZZ     -82.6431   XYZZ      -3.0003   YYZZ     -64.7983
      XZZZ      60.8550   YZZZ       2.9563   ZZZZ    -169.7242
 -----------------------------------------------------------------
 Calculating analytic gradient of the SCF energy
 Gradient of SCF Energy
            1           2           3           4           5           6
    1  -0.0000151  -0.0000495   0.0000159  -0.0000265   0.0000695  -0.0000160
    2   0.0000022   0.0000276   0.0000125  -0.0000417   0.0000236  -0.0000140
    3  -0.0000075  -0.0000391   0.0000496   0.0000002  -0.0000007  -0.0000254
            7           8           9          10          11          12
    1  -0.0000137  -0.0000012  -0.0000089   0.0000103  -0.0000117   0.0000259
    2   0.0000022   0.0000214   0.0000083  -0.0000185  -0.0000061   0.0000204
    3  -0.0000319  -0.0000411  -0.0000134   0.0000306   0.0000373   0.0000134
           13
    1   0.0000211
    2  -0.0000378
    3   0.0000279
 Max gradient component =       6.951E-05
 RMS gradient           =       2.650E-05
 Gradient time:  CPU 7.82 s  wall 2.11 s
 Geometry Optimization Parameters
   NAtoms,    NIC,     NZ,  NCons,   NDum,   NFix, NCnnct, MaxDiis
       13     105       0       0       0       0       0       0

 Cartesian Hessian Update
 Hessian Updated using BFGS Update


** GEOMETRY OPTIMIZATION IN DELOCALIZED INTERNAL COORDINATES **
   Searching for a Minimum

   Optimization Cycle:   3

                       Coordinates (Angstroms)
     ATOM                X               Y               Z
      1  C         1.6732083198    0.3588634606   -0.4779431527
      2  C         1.0553283678   -0.9014998133   -0.4884873920
      3  C        -0.4216372418   -0.6971985856   -0.4136870369
      4  C        -1.0939311685    0.7169645018    1.0184265320
      5  C        -0.4973235177    0.8810806303   -0.3797794139
      6  N         0.8621236733    1.4099817808   -0.4182798464
      7  H         2.7508422652    0.5162541656   -0.4914102351
      8  H         1.5681936566   -1.8568933619   -0.5056117356
      9  H        -1.0039451140   -1.2408350884   -1.1691892878
     10  H        -1.3993374503    1.4511203217    1.7579520969
     11  H        -1.1343031880    1.3811112412   -1.1195677630
     12  C        -1.0442430042   -0.6192119191    0.9905554207
     13  H        -1.3149755984   -1.3997373337    1.6970218136
   Point Group: c1    Number of degrees of freedom:    33


   Energy is   -286.875498479

 Hessian Updated using BFGS Update

 33 Hessian modes will be used to form the next step
  Hessian Eigenvalues:
     0.006839    0.011368    0.014348    0.018045    0.018220    0.023728
     0.035504    0.037791    0.044995    0.060362    0.062156    0.088452
     0.104792    0.154833    0.159722    0.159922    0.160449    0.175305
     0.194166    0.238668    0.249475    0.290582    0.324903    0.338716
     0.342148    0.349412    0.353074    0.353667    0.356295    0.361362
     0.421694    0.514881    0.555947

 Minimum Search - Taking Simple RFO Step
 Searching for Lamda that Minimizes Along All modes
 Value Taken    Lamda =   0.00000000
 Step Taken.  Stepsize is  0.003385

                             Maximum     Tolerance    Cnvgd?
         Gradient           0.000052      0.000300     YES
         Displacement       0.002279      0.001200      NO
         Energy change     -0.000000      0.000001     YES


                       Distance Matrix (Angstroms)
             C (  1)   C (  2)   C (  3)   C (  4)   C (  5)   N (  6)
   C (  2)  1.403710
   C (  3)  2.346865  1.492904
   C (  4)  3.166136  3.083753  2.121977
   C (  5)  2.234626  2.366461  1.580457  1.529004
   N (  6)  1.329010  2.320604  2.467442  2.523995  1.459217
   H (  7)  1.089150  2.210159  3.397519  4.135478  3.270495  2.090779
   H (  8)  2.218417  1.084482  2.304944  4.004291  3.432011  3.343447
   H (  9)  3.194371  2.195247  1.097910  2.937131  2.319991  3.327598
   H ( 10)  3.953832  4.075131  3.207365  1.085889  2.389241  3.138771
   H ( 11)  3.055944  3.225378  2.307711  2.239138  1.096841  2.116213
   C ( 12)  3.240009  2.583690  1.538056  1.337390  2.104238  3.120365
   H ( 13)  4.092969  3.262366  2.397229  2.233781  3.191205  4.136277
             H (  7)   H (  8)   H (  9)   H ( 10)   H ( 11)   C ( 12)
   H (  8)  2.651545
   H (  9)  4.200616  2.726859
   H ( 10)  4.812234  4.987275  3.996388
   H ( 11)  4.029506  4.262054  2.625654  2.890548
   C ( 12)  4.229442  3.255026  2.247785  2.236351  2.908956
   H ( 13)  4.999113  3.656946  2.887413  2.852756  3.962189  1.087019

 
 Final energy is   -286.875498478720     


 ******************************
 **  OPTIMIZATION CONVERGED  **
 ******************************

                       Coordinates (Angstroms)
     ATOM                X               Y               Z
      1  C         1.6732083198    0.3588634606   -0.4779431527
      2  C         1.0553283678   -0.9014998133   -0.4884873920
      3  C        -0.4216372418   -0.6971985856   -0.4136870369
      4  C        -1.0939311685    0.7169645018    1.0184265320
      5  C        -0.4973235177    0.8810806303   -0.3797794139
      6  N         0.8621236733    1.4099817808   -0.4182798464
      7  H         2.7508422652    0.5162541656   -0.4914102351
      8  H         1.5681936566   -1.8568933619   -0.5056117356
      9  H        -1.0039451140   -1.2408350884   -1.1691892878
     10  H        -1.3993374503    1.4511203217    1.7579520969
     11  H        -1.1343031880    1.3811112412   -1.1195677630
     12  C        -1.0442430042   -0.6192119191    0.9905554207
     13  H        -1.3149755984   -1.3997373337    1.6970218136

Z-matrix Print:
$molecule
0 2
N 
C  1 1.329010
H  2 1.089150 1 119.347335
C  2 1.403710 1 116.221157 3 178.577953 0
H  4 1.084482 2 125.658787 1 -178.148465 0
C  1 1.459217 2 106.444267 3 -178.548025 0
H  6 1.096841 1 110.977484 2 -130.648113 0
C  4 1.492904 2 108.193513 1 -0.508676 0
H  8 1.097910 4 114.991074 2 129.811831 0
C  6 1.529004 1 115.248596 2 94.863445 0
H  10 1.085889 6 131.295845 1 68.725460 0
C  10 1.337390 6 94.225600 1 -109.125632 0
H  12 1.087019 10 133.994771 6 179.257905 0
$end

 
 --------------------------------------------------------------
 
                    Orbital Energies (a.u.)
 --------------------------------------------------------------
 
 Alpha MOs
 -- Occupied --
-14.328 -10.217 -10.216 -10.207 -10.202 -10.200 -10.195  -0.944
 -0.837  -0.752  -0.665  -0.618  -0.554  -0.523  -0.515  -0.481
 -0.428  -0.403  -0.386  -0.355  -0.341  -0.322  -0.270  -0.253
 -0.203
 -- Virtual --
  0.012   0.031   0.114   0.130   0.143   0.147   0.160   0.166
  0.186   0.188   0.216   0.266   0.295   0.363   0.410   0.452
  0.486   0.502   0.531   0.544   0.575   0.593   0.597   0.618
  0.624   0.634   0.655   0.680   0.695   0.747   0.773   0.786
  0.813   0.825   0.839   0.855   0.860   0.876   0.910   0.928
  0.956   0.970   1.018   1.065   1.091   1.170   1.234   1.411
  1.420   1.436   1.472   1.495   1.519   1.572   1.637   1.694
  1.761   1.821   1.883   1.886   1.935   1.948   1.977   2.028
  2.051   2.142   2.175   2.211   2.222   2.265   2.309   2.353
  2.412   2.425   2.522   2.560   2.574   2.606   2.618   2.674
  2.693   2.864   2.906   2.917   2.993   3.909   4.085   4.197
  4.295   4.372   4.448   4.716
 
 Beta MOs
 -- Occupied --
-14.318 -10.219 -10.218 -10.203 -10.199 -10.198 -10.194  -0.932
 -0.831  -0.734  -0.665  -0.610  -0.549  -0.520  -0.512  -0.475
 -0.420  -0.396  -0.381  -0.343  -0.334  -0.301  -0.264  -0.246
 -- Virtual --
 -0.087   0.016   0.054   0.116   0.132   0.147   0.149   0.162
  0.168   0.190   0.193   0.222   0.270   0.296   0.368   0.414
  0.455   0.491   0.509   0.534   0.548   0.579   0.598   0.613
  0.618   0.629   0.634   0.661   0.684   0.707   0.751   0.776
  0.794   0.821   0.831   0.845   0.859   0.863   0.884   0.913
  0.931   0.962   0.975   1.025   1.070   1.095   1.177   1.238
  1.418   1.436   1.441   1.478   1.504   1.524   1.579   1.639
  1.699   1.774   1.828   1.898   1.900   1.938   1.954   1.979
  2.031   2.053   2.148   2.185   2.225   2.234   2.269   2.321
  2.357   2.417   2.432   2.534   2.569   2.585   2.616   2.627
  2.678   2.697   2.867   2.908   2.920   2.996   3.924   4.094
  4.195   4.301   4.375   4.457   4.716
 --------------------------------------------------------------
 
          Ground-State Mulliken Net Atomic Charges

     Atom                 Charge (a.u.)    Spin (a.u.)
  --------------------------------------------------------
      1 C                     0.048261      -0.230737
      2 C                    -0.114524       0.693367
      3 C                    -0.193591      -0.053989
      4 C                    -0.075745       0.031976
      5 C                    -0.062076      -0.027668
      6 N                    -0.351500       0.516876
      7 H                     0.140539       0.007433
      8 H                     0.143339      -0.032146
      9 H                     0.148130       0.025255
     10 H                     0.137350       0.003610
     11 H                     0.151571       0.025327
     12 C                    -0.105118       0.033824
     13 H                     0.133364       0.006872
  --------------------------------------------------------
  Sum of atomic charges =     0.000000
  Sum of spin   charges =     1.000000

 -----------------------------------------------------------------
                    Cartesian Multipole Moments
 -----------------------------------------------------------------
    Charge (ESU x 10^10)
                 0.0000
    Dipole Moment (Debye)
         X      -0.5869      Y      -2.0672      Z       0.1424
       Tot       2.1536
    Quadrupole Moments (Debye-Ang)
        XX     -38.4012     XY      -3.0229     YY     -42.1901
        XZ      -0.5390     YZ       0.9252     ZZ     -39.8161
    Octopole Moments (Debye-Ang^2)
       XXX       2.6995    XXY      -6.9205    XYY      -9.0449
       YYY     -28.3879    XXZ      -0.3203    XYZ       0.9811
       YYZ       4.0011    XZZ      -7.2847    YZZ      -5.2138
       ZZZ       5.2066
    Hexadecapole Moments (Debye-Ang^3)
      XXXX    -320.5694   XXXY      -5.4183   XXYY     -95.5091
      XYYY     -22.9898   YYYY    -264.1119   XXXZ      60.3695
      XXYZ       1.8110   XYYZ      19.0998   YYYZ       8.0610
      XXZZ     -82.6431   XYZZ      -3.0003   YYZZ     -64.7983
      XZZZ      60.8550   YZZZ       2.9563   ZZZZ    -169.7242
 -----------------------------------------------------------------
Archival summary:
1\1\c8-66\OPT\ProcedureUnspecified\6-31G*\166(2)\hpark21\WedMar218:13:492022WedMar218:13:492022\0\\#,OPT,ProcedureUnspecified,6-31G*,\\0,2\N\C,1,1.32901\H,2,1.08915,1,119.347\C,2,1.40371,1,116.221,3,178.578,0\H,4,1.08448,2,125.659,1,-178.148,0\C,1,1.45922,2,106.444,3,-178.548,0\H,6,1.09684,1,110.977,2,-130.648,0\C,4,1.4929,2,108.194,1,-0.508676,0\H,8,1.09791,4,114.991,2,129.812,0\C,6,1.529,1,115.249,2,94.8634,0\H,10,1.08589,6,131.296,1,68.7255,0\C,10,1.33739,6,94.2256,1,-109.126,0\H,12,1.08702,10,133.995,6,179.258,0\\\@

 Total job time:  61.74s(wall), 162.74s(cpu) 
 Wed Mar  2 18:13:49 2022

        *************************************************************
        *                                                           *
        *  Thank you very much for using Q-Chem.  Have a nice day.  *
        *                                                           *
        *************************************************************


