
Running Job 1 of 1 qcts1.in
qchem qcts1.in_56549.0 ./qcts1.d/ 1
/home/leeping/opt/qchem/5.0.2-openmp/exe/qcprog.exe_s qcts1.in_56549.0 ./qcts1.d/
Check license passed

                  Welcome to Q-Chem
     A Quantum Leap Into The Future Of Chemistry


 Q-Chem 5.0, Q-Chem, Inc., Pleasanton, CA (2017)

 Yihan Shao,  Zhengting Gan,  E. Epifanovsky,  A. T. B. Gilbert,  M. Wormit,  
 J. Kussmann,  A. W. Lange,  A. Behn,  Jia Deng,  Xintian Feng,  D. Ghosh,  
 M. Goldey,  P. R. Horn,  L. D. Jacobson,  I. Kaliman,  T. Kus,  A. Landau,  
 Jie Liu,  E. I. Proynov,  R. M. Richard,  R. P. Steele,  E. J. Sundstrom,  
 H. L. Woodcock III,  P. M. Zimmerman,  D. Zuev,  B. Albrecht,  E. Alguire,  
 S. A. Baeppler,  D. Barton,  Z. Benda,  Y. A. Bernard,  E. J. Berquist,  
 K. B. Bravaya,  H. Burton,  D. Casanova,  Chun-Min Chang,  Yunqing Chen,  
 A. Chien,  K. D. Closser,  M. P. Coons,  S. Dasgupta,  A. L. Dempwolff,  
 M. Diedenhofen,  Hainam Do,  R. G. Edgar,  Po-Tung Fang,  S. Fatehi,  
 Qingguo Feng,  J. Fosso-Tande,  Qinghui Ge,  A. Ghysels,  G. Gidofalvi,  
 J. Gomes,  J. Gonthier,  A. Gunina,  M. W. D. Hanson-Heine,  
 P. H. P. Harbach,  A. W. Hauser,  J. E. Herr,  E. G. Hohenstein,  
 Z. C. Holden,  Kerwin Hui,  T.-C. Jagau,  Hyunjun Ji,  B. Kaduk,  
 K. Khistyaev,  Jaehoon Kim,  P. Klunzinger,  K. Koh,  D. Kosenkov,  
 L. Koulias,  T. Kowalczyk,  C. M. Krauter,  A. Kunitsa,  Ka Un Lao,  
 A. Laurent,  K. V. Lawler,  Joonho Lee,  D. Lefrancois,  S. Lehtola,  
 D. S. Levine,  Yi-Pei Li,  You-Sheng Lin,  Fenglai Liu,  E. Livshits,  
 A. Luenser,  P. Manohar,  E. Mansoor,  S. F. Manzer,  Shan-Ping Mao,  
 Yuezhi Mao,  N. Mardirossian,  A. V. Marenich,  T. Markovich,  
 L. A. Martinez-Martinez,  S. A. Maurer,  N. J. Mayhall,  S. C. McKenzie,  
 J.-M. Mewes,  A. F. Morrison,  J. W. Mullinax,  K. Nanda,  
 T. S. Nguyen-Beck,  R. Olivares-Amaya,  J. A. Parkhill,  T. M. Perrine,  
 F. Plasser,  S. Prager,  A. Prociuk,  E. Ramos,  D. R. Rehn,  F. Rob,  
 M. Schneider,  N. Sergueev,  S. M. Sharada,  S. Sharma,  D. W. Small,  
 T. Stauch,  T. Stein,  Yu-Chuan Su,  A. J. W. Thom,  A. Tkatchenko,  
 T. Tsuchimochi,  L. Vogt,  O. Vydrov,  M. A. Watson,  J. Wenzel,  
 M. de Wergifosse,  T. A. Wesolowski,  A. White,  J. Witte,  A. Yamada,  
 Jun Yang,  K. Yao,  S. Yeganeh,  S. R. Yost,  Zhi-Qiang You,  A. Zech,  
 Igor Ying Zhang,  Xing Zhang,  Yan Zhao,  Ying Zhu,  B. R. Brooks,  
 G. K. L. Chan,  C. J. Cramer,  M. S. Gordon,  W. J. Hehre,  A. Klamt,  
 M. W. Schmidt,  C. D. Sherrill,  D. G. Truhlar,  A. Aspuru-Guzik,  R. Baer,  
 A. T. Bell,  N. A. Besley,  Jeng-Da Chai,  R. A. DiStasio Jr.,  A. Dreuw,  
 B. D. Dunietz,  T. R. Furlani,  Chao-Ping Hsu,  Yousung Jung,  Jing Kong,  
 D. S. Lambrecht,  WanZhen Liang,  C. Ochsenfeld,  V. A. Rassolov,  
 L. V. Slipchenko,  J. E. Subotnik,  T. Van Voorhis,  J. M. Herbert,  
 A. I. Krylov,  P. M. W. Gill,  M. Head-Gordon

 Contributors to earlier versions of Q-Chem not listed above: 
 R. D. Adamson,  B. Austin,  J. Baker,  G. J. O. Beran,  K. Brandhorst,  
 S. T. Brown,  E. F. C. Byrd,  A. K. Chakraborty,  C.-L. Cheng,  
 Siu Hung Chien,  D. M. Chipman,  D. L. Crittenden,  H. Dachsel,  
 R. J. Doerksen,  A. D. Dutoi,  L. Fusti-Molnar,  W. A. Goddard III,  
 A. Golubeva-Zadorozhnaya,  S. R. Gwaltney,  G. Hawkins,  A. Heyden,  
 S. Hirata,  G. Kedziora,  F. J. Keil,  C. Kelley,  Jihan Kim,  R. A. King,  
 R. Z. Khaliullin,  P. P. Korambath,  W. Kurlancheek,  A. M. Lee,  M. S. Lee,  
 S. V. Levchenko,  Ching Yeh Lin,  D. Liotard,  R. C. Lochan,  I. Lotan,  
 P. E. Maslen,  N. Nair,  D. P. O'Neill,  D. Neuhauser,  E. Neuscamman,  
 C. M. Oana,  R. Olson,  B. Peters,  R. Peverati,  P. A. Pieniazek,  
 Y. M. Rhee,  J. Ritchie,  M. A. Rohrdanz,  E. Rosta,  N. J. Russ,  
 H. F. Schaefer III,  N. E. Schultz,  N. Shenvi,  A. C. Simmonett,  A. Sodt,  
 D. Stuck,  K. S. Thanthiriwatte,  V. Vanovschi,  Tao Wang,  A. Warshel,  
 C. F. Williams,  Q. Wu,  X. Xu,  W. Zhang

 Please cite Q-Chem as follows:
 Y. Shao et al., Mol. Phys. 113, 184-215 (2015)
 DOI: 10.1080/00268976.2014.952696

 Q-Chem 5.0.2 for Intel X86 EM64T Linux

 Parts of Q-Chem use Armadillo 5.200.1 (Boston Tea Smuggler).
 http://arma.sourceforge.net/

 Q-Chem begins on Wed Mar  2 18:48:35 2022  

Host: 
0

     Scratch files written to ./qcts1.d//
 Dec517 15110_ 26548  26544 5633   
Processing $rem in /home/leeping/opt/qchem/5.0.2-openmp/config/preferences.
 MEM_STATIC 2000
 MEM_TOTAL  8000
 SYMMETRY   OFF
 SYM_IGNORE TRUE 

Checking the input file for inconsistencies... 	...done.

--------------------------------------------------------------
User input:
--------------------------------------------------------------
$molecule
0 2
C        1.5583654825    0.3155499394   -0.3012951530
C        0.6527588157   -0.9035715320   -0.1027010661
C       -0.6118307096   -0.4233815181   -0.8157790109
C       -1.0328212448    0.3948041179    0.7194191375
C       -0.4810323184    1.0308415698   -0.5593056626
N        0.9264053449    1.4090220359   -0.5168975280
H        2.6412788445    0.3046859935   -0.1957210126
H        1.1144699778   -1.8751780942   -0.3099955817
H       -1.2768257090   -1.0083934510   -1.4379233267
H       -1.8285754563    0.9157714794    1.2615587364
H       -1.1380020775    1.7083064645   -1.0994485217
C       -0.1922190193   -0.6298491046    1.2281217383
H       -0.3416708599   -1.2636470826    2.1093437724
$end

$rem
method                b3lyp
basis                 6-31g(d)
unrestricted          true
symmetry              off
sym_ignore            true
incdft                false
incfock               0
scf_convergence       8
thresh                14
jobtype               ts
scf_guess             read
scf_algorithm         diis
max_scf_cycles        100
geom_opt_max_cycles   500
geom_opt_dmax         100
geom_opt_tol_gradient 10
geom_opt_hessian      read
$end

--------------------------------------------------------------
 ----------------------------------------------------------------
             Standard Nuclear Orientation (Angstroms)
    I     Atom           X                Y                Z
 ----------------------------------------------------------------
    1      C       1.5583654825     0.3155499394    -0.3012951530
    2      C       0.6527588157    -0.9035715320    -0.1027010661
    3      C      -0.6118307096    -0.4233815181    -0.8157790109
    4      C      -1.0328212448     0.3948041179     0.7194191375
    5      C      -0.4810323184     1.0308415698    -0.5593056626
    6      N       0.9264053449     1.4090220359    -0.5168975280
    7      H       2.6412788445     0.3046859935    -0.1957210126
    8      H       1.1144699778    -1.8751780942    -0.3099955817
    9      H      -1.2768257090    -1.0083934510    -1.4379233267
   10      H      -1.8285754563     0.9157714794     1.2615587364
   11      H      -1.1380020775     1.7083064645    -1.0994485217
   12      C      -0.1922190193    -0.6298491046     1.2281217383
   13      H      -0.3416708599    -1.2636470826     2.1093437724
 ----------------------------------------------------------------
 Nuclear Repulsion Energy =   280.3109431935 hartrees
 There are       25 alpha and       24 beta electrons
 Requested basis set is 6-31G(d)
 There are 40 shells and 117 basis functions

 Total QAlloc Memory Limit   8000 MB
 Mega-Array Size      1956 MB
 MEM_STATIC part      2000 MB
 A cutoff of  1.0D-14 yielded    812 shell pairs
 There are      7084 function pairs
 
 -------------------------------------------------------
 OpenMP Integral Computing Module                       
 Release: version 1.0, May 2013, Q-Chem Inc. Pittsburgh 
 -------------------------------------------------------
 Integral Job Info:
 Integral job number is                      11
 Integral operator is                         1
 short-range coefficients                     0
 long-range coefficients              100000000
 Omega coefficients                           0
 if combine SR and LR in K                    0
 Integral screening is                        0
 Integral computing path is                   2
 max size of driver memory is            800000
 size of driver memory is                593474
 size of scratch memory is              2361544
 max col of scratch BK array               1296
 max len of scratch array in speh3          155
 max len of scratch index in speh4           18
 max int batch size is                      520
 min int batch size is                       52
 fixed nKL is                                52
 max L of basis functions is                  2
 order of int derivative is                   0
 number of shells is                         40
 number of basis is                         117
 number of cartesian basis is               117
 number of contracted shell pairs           812
 number of primitive shell pairs           3587
 maxK2 (contraction) of shell pair           36
 max number of K2 of shell pair               1
 max number of CS2 of shell pair             84
 max number of PS2 of shell pair            408
 mem total for path MDJ                  535308
 -------------------------------------------------------
 Smallest overlap matrix eigenvalue = 1.53E-03

 Scale SEOQF with 1.000000e-01/1.000000e-01/1.000000e-01

 Standard Electronic Orientation quadrupole field applied
 Nucleus-field energy     =     0.0000000014 hartrees
 Guess MOs from SCF MO coefficient file
 Reading MOs from coefficient file
 Reading MOs from coefficient file
 An unrestricted hybrid HF-DFT SCF calculation will be
 performed using Pulay DIIS extrapolation
 Exchange:     0.2000 Hartree-Fock + 0.0800 Slater + 0.7200 B88
 Correlation:  0.1900 VWN1RPA + 0.8100 LYP
 Using SG-1 standard quadrature grid
 SCF converges when DIIS error is below 1.0E-08
Using Q-Chem read-in guess as SCF_GUESS READ specified.

 using 4 threads for integral computing
 -------------------------------------------------------
 OpenMP Integral computing Module                
 Release: version 1.0, May 2013, Q-Chem Inc. Pittsburgh 
 -------------------------------------------------------
 -------------------------------------------------------
 OpenMP BLAS3 based DFT computing Module                
 Release: version 1.0, May 2013, Q-Chem Inc. Pittsburgh 
 -------------------------------------------------------
 ---------------------------------------
  Cycle       Energy         DIIS Error
 ---------------------------------------
    1    -286.8127806448      8.46E-10
    2    -286.8127806448      1.29E-09 Convergence criterion met
 ---------------------------------------
 <S^2> = 0.7706
 SCF time:  CPU 5.24 s  wall 2.67 s
 SCF   energy in the final basis set = -286.81278064
 Total energy in the final basis set = -286.81278064
 
 --------------------------------------------------------------
 
                    Orbital Energies (a.u.)
 --------------------------------------------------------------
 
 Alpha MOs
 -- Occupied --
-14.315 -10.224 -10.220 -10.218 -10.217 -10.213 -10.196  -0.961
 -0.842  -0.737  -0.681  -0.591  -0.578  -0.537  -0.513  -0.457
 -0.431  -0.408  -0.400  -0.374  -0.327  -0.300  -0.272  -0.264
 -0.130
 -- Virtual --
  0.004   0.019   0.095   0.141   0.143   0.152   0.155   0.158
  0.173   0.197   0.214   0.279   0.282   0.299   0.349   0.389
  0.491   0.506   0.509   0.539   0.561   0.579   0.589   0.603
  0.625   0.646   0.661   0.679   0.695   0.748   0.764   0.798
  0.815   0.824   0.833   0.847   0.864   0.883   0.905   0.936
  0.982   1.031   1.057   1.105   1.192   1.229   1.238   1.336
  1.410   1.451   1.472   1.508   1.588   1.643   1.669   1.722
  1.762   1.828   1.847   1.870   1.940   1.961   2.010   2.039
  2.076   2.125   2.164   2.239   2.277   2.314   2.339   2.350
  2.403   2.473   2.525   2.540   2.580   2.605   2.649   2.678
  2.685   2.793   2.829   2.905   2.966   3.946   4.176   4.254
  4.326   4.415   4.527   4.591
 
 Beta MOs
 -- Occupied --
-14.315 -10.224 -10.222 -10.218 -10.214 -10.210 -10.185  -0.957
 -0.834  -0.734  -0.669  -0.586  -0.571  -0.531  -0.509  -0.449
 -0.429  -0.402  -0.398  -0.369  -0.322  -0.284  -0.267  -0.255
 -- Virtual --
 -0.018   0.018   0.034   0.097   0.146   0.150   0.153   0.158
  0.161   0.177   0.200   0.218   0.282   0.285   0.303   0.357
  0.391   0.501   0.510   0.517   0.553   0.565   0.582   0.594
  0.606   0.632   0.665   0.674   0.681   0.700   0.753   0.769
  0.800   0.816   0.824   0.836   0.850   0.869   0.886   0.909
  0.939   0.984   1.041   1.064   1.110   1.199   1.238   1.244
  1.342   1.412   1.460   1.479   1.509   1.597   1.650   1.674
  1.733   1.769   1.832   1.853   1.875   1.946   1.977   2.022
  2.049   2.081   2.135   2.167   2.253   2.287   2.325   2.350
  2.362   2.414   2.482   2.531   2.547   2.584   2.610   2.656
  2.682   2.693   2.798   2.833   2.907   2.968   3.948   4.188
  4.255   4.341   4.419   4.531   4.595
 --------------------------------------------------------------
 
          Ground-State Mulliken Net Atomic Charges

     Atom                 Charge (a.u.)    Spin (a.u.)
  --------------------------------------------------------
      1 C                     0.091754       0.025249
      2 C                    -0.254042      -0.061811
      3 C                    -0.124920       0.434810
      4 C                    -0.151038      -0.167358
      5 C                    -0.012937       0.004792
      6 N                    -0.339925       0.030928
      7 H                     0.143860       0.000642
      8 H                     0.138501       0.007273
      9 H                     0.158500      -0.016365
     10 H                     0.154334       0.006813
     11 H                     0.149857       0.003441
     12 C                    -0.098657       0.770625
     13 H                     0.144714      -0.039037
  --------------------------------------------------------
  Sum of atomic charges =    -0.000000
  Sum of spin   charges =     1.000000

 -----------------------------------------------------------------
                    Cartesian Multipole Moments
 -----------------------------------------------------------------
    Charge (ESU x 10^10)
                -0.0000
    Dipole Moment (Debye)
         X      -1.2641      Y      -1.9917      Z       0.0054
       Tot       2.3590
    Quadrupole Moments (Debye-Ang)
        XX     -37.7152     XY      -4.4652     YY     -42.9721
        XZ       0.4994     YZ       1.0557     ZZ     -40.4003
    Octopole Moments (Debye-Ang^2)
       XXX      -6.4295    XXY      -6.2450    XYY     -10.9550
       YYY     -26.7804    XXZ       1.3103    XYZ       1.0081
       YYZ       2.7956    XZZ      -9.1124    YZZ      -8.3151
       ZZZ       6.7227
    Hexadecapole Moments (Debye-Ang^3)
      XXXX    -248.0010   XXXY     -10.7795   XXYY     -85.9835
      XYYY     -23.2626   YYYY    -245.7924   XXXZ      20.1292
      XXYZ      13.9025   XYYZ      11.4361   YYYZ      29.9309
      XXZZ     -74.1349   XYZZ      -3.4364   YYZZ     -65.5297
      XZZZ      19.6307   YZZZ      22.7608   ZZZZ    -184.5165
 -----------------------------------------------------------------
 Calculating analytic gradient of the SCF energy
 Gradient of SCF Energy
            1           2           3           4           5           6
    1   0.0021232   0.0155689   0.0074565  -0.0083764  -0.0029038  -0.0001800
    2   0.0025087  -0.0058294   0.0003899   0.0021634  -0.0011445   0.0003584
    3  -0.0018272  -0.0213553   0.0187476   0.0031149  -0.0012157   0.0038141
            7           8           9          10          11          12
    1  -0.0002760   0.0075262   0.0017629   0.0060643   0.0007921  -0.0243262
    2   0.0015196  -0.0006506  -0.0040345   0.0122796  -0.0030149   0.0025440
    3  -0.0025732  -0.0048440   0.0025029   0.0071642  -0.0049481  -0.0060984
           13
    1  -0.0052317
    2  -0.0070897
    3   0.0075183
 Max gradient component =       2.433E-02
 RMS gradient           =       7.881E-03
 Gradient time:  CPU 7.57 s  wall 2.16 s
 Geometry Optimization Parameters
   NAtoms,    NIC,     NZ,  NCons,   NDum,   NFix, NCnnct, MaxDiis
       13     128       0       0       0       0       0       0

 Cartesian Hessian read from HESS file


** GEOMETRY OPTIMIZATION IN DELOCALIZED INTERNAL COORDINATES **
   Searching for a Transition State

   Optimization Cycle:   1

                       Coordinates (Angstroms)
     ATOM                X               Y               Z
      1  C         1.5583654825    0.3155499394   -0.3012951530
      2  C         0.6527588157   -0.9035715320   -0.1027010661
      3  C        -0.6118307096   -0.4233815181   -0.8157790109
      4  C        -1.0328212448    0.3948041179    0.7194191375
      5  C        -0.4810323184    1.0308415698   -0.5593056626
      6  N         0.9264053449    1.4090220359   -0.5168975280
      7  H         2.6412788445    0.3046859935   -0.1957210126
      8  H         1.1144699778   -1.8751780942   -0.3099955817
      9  H        -1.2768257090   -1.0083934510   -1.4379233267
     10  H        -1.8285754563    0.9157714794    1.2615587364
     11  H        -1.1380020775    1.7083064645   -1.0994485217
     12  C        -0.1922190193   -0.6298491046    1.2281217383
     13  H        -0.3416708599   -1.2636470826    2.1093437724
   Point Group: c1    Number of degrees of freedom:    33


   Energy is   -286.812780645


 Attempting to Generate Delocalized Internal Coordinates

 Transforming Cartesian Hessian to Internal Coordinates
 Hessian Transformation does not Include Derivative of B-matrix

 33 Hessian modes will be used to form the next step
  Hessian Eigenvalues:
    -0.044786   -0.000095    0.003614    0.008937    0.015586    0.019429
     0.025168    0.030967    0.033089    0.035964    0.036204    0.039594
     0.043130    0.065915    0.078988    0.092139    0.109722    0.113537
     0.125815    0.142589    0.153220    0.162308    0.191248    0.268248
     0.287037    0.314448    0.341663    0.344723    0.345880    0.358912
     0.359211    0.370899    0.582057
**WARNING** Magnitude of eigenvalue   2 too small.  Replaced by    -0.000100
**WARNING** Hessian does not have the Desired Local Structure

 Transition State Search - Taking P-RFO Step
 Searching for Lamda that Maximizes Along the Lowest mode
 Value Taken    Lamda =   0.00083603
 Searching for Lamda that Minimizes Along All other modes
 Value Taken    Lamda =  -0.01635366
 Calculated Step too Large.  Step scaled by  0.186380
 Step Taken.  Stepsize is  0.100000

                             Maximum     Tolerance    Cnvgd?
         Gradient           0.020454      0.000010      NO
         Displacement       0.064107      0.001200      NO
         Energy change     *********      0.000001      NO


 New Cartesian Coordinates Obtained by Inverse Iteration

 Displacement from previous Coordinates is:  0.092299
 ----------------------------------------------------------------
             Standard Nuclear Orientation (Angstroms)
    I     Atom           X                Y                Z
 ----------------------------------------------------------------
    1      C       1.5555648612     0.3129088184    -0.2994332259
    2      C       0.6454029431    -0.9024642494    -0.0977242033
    3      C      -0.6114049405    -0.4231554118    -0.8302460453
    4      C      -1.0294466824     0.3928185066     0.7204378601
    5      C      -0.4831853041     1.0298088795    -0.5593792947
    6      N       0.9260853454     1.4073067701    -0.5179626141
    7      H       2.6379679865     0.2977151602    -0.1882660149
    8      H       1.1012353008    -1.8777880083    -0.2943434473
    9      H      -1.2773398185    -1.0029581927    -1.4559296662
   10      H      -1.8333006923     0.9022670836     1.2584646711
   11      H      -1.1412141763     1.7129827366    -1.0907617162
   12      C      -0.1809963980    -0.6226118126     1.2259134492
   13      H      -0.3190673544    -1.2518694624     2.1086067689
 ----------------------------------------------------------------
 Nuclear Repulsion Energy =   280.5019443674 hartrees
 There are       25 alpha and       24 beta electrons
 Applying Cartesian multipole field
    Component          Value
    ---------          -----
     (2,0,0)        1.00000E-11
     (0,2,0)        2.00000E-11
     (0,0,2)       -3.00000E-11
 Nucleus-field energy     =     0.0000000013 hartrees
 Requested basis set is 6-31G(d)
 There are 40 shells and 117 basis functions
 A cutoff of  1.0D-14 yielded    813 shell pairs
 There are      7085 function pairs
 Smallest overlap matrix eigenvalue = 1.51E-03
 Guess MOs from SCF MO coefficient file
 Reading MOs from coefficient file
 Reading MOs from coefficient file
 An unrestricted hybrid HF-DFT SCF calculation will be
 performed using Pulay DIIS extrapolation
 Exchange:     0.2000 Hartree-Fock + 0.0800 Slater + 0.7200 B88
 Correlation:  0.1900 VWN1RPA + 0.8100 LYP
 Using SG-1 standard quadrature grid
 SCF converges when DIIS error is below 1.0E-08
 Geometry optimization detected.  Setting ReadMinima to 0
 Setting SaveMinima to 0
Using Q-Chem read-in guess as SCF_GUESS READ specified.

 using 4 threads for integral computing
 -------------------------------------------------------
 OpenMP Integral computing Module                
 Release: version 1.0, May 2013, Q-Chem Inc. Pittsburgh 
 -------------------------------------------------------
 -------------------------------------------------------
 OpenMP BLAS3 based DFT computing Module                
 Release: version 1.0, May 2013, Q-Chem Inc. Pittsburgh 
 -------------------------------------------------------
 ---------------------------------------
  Cycle       Energy         DIIS Error
 ---------------------------------------
    1    -286.8201923732      6.26E-04
    2    -286.8153903187      1.93E-04
    3    -286.8153106258      2.92E-04
    4    -286.8154744315      4.94E-05
    5    -286.8154788882      1.46E-05
    6    -286.8154799755      5.40E-06
    7    -286.8154804725      5.33E-06
    8    -286.8154807706      1.64E-06
    9    -286.8154808522      1.15E-06
   10    -286.8154808747      2.75E-07
   11    -286.8154808765      1.11E-07
   12    -286.8154808767      4.94E-08
   13    -286.8154808768      1.18E-08
   14    -286.8154808768      7.22E-09 Convergence criterion met
 ---------------------------------------
 <S^2> = 0.7722
 SCF time:  CPU 35.83 s  wall 14.83 s
 SCF   energy in the final basis set = -286.81548088
 Total energy in the final basis set = -286.81548088
 
 --------------------------------------------------------------
 
                    Orbital Energies (a.u.)
 --------------------------------------------------------------
 
 Alpha MOs
 -- Occupied --
-14.315 -10.224 -10.219 -10.218 -10.216 -10.212 -10.195  -0.961
 -0.841  -0.738  -0.682  -0.591  -0.578  -0.537  -0.513  -0.457
 -0.432  -0.409  -0.399  -0.373  -0.329  -0.299  -0.272  -0.264
 -0.132
 -- Virtual --
  0.005   0.018   0.095   0.141   0.146   0.152   0.155   0.159
  0.173   0.198   0.215   0.278   0.283   0.300   0.350   0.387
  0.491   0.506   0.509   0.539   0.563   0.580   0.589   0.605
  0.626   0.646   0.661   0.679   0.695   0.749   0.764   0.798
  0.815   0.824   0.835   0.847   0.864   0.884   0.904   0.936
  0.981   1.032   1.057   1.108   1.188   1.233   1.238   1.337
  1.409   1.453   1.470   1.507   1.590   1.648   1.671   1.727
  1.762   1.826   1.850   1.871   1.941   1.961   2.015   2.040
  2.082   2.128   2.165   2.239   2.281   2.314   2.340   2.347
  2.404   2.472   2.526   2.540   2.580   2.609   2.648   2.679
  2.685   2.797   2.834   2.907   2.966   3.947   4.182   4.255
  4.323   4.416   4.528   4.597
 
 Beta MOs
 -- Occupied --
-14.314 -10.224 -10.221 -10.218 -10.213 -10.208 -10.184  -0.957
 -0.833  -0.734  -0.670  -0.586  -0.570  -0.531  -0.509  -0.449
 -0.429  -0.403  -0.397  -0.368  -0.324  -0.282  -0.267  -0.255
 -- Virtual --
 -0.020   0.019   0.033   0.097   0.146   0.152   0.153   0.159
  0.162   0.177   0.202   0.218   0.282   0.286   0.304   0.358
  0.390   0.500   0.510   0.517   0.553   0.567   0.583   0.595
  0.609   0.633   0.665   0.674   0.682   0.701   0.754   0.769
  0.800   0.816   0.825   0.837   0.850   0.869   0.886   0.908
  0.939   0.984   1.042   1.065   1.113   1.194   1.241   1.245
  1.343   1.411   1.462   1.476   1.508   1.599   1.655   1.676
  1.739   1.769   1.830   1.855   1.877   1.947   1.977   2.026
  2.049   2.087   2.138   2.168   2.253   2.290   2.325   2.349
  2.361   2.415   2.482   2.532   2.547   2.584   2.615   2.655
  2.683   2.693   2.801   2.837   2.908   2.967   3.948   4.193
  4.256   4.339   4.420   4.532   4.600
 --------------------------------------------------------------
 
          Ground-State Mulliken Net Atomic Charges

     Atom                 Charge (a.u.)    Spin (a.u.)
  --------------------------------------------------------
      1 C                     0.091891       0.023027
      2 C                    -0.255974      -0.062736
      3 C                    -0.125883       0.460515
      4 C                    -0.148678      -0.176933
      5 C                    -0.015184       0.003919
      6 N                    -0.339632       0.034766
      7 H                     0.143828       0.000678
      8 H                     0.138163       0.007443
      9 H                     0.158196      -0.017840
     10 H                     0.153179       0.007400
     11 H                     0.149318       0.003406
     12 C                    -0.093795       0.754671
     13 H                     0.144571      -0.038316
  --------------------------------------------------------
  Sum of atomic charges =    -0.000000
  Sum of spin   charges =     1.000000

 -----------------------------------------------------------------
                    Cartesian Multipole Moments
 -----------------------------------------------------------------
    Charge (ESU x 10^10)
                -0.0000
    Dipole Moment (Debye)
         X      -1.2630      Y      -2.0050      Z       0.0528
       Tot       2.3702
    Quadrupole Moments (Debye-Ang)
        XX     -37.7193     XY      -4.4751     YY     -42.9812
        XZ       0.5777     YZ       1.0226     ZZ     -40.3708
    Octopole Moments (Debye-Ang^2)
       XXX      -6.6233    XXY      -6.2576    XYY     -10.9388
       YYY     -26.8162    XXZ       1.4179    XYZ       0.9539
       YYZ       2.8805    XZZ      -9.0711    YZZ      -8.4172
       ZZZ       6.9943
    Hexadecapole Moments (Debye-Ang^3)
      XXXX    -246.9080   XXXY     -10.6608   XXYY     -85.8179
      XYYY     -23.0518   YYYY    -244.7521   XXXZ      19.5168
      XXYZ      13.7887   XYYZ      11.3665   YYYZ      29.6174
      XXZZ     -74.0554   XYZZ      -3.3735   YYZZ     -65.6278
      XZZZ      19.1847   YZZZ      22.6007   ZZZZ    -184.9033
 -----------------------------------------------------------------
 Calculating analytic gradient of the SCF energy
 Gradient of SCF Energy
            1           2           3           4           5           6
    1   0.0015458   0.0131944   0.0059740  -0.0075892  -0.0021982  -0.0002302
    2   0.0021250  -0.0047484   0.0007066   0.0007385  -0.0007125   0.0004918
    3  -0.0014532  -0.0177961   0.0160562   0.0022225  -0.0011209   0.0034620
            7           8           9          10          11          12
    1  -0.0002208   0.0063833   0.0015169   0.0058582   0.0006226  -0.0203011
    2   0.0012379  -0.0003790  -0.0035900   0.0111071  -0.0028240   0.0018886
    3  -0.0022382  -0.0041750   0.0022459   0.0061839  -0.0044588  -0.0048873
           13
    1  -0.0045560
    2  -0.0060417
    3   0.0059590
 Max gradient component =       2.030E-02
 RMS gradient           =       6.679E-03
 Gradient time:  CPU 7.96 s  wall 2.13 s
 Geometry Optimization Parameters
   NAtoms,    NIC,     NZ,  NCons,   NDum,   NFix, NCnnct, MaxDiis
       13     128       0       0       0       0       0       0

 Cartesian Hessian Update
 Hessian Updated using Powell/Murtagh-Sargent Update
  Mixing factors:     0.955844 Powell
                      0.044156 Murtagh-Sargent


** GEOMETRY OPTIMIZATION IN DELOCALIZED INTERNAL COORDINATES **
   Searching for a Transition State

   Optimization Cycle:   2

                       Coordinates (Angstroms)
     ATOM                X               Y               Z
      1  C         1.5555648612    0.3129088184   -0.2994332259
      2  C         0.6454029431   -0.9024642494   -0.0977242033
      3  C        -0.6114049405   -0.4231554118   -0.8302460453
      4  C        -1.0294466824    0.3928185066    0.7204378601
      5  C        -0.4831853041    1.0298088795   -0.5593792947
      6  N         0.9260853454    1.4073067701   -0.5179626141
      7  H         2.6379679865    0.2977151602   -0.1882660149
      8  H         1.1012353008   -1.8777880083   -0.2943434473
      9  H        -1.2773398185   -1.0029581927   -1.4559296662
     10  H        -1.8333006923    0.9022670836    1.2584646711
     11  H        -1.1412141763    1.7129827366   -1.0907617162
     12  C        -0.1809963980   -0.6226118126    1.2259134492
     13  H        -0.3190673544   -1.2518694624    2.1086067689
   Point Group: c1    Number of degrees of freedom:    33


   Energy is   -286.815480877

 Hessian Updated using Powell/Murtagh-Sargent Update
  Mixing factors:     0.999621 Powell
                      0.000379 Murtagh-Sargent

 33 Hessian modes will be used to form the next step
  Hessian Eigenvalues:
    -0.045057   -0.000196    0.003609    0.008493    0.015587    0.019251
     0.024740    0.031184    0.033202    0.035851    0.036275    0.039590
     0.043181    0.065777    0.079153    0.092133    0.111022    0.113546
     0.125571    0.142459    0.153269    0.162233    0.191275    0.268249
     0.287158    0.314347    0.341714    0.344754    0.346090    0.358916
     0.359211    0.370900    0.582063
**WARNING** Hessian does not have the Desired Local Structure

 Transition State Search - Taking P-RFO Step
 Searching for Lamda that Maximizes Along the Lowest mode
 Value Taken    Lamda =   0.00052046
 Searching for Lamda that Minimizes Along All other modes
 Value Taken    Lamda =  -0.01303283
 Calculated Step too Large.  Step scaled by  0.190947
 Step Taken.  Stepsize is  0.100000

                             Maximum     Tolerance    Cnvgd?
         Gradient           0.017682      0.000010      NO
         Displacement       0.063666      0.001200      NO
         Energy change     -0.002700      0.000001      NO


 New Cartesian Coordinates Obtained by Inverse Iteration

 Displacement from previous Coordinates is:  0.088944
 ----------------------------------------------------------------
             Standard Nuclear Orientation (Angstroms)
    I     Atom           X                Y                Z
 ----------------------------------------------------------------
    1      C       1.5534941215     0.3101031493    -0.2982642672
    2      C       0.6390157658    -0.9016110283    -0.0937195779
    3      C      -0.6114064537    -0.4225396018    -0.8433479287
    4      C      -1.0264219301     0.3910562676     0.7211125442
    5      C      -0.4847577474     1.0292122371    -0.5591750197
    6      N       0.9263596427     1.4054430885    -0.5192426360
    7      H       2.6354110806     0.2910613648    -0.1819175359
    8      H       1.0889982206    -1.8807544713    -0.2799406103
    9      H      -1.2783556059    -0.9974735518    -1.4722133826
   10      H      -1.8404887104     0.8874230959     1.2537720193
   11      H      -1.1435229980     1.7185936396    -1.0815302741
   12      C      -0.1709610554    -0.6158215482     1.2242655811
   13      H      -0.2970632597    -1.2397318234     2.1095776092
 ----------------------------------------------------------------
 Nuclear Repulsion Energy =   280.6450504241 hartrees
 There are       25 alpha and       24 beta electrons
 Applying Cartesian multipole field
    Component          Value
    ---------          -----
     (2,0,0)        1.00000E-11
     (0,2,0)        2.00000E-11
     (0,0,2)       -3.00000E-11
 Nucleus-field energy     =     0.0000000013 hartrees
 Requested basis set is 6-31G(d)
 There are 40 shells and 117 basis functions
 A cutoff of  1.0D-14 yielded    813 shell pairs
 There are      7085 function pairs
 Smallest overlap matrix eigenvalue = 1.49E-03
 Guess MOs from SCF MO coefficient file
 Reading MOs from coefficient file
 Reading MOs from coefficient file
 An unrestricted hybrid HF-DFT SCF calculation will be
 performed using Pulay DIIS extrapolation
 Exchange:     0.2000 Hartree-Fock + 0.0800 Slater + 0.7200 B88
 Correlation:  0.1900 VWN1RPA + 0.8100 LYP
 Using SG-1 standard quadrature grid
 SCF converges when DIIS error is below 1.0E-08
 Geometry optimization detected.  Setting ReadMinima to 0
 Setting SaveMinima to 0
Using Q-Chem read-in guess as SCF_GUESS READ specified.

 using 4 threads for integral computing
 -------------------------------------------------------
 OpenMP Integral computing Module                
 Release: version 1.0, May 2013, Q-Chem Inc. Pittsburgh 
 -------------------------------------------------------
 -------------------------------------------------------
 OpenMP BLAS3 based DFT computing Module                
 Release: version 1.0, May 2013, Q-Chem Inc. Pittsburgh 
 -------------------------------------------------------
 ---------------------------------------
  Cycle       Energy         DIIS Error
 ---------------------------------------
    1    -286.8213887907      5.58E-04
    2    -286.8176324336      1.65E-04
    3    -286.8175689905      2.54E-04
    4    -286.8176937291      4.11E-05
    5    -286.8176968213      1.28E-05
    6    -286.8176975832      4.79E-06
    7    -286.8176979185      4.43E-06
    8    -286.8176981174      1.37E-06
    9    -286.8176981732      9.33E-07
   10    -286.8176981886      2.36E-07
   11    -286.8176981899      9.55E-08
   12    -286.8176981901      4.12E-08
   13    -286.8176981902      9.61E-09 Convergence criterion met
 ---------------------------------------
 <S^2> = 0.7736
 SCF time:  CPU 33.47 s  wall 14.82 s
 SCF   energy in the final basis set = -286.81769819
 Total energy in the final basis set = -286.81769819
 
 --------------------------------------------------------------
 
                    Orbital Energies (a.u.)
 --------------------------------------------------------------
 
 Alpha MOs
 -- Occupied --
-14.315 -10.224 -10.219 -10.218 -10.215 -10.212 -10.194  -0.961
 -0.841  -0.738  -0.682  -0.591  -0.577  -0.537  -0.513  -0.457
 -0.432  -0.409  -0.399  -0.372  -0.331  -0.297  -0.272  -0.264
 -0.134
 -- Virtual --
  0.006   0.018   0.095   0.141   0.149   0.152   0.155   0.160
  0.173   0.199   0.215   0.278   0.284   0.300   0.351   0.386
  0.491   0.506   0.509   0.539   0.565   0.580   0.590   0.607
  0.627   0.646   0.661   0.680   0.695   0.749   0.764   0.798
  0.815   0.825   0.836   0.847   0.864   0.884   0.903   0.936
  0.981   1.032   1.058   1.111   1.183   1.237   1.238   1.338
  1.408   1.456   1.467   1.505   1.592   1.651   1.673   1.732
  1.762   1.825   1.852   1.872   1.942   1.960   2.018   2.040
  2.087   2.131   2.165   2.238   2.283   2.313   2.339   2.348
  2.405   2.472   2.526   2.540   2.580   2.613   2.647   2.680
  2.684   2.799   2.837   2.908   2.965   3.947   4.187   4.256
  4.321   4.417   4.529   4.601
 
 Beta MOs
 -- Occupied --
-14.314 -10.224 -10.221 -10.218 -10.212 -10.208 -10.184  -0.957
 -0.832  -0.734  -0.670  -0.586  -0.569  -0.531  -0.509  -0.449
 -0.430  -0.403  -0.397  -0.367  -0.326  -0.281  -0.267  -0.255
 -- Virtual --
 -0.022   0.019   0.033   0.097   0.146   0.153   0.154   0.159
  0.163   0.176   0.203   0.219   0.282   0.287   0.304   0.359
  0.388   0.500   0.510   0.517   0.553   0.568   0.583   0.595
  0.610   0.633   0.665   0.675   0.682   0.701   0.754   0.769
  0.800   0.816   0.825   0.838   0.850   0.869   0.887   0.907
  0.939   0.983   1.042   1.065   1.117   1.190   1.242   1.247
  1.344   1.410   1.464   1.474   1.507   1.601   1.659   1.678
  1.743   1.769   1.829   1.857   1.878   1.948   1.976   2.030
  2.049   2.092   2.141   2.169   2.251   2.293   2.324   2.348
  2.362   2.416   2.482   2.532   2.547   2.584   2.620   2.653
  2.684   2.693   2.804   2.841   2.909   2.966   3.948   4.198
  4.257   4.337   4.421   4.532   4.605
 --------------------------------------------------------------
 
          Ground-State Mulliken Net Atomic Charges

     Atom                 Charge (a.u.)    Spin (a.u.)
  --------------------------------------------------------
      1 C                     0.092099       0.020737
      2 C                    -0.257540      -0.063540
      3 C                    -0.126690       0.481806
      4 C                    -0.146451      -0.184311
      5 C                    -0.017220       0.003202
      6 N                    -0.339368       0.038382
      7 H                     0.143810       0.000739
      8 H                     0.137887       0.007596
      9 H                     0.157964      -0.019104
     10 H                     0.152123       0.007861
     11 H                     0.148843       0.003384
     12 C                    -0.089880       0.740895
     13 H                     0.144423      -0.037647
  --------------------------------------------------------
  Sum of atomic charges =    -0.000000
  Sum of spin   charges =     1.000000

 -----------------------------------------------------------------
                    Cartesian Multipole Moments
 -----------------------------------------------------------------
    Charge (ESU x 10^10)
                -0.0000
    Dipole Moment (Debye)
         X      -1.2628      Y      -2.0165      Z       0.0953
       Tot       2.3811
    Quadrupole Moments (Debye-Ang)
        XX     -37.7175     XY      -4.4846     YY     -42.9932
        XZ       0.6499     YZ       0.9916     ZZ     -40.3446
    Octopole Moments (Debye-Ang^2)
       XXX      -6.8321    XXY      -6.2733    XYY     -10.9230
       YYY     -26.8346    XXZ       1.5252    XYZ       0.9055
       YYZ       2.9501    XZZ      -9.0333    YZZ      -8.5204
       ZZZ       7.2628
    Hexadecapole Moments (Debye-Ang^3)
      XXXX    -246.0120   XXXY     -10.5578   XXYY     -85.7024
      XYYY     -22.8660   YYYY    -243.7682   XXXZ      18.9675
      XXYZ      13.6928   XYYZ      11.3304   YYYZ      29.3449
      XXZZ     -74.0174   XYZZ      -3.3078   YYZZ     -65.7439
      XZZZ      18.8305   YZZZ      22.4608   ZZZZ    -185.2601
 -----------------------------------------------------------------
 Calculating analytic gradient of the SCF energy
 Gradient of SCF Energy
            1           2           3           4           5           6
    1   0.0010761   0.0110485   0.0044427  -0.0065421  -0.0015445  -0.0002518
    2   0.0018233  -0.0037919   0.0008995  -0.0004467  -0.0003855   0.0005816
    3  -0.0011451  -0.0144762   0.0132398   0.0013942  -0.0008414   0.0030862
            7           8           9          10          11          12
    1  -0.0001613   0.0053985   0.0013059   0.0053745   0.0004445  -0.0166572
    2   0.0009988  -0.0002486  -0.0032066   0.0099995  -0.0025524   0.0014894
    3  -0.0019104  -0.0035186   0.0019864   0.0053607  -0.0039693  -0.0038891
           13
    1  -0.0039337
    2  -0.0051604
    3   0.0046828
 Max gradient component =       1.666E-02
 RMS gradient           =       5.563E-03
 Gradient time:  CPU 7.50 s  wall 2.09 s
 Geometry Optimization Parameters
   NAtoms,    NIC,     NZ,  NCons,   NDum,   NFix, NCnnct, MaxDiis
       13     128       0       0       0       0       0       0

 Cartesian Hessian Update
 Hessian Updated using Powell/Murtagh-Sargent Update
  Mixing factors:     0.973455 Powell
                      0.026545 Murtagh-Sargent


** GEOMETRY OPTIMIZATION IN DELOCALIZED INTERNAL COORDINATES **
   Searching for a Transition State

   Optimization Cycle:   3

                       Coordinates (Angstroms)
     ATOM                X               Y               Z
      1  C         1.5534941215    0.3101031493   -0.2982642672
      2  C         0.6390157658   -0.9016110283   -0.0937195779
      3  C        -0.6114064537   -0.4225396018   -0.8433479287
      4  C        -1.0264219301    0.3910562676    0.7211125442
      5  C        -0.4847577474    1.0292122371   -0.5591750197
      6  N         0.9263596427    1.4054430885   -0.5192426360
      7  H         2.6354110806    0.2910613648   -0.1819175359
      8  H         1.0889982206   -1.8807544713   -0.2799406103
      9  H        -1.2783556059   -0.9974735518   -1.4722133826
     10  H        -1.8404887104    0.8874230959    1.2537720193
     11  H        -1.1435229980    1.7185936396   -1.0815302741
     12  C        -0.1709610554   -0.6158215482    1.2242655811
     13  H        -0.2970632597   -1.2397318234    2.1095776092
   Point Group: c1    Number of degrees of freedom:    33


   Energy is   -286.817698190

 Hessian Updated using Powell/Murtagh-Sargent Update
  Mixing factors:     0.860519 Powell
                      0.139481 Murtagh-Sargent

 33 Hessian modes will be used to form the next step
  Hessian Eigenvalues:
    -0.045174   -0.000202    0.003613    0.008209    0.015588    0.019236
     0.024572    0.031062    0.033193    0.035791    0.036246    0.040052
     0.043178    0.065703    0.079213    0.092164    0.113061    0.113807
     0.125722    0.142649    0.153268    0.162234    0.191275    0.268254
     0.287236    0.314447    0.341720    0.344766    0.346181    0.358917
     0.359212    0.370901    0.582107
**WARNING** Hessian does not have the Desired Local Structure

 Transition State Search - Taking P-RFO Step
 Searching for Lamda that Maximizes Along the Lowest mode
 Value Taken    Lamda =   0.00033484
 Searching for Lamda that Minimizes Along All other modes
 Value Taken    Lamda =  -0.00994477
 Calculated Step too Large.  Step scaled by  0.198384
 Step Taken.  Stepsize is  0.100000

                             Maximum     Tolerance    Cnvgd?
         Gradient           0.015046      0.000010      NO
         Displacement       0.062021      0.001200      NO
         Energy change     -0.002217      0.000001      NO


 New Cartesian Coordinates Obtained by Inverse Iteration

 Displacement from previous Coordinates is:  0.084760
 ----------------------------------------------------------------
             Standard Nuclear Orientation (Angstroms)
    I     Atom           X                Y                Z
 ----------------------------------------------------------------
    1      C       1.5521273818     0.3071662263    -0.2977604473
    2      C       0.6335623767    -0.9009755768    -0.0906179496
    3      C      -0.6110411403    -0.4216920523    -0.8547664810
    4      C      -1.0239101560     0.3897069138     0.7218096822
    5      C      -0.4859170365     1.0288478459    -0.5587719832
    6      N       0.9271054730     1.4034485849    -0.5206871542
    7      H       2.6335874994     0.2847302736    -0.1769163044
    8      H       1.0775215628    -1.8838389406    -0.2673405370
    9      H      -1.2793766187    -0.9915309591    -1.4865921000
   10      H      -1.8496360902     0.8714224194     1.2479825331
   11      H      -1.1450975420     1.7244307574    -1.0722787411
   12      C      -0.1622738452    -0.6094449897     1.2233007108
   13      H      -0.2763507942    -1.2273096850     2.1120152931
 ----------------------------------------------------------------
 Nuclear Repulsion Energy =   280.7515206796 hartrees
 There are       25 alpha and       24 beta electrons
 Applying Cartesian multipole field
    Component          Value
    ---------          -----
     (2,0,0)        1.00000E-11
     (0,2,0)        2.00000E-11
     (0,0,2)       -3.00000E-11
 Nucleus-field energy     =     0.0000000013 hartrees
 Requested basis set is 6-31G(d)
 There are 40 shells and 117 basis functions
 A cutoff of  1.0D-14 yielded    813 shell pairs
 There are      7085 function pairs
 Smallest overlap matrix eigenvalue = 1.47E-03
 Guess MOs from SCF MO coefficient file
 Reading MOs from coefficient file
 Reading MOs from coefficient file
 An unrestricted hybrid HF-DFT SCF calculation will be
 performed using Pulay DIIS extrapolation
 Exchange:     0.2000 Hartree-Fock + 0.0800 Slater + 0.7200 B88
 Correlation:  0.1900 VWN1RPA + 0.8100 LYP
 Using SG-1 standard quadrature grid
 SCF converges when DIIS error is below 1.0E-08
 Geometry optimization detected.  Setting ReadMinima to 0
 Setting SaveMinima to 0
Using Q-Chem read-in guess as SCF_GUESS READ specified.

 using 4 threads for integral computing
 -------------------------------------------------------
 OpenMP Integral computing Module                
 Release: version 1.0, May 2013, Q-Chem Inc. Pittsburgh 
 -------------------------------------------------------
 -------------------------------------------------------
 OpenMP BLAS3 based DFT computing Module                
 Release: version 1.0, May 2013, Q-Chem Inc. Pittsburgh 
 -------------------------------------------------------
 ---------------------------------------
  Cycle       Energy         DIIS Error
 ---------------------------------------
    1    -286.8223918228      4.82E-04
    2    -286.8194147252      1.35E-04
    3    -286.8193675468      2.15E-04
    4    -286.8194570009      3.32E-05
    5    -286.8194590639      1.10E-05
    6    -286.8194596117      4.10E-06
    7    -286.8194598459      3.67E-06
    8    -286.8194599801      1.12E-06
    9    -286.8194600189      7.49E-07
   10    -286.8194600290      1.96E-07
   11    -286.8194600300      7.85E-08
   12    -286.8194600301      3.44E-08
   13    -286.8194600302      7.79E-09 Convergence criterion met
 ---------------------------------------
 <S^2> = 0.7747
 SCF time:  CPU 33.31 s  wall 12.38 s
 SCF   energy in the final basis set = -286.81946003
 Total energy in the final basis set = -286.81946003
 
 --------------------------------------------------------------
 
                    Orbital Energies (a.u.)
 --------------------------------------------------------------
 
 Alpha MOs
 -- Occupied --
-14.315 -10.224 -10.218 -10.218 -10.215 -10.211 -10.194  -0.960
 -0.840  -0.738  -0.683  -0.591  -0.577  -0.537  -0.513  -0.458
 -0.433  -0.410  -0.399  -0.371  -0.333  -0.295  -0.273  -0.264
 -0.136
 -- Virtual --
  0.006   0.017   0.094   0.140   0.151   0.152   0.155   0.161
  0.173   0.201   0.216   0.278   0.285   0.301   0.352   0.385
  0.490   0.505   0.509   0.539   0.566   0.580   0.590   0.608
  0.628   0.646   0.662   0.680   0.696   0.748   0.765   0.799
  0.815   0.825   0.836   0.847   0.863   0.884   0.901   0.937
  0.981   1.033   1.058   1.115   1.178   1.236   1.243   1.340
  1.407   1.457   1.465   1.505   1.594   1.654   1.674   1.735
  1.762   1.823   1.854   1.872   1.941   1.960   2.021   2.042
  2.091   2.133   2.166   2.237   2.285   2.313   2.336   2.350
  2.406   2.471   2.526   2.540   2.581   2.617   2.646   2.682
  2.684   2.802   2.840   2.909   2.964   3.947   4.191   4.257
  4.319   4.419   4.529   4.605
 
 Beta MOs
 -- Occupied --
-14.314 -10.224 -10.221 -10.218 -10.212 -10.207 -10.183  -0.956
 -0.832  -0.734  -0.670  -0.586  -0.569  -0.531  -0.509  -0.449
 -0.430  -0.404  -0.397  -0.366  -0.328  -0.280  -0.267  -0.254
 -- Virtual --
 -0.024   0.019   0.034   0.097   0.146   0.153   0.155   0.159
  0.164   0.176   0.204   0.220   0.282   0.287   0.305   0.359
  0.387   0.499   0.510   0.517   0.553   0.570   0.583   0.595
  0.612   0.634   0.665   0.675   0.682   0.701   0.754   0.770
  0.800   0.816   0.826   0.838   0.851   0.869   0.887   0.906
  0.940   0.983   1.043   1.065   1.121   1.185   1.242   1.251
  1.346   1.410   1.465   1.471   1.506   1.602   1.662   1.680
  1.747   1.769   1.827   1.859   1.880   1.949   1.975   2.033
  2.050   2.096   2.143   2.170   2.249   2.295   2.323   2.345
  2.364   2.417   2.482   2.532   2.547   2.584   2.624   2.652
  2.685   2.693   2.806   2.843   2.910   2.966   3.948   4.202
  4.258   4.335   4.423   4.533   4.609
 --------------------------------------------------------------
 
          Ground-State Mulliken Net Atomic Charges

     Atom                 Charge (a.u.)    Spin (a.u.)
  --------------------------------------------------------
      1 C                     0.092327       0.018451
      2 C                    -0.258684      -0.064232
      3 C                    -0.127337       0.499527
      4 C                    -0.144304      -0.190124
      5 C                    -0.019060       0.002603
      6 N                    -0.339167       0.041767
      7 H                     0.143809       0.000811
      8 H                     0.137699       0.007733
      9 H                     0.157770      -0.020212
     10 H                     0.151216       0.008241
     11 H                     0.148439       0.003368
     12 C                    -0.086984       0.729096
     13 H                     0.144274      -0.037029
  --------------------------------------------------------
  Sum of atomic charges =    -0.000000
  Sum of spin   charges =     1.000000

 -----------------------------------------------------------------
                    Cartesian Multipole Moments
 -----------------------------------------------------------------
    Charge (ESU x 10^10)
                -0.0000
    Dipole Moment (Debye)
         X      -1.2643      Y      -2.0263      Z       0.1326
       Tot       2.3920
    Quadrupole Moments (Debye-Ang)
        XX     -37.7082     XY      -4.4947     YY     -43.0091
        XZ       0.7133     YZ       0.9634     ZZ     -40.3215
    Octopole Moments (Debye-Ang^2)
       XXX      -7.0584    XXY      -6.2907    XYY     -10.9084
       YYY     -26.8400    XXZ       1.6278    XYZ       0.8666
       YYZ       3.0022    XZZ      -9.0026    YZZ      -8.6194
       ZZZ       7.5126
    Hexadecapole Moments (Debye-Ang^3)
      XXXX    -245.2623   XXXY     -10.4669   XXYY     -85.6281
      XYYY     -22.6999   YYYY    -242.8244   XXXZ      18.5012
      XXYZ      13.6083   XYYZ      11.3269   YYYZ      29.1115
      XXZZ     -74.0109   XYZZ      -3.2437   YYZZ     -65.8743
      XZZZ      18.5840   YZZZ      22.3349   ZZZZ    -185.6032
 -----------------------------------------------------------------
 Calculating analytic gradient of the SCF energy
 Gradient of SCF Energy
            1           2           3           4           5           6
    1   0.0007388   0.0091062   0.0032774  -0.0055757  -0.0010488  -0.0002489
    2   0.0015423  -0.0030020   0.0009533  -0.0012738  -0.0001497   0.0006149
    3  -0.0009062  -0.0116646   0.0107146   0.0007666  -0.0005772   0.0026787
            7           8           9          10          11          12
    1  -0.0001159   0.0045171   0.0011099   0.0047924   0.0002920  -0.0134648
    2   0.0007951  -0.0001562  -0.0028139   0.0088622  -0.0022503   0.0012713
    3  -0.0016041  -0.0029218   0.0017290   0.0046073  -0.0034522  -0.0029945
           13
    1  -0.0033797
    2  -0.0043932
    3   0.0036243
 Max gradient component =       1.346E-02
 RMS gradient           =       4.587E-03
 Gradient time:  CPU 7.99 s  wall 3.04 s
 Geometry Optimization Parameters
   NAtoms,    NIC,     NZ,  NCons,   NDum,   NFix, NCnnct, MaxDiis
       13     128       0       0       0       0       0       0

 Cartesian Hessian Update
 Hessian Updated using Powell/Murtagh-Sargent Update
  Mixing factors:     0.992595 Powell
                      0.007405 Murtagh-Sargent


** GEOMETRY OPTIMIZATION IN DELOCALIZED INTERNAL COORDINATES **
   Searching for a Transition State

   Optimization Cycle:   4

                       Coordinates (Angstroms)
     ATOM                X               Y               Z
      1  C         1.5521273818    0.3071662263   -0.2977604473
      2  C         0.6335623767   -0.9009755768   -0.0906179496
      3  C        -0.6110411403   -0.4216920523   -0.8547664810
      4  C        -1.0239101560    0.3897069138    0.7218096822
      5  C        -0.4859170365    1.0288478459   -0.5587719832
      6  N         0.9271054730    1.4034485849   -0.5206871542
      7  H         2.6335874994    0.2847302736   -0.1769163044
      8  H         1.0775215628   -1.8838389406   -0.2673405370
      9  H        -1.2793766187   -0.9915309591   -1.4865921000
     10  H        -1.8496360902    0.8714224194    1.2479825331
     11  H        -1.1450975420    1.7244307574   -1.0722787411
     12  C        -0.1622738452   -0.6094449897    1.2233007108
     13  H        -0.2763507942   -1.2273096850    2.1120152931
   Point Group: c1    Number of degrees of freedom:    33


   Energy is   -286.819460030

 Hessian Updated using Powell/Murtagh-Sargent Update
  Mixing factors:     0.862490 Powell
                      0.137510 Murtagh-Sargent

 33 Hessian modes will be used to form the next step
  Hessian Eigenvalues:
    -0.045122   -0.000168    0.003620    0.008169    0.015591    0.019228
     0.024476    0.030996    0.033181    0.035751    0.036221    0.040343
     0.043189    0.065655    0.079224    0.092185    0.113351    0.114485
     0.125855    0.142769    0.153273    0.162248    0.191274    0.268261
     0.287262    0.314550    0.341723    0.344788    0.346244    0.358918
     0.359212    0.370903    0.582135
**WARNING** Hessian does not have the Desired Local Structure

 Transition State Search - Taking P-RFO Step
 Searching for Lamda that Maximizes Along the Lowest mode
 Value Taken    Lamda =   0.00022703
 Searching for Lamda that Minimizes Along All other modes
 Value Taken    Lamda =  -0.00750249
 Calculated Step too Large.  Step scaled by  0.205897
 Step Taken.  Stepsize is  0.100000

                             Maximum     Tolerance    Cnvgd?
         Gradient           0.012621      0.000010      NO
         Displacement       0.059488      0.001200      NO
         Energy change     -0.001762      0.000001      NO


 New Cartesian Coordinates Obtained by Inverse Iteration

 Displacement from previous Coordinates is:  0.080933
 ----------------------------------------------------------------
             Standard Nuclear Orientation (Angstroms)
    I     Atom           X                Y                Z
 ----------------------------------------------------------------
    1      C       1.5512450784     0.3041744880    -0.2976431888
    2      C       0.6288573340    -0.9005844119    -0.0883069575
    3      C      -0.6103993974    -0.4206840939    -0.8647663861
    4      C      -1.0217935154     0.3887677729     0.7225663140
    5      C      -0.4867795156     1.0286447706    -0.5582827628
    6      N       0.9281276573     1.4013934910    -0.5220827240
    7      H       2.6322758109     0.2787841801    -0.1728512665
    8      H       1.0668231470    -1.8869714339    -0.2565382101
    9      H      -1.2804151015    -0.9853111248    -1.4993114595
   10      H      -1.8599017405     0.8547604259     1.2416022892
   11      H      -1.1460197507     1.7302707863    -1.0633900189
   12      C      -0.1549733843    -0.6037489115     1.2226574344
   13      H      -0.2567455516    -1.2145351209     2.1157234580
 ----------------------------------------------------------------
 Nuclear Repulsion Energy =   280.8299132574 hartrees
 There are       25 alpha and       24 beta electrons
 Applying Cartesian multipole field
    Component          Value
    ---------          -----
     (2,0,0)        1.00000E-11
     (0,2,0)        2.00000E-11
     (0,0,2)       -3.00000E-11
 Nucleus-field energy     =     0.0000000013 hartrees
 Requested basis set is 6-31G(d)
 There are 40 shells and 117 basis functions
 A cutoff of  1.0D-14 yielded    813 shell pairs
 There are      7085 function pairs
 Smallest overlap matrix eigenvalue = 1.46E-03
 Guess MOs from SCF MO coefficient file
 Reading MOs from coefficient file
 Reading MOs from coefficient file
 An unrestricted hybrid HF-DFT SCF calculation will be
 performed using Pulay DIIS extrapolation
 Exchange:     0.2000 Hartree-Fock + 0.0800 Slater + 0.7200 B88
 Correlation:  0.1900 VWN1RPA + 0.8100 LYP
 Using SG-1 standard quadrature grid
 SCF converges when DIIS error is below 1.0E-08
 Geometry optimization detected.  Setting ReadMinima to 0
 Setting SaveMinima to 0
Using Q-Chem read-in guess as SCF_GUESS READ specified.

 using 4 threads for integral computing
 -------------------------------------------------------
 OpenMP Integral computing Module                
 Release: version 1.0, May 2013, Q-Chem Inc. Pittsburgh 
 -------------------------------------------------------
 -------------------------------------------------------
 OpenMP BLAS3 based DFT computing Module                
 Release: version 1.0, May 2013, Q-Chem Inc. Pittsburgh 
 -------------------------------------------------------
 ---------------------------------------
  Cycle       Energy         DIIS Error
 ---------------------------------------
    1    -286.8231461195      4.15E-04
    2    -286.8208064356      1.12E-04
    3    -286.8207715435      1.83E-04
    4    -286.8208362270      2.70E-05
    5    -286.8208376332      9.67E-06
    6    -286.8208380488      3.54E-06
    7    -286.8208382231      3.12E-06
    8    -286.8208383185      9.41E-07
    9    -286.8208383470      6.07E-07
   10    -286.8208383538      1.65E-07
   11    -286.8208383545      6.36E-08
   12    -286.8208383546      2.96E-08
   13    -286.8208383546      6.38E-09 Convergence criterion met
 ---------------------------------------
 <S^2> = 0.7757
 SCF time:  CPU 33.13 s  wall 12.87 s
 SCF   energy in the final basis set = -286.82083835
 Total energy in the final basis set = -286.82083835
 
 --------------------------------------------------------------
 
                    Orbital Energies (a.u.)
 --------------------------------------------------------------
 
 Alpha MOs
 -- Occupied --
-14.315 -10.224 -10.218 -10.218 -10.214 -10.211 -10.193  -0.960
 -0.839  -0.738  -0.683  -0.591  -0.577  -0.538  -0.512  -0.458
 -0.433  -0.411  -0.398  -0.370  -0.335  -0.294  -0.273  -0.264
 -0.137
 -- Virtual --
  0.006   0.017   0.094   0.140   0.151   0.153   0.155   0.162
  0.172   0.202   0.216   0.278   0.285   0.302   0.352   0.383
  0.490   0.505   0.509   0.538   0.568   0.581   0.590   0.608
  0.629   0.647   0.662   0.680   0.696   0.748   0.765   0.799
  0.815   0.826   0.837   0.847   0.863   0.885   0.900   0.937
  0.981   1.033   1.058   1.118   1.173   1.235   1.248   1.341
  1.407   1.458   1.463   1.504   1.595   1.657   1.675   1.738
  1.762   1.822   1.856   1.873   1.940   1.961   2.023   2.043
  2.094   2.135   2.167   2.236   2.286   2.312   2.332   2.353
  2.407   2.471   2.526   2.541   2.581   2.620   2.646   2.683
  2.684   2.803   2.842   2.909   2.964   3.947   4.194   4.258
  4.317   4.420   4.530   4.608
 
 Beta MOs
 -- Occupied --
-14.314 -10.224 -10.220 -10.218 -10.211 -10.206 -10.183  -0.956
 -0.831  -0.734  -0.671  -0.586  -0.568  -0.532  -0.509  -0.449
 -0.430  -0.405  -0.396  -0.365  -0.330  -0.278  -0.267  -0.254
 -- Virtual --
 -0.026   0.019   0.034   0.097   0.146   0.153   0.156   0.160
  0.165   0.175   0.206   0.220   0.282   0.288   0.306   0.359
  0.386   0.499   0.510   0.516   0.553   0.571   0.584   0.596
  0.613   0.635   0.665   0.675   0.683   0.701   0.754   0.770
  0.800   0.816   0.826   0.839   0.851   0.869   0.887   0.905
  0.940   0.983   1.043   1.065   1.125   1.180   1.240   1.256
  1.348   1.409   1.465   1.470   1.506   1.604   1.664   1.680
  1.749   1.769   1.826   1.861   1.881   1.948   1.974   2.035
  2.051   2.099   2.145   2.171   2.247   2.296   2.323   2.342
  2.366   2.417   2.481   2.532   2.548   2.584   2.627   2.651
  2.686   2.693   2.808   2.845   2.911   2.965   3.949   4.205
  4.259   4.333   4.424   4.533   4.612
 --------------------------------------------------------------
 
          Ground-State Mulliken Net Atomic Charges

     Atom                 Charge (a.u.)    Spin (a.u.)
  --------------------------------------------------------
      1 C                     0.092543       0.016274
      2 C                    -0.259471      -0.064853
      3 C                    -0.127859       0.514586
      4 C                    -0.142218      -0.194878
      5 C                    -0.020736       0.002108
      6 N                    -0.339015       0.044939
      7 H                     0.143815       0.000886
      8 H                     0.137576       0.007867
      9 H                     0.157602      -0.021209
     10 H                     0.150459       0.008584
     11 H                     0.148094       0.003360
     12 C                    -0.084916       0.718766
     13 H                     0.144126      -0.036432
  --------------------------------------------------------
  Sum of atomic charges =     0.000000
  Sum of spin   charges =     1.000000

 -----------------------------------------------------------------
                    Cartesian Multipole Moments
 -----------------------------------------------------------------
    Charge (ESU x 10^10)
                 0.0000
    Dipole Moment (Debye)
         X      -1.2667      Y      -2.0344      Z       0.1660
       Tot       2.4022
    Quadrupole Moments (Debye-Ang)
        XX     -37.6943     XY      -4.5052     YY     -43.0288
        XZ       0.7700     YZ       0.9378     ZZ     -40.2988
    Octopole Moments (Debye-Ang^2)
       XXX      -7.2893    XXY      -6.3090    XYY     -10.8916
       YYY     -26.8303    XXZ       1.7250    XYZ       0.8350
       YYZ       3.0377    XZZ      -8.9739    YZZ      -8.7095
       ZZZ       7.7505
    Hexadecapole Moments (Debye-Ang^3)
      XXXX    -244.6251   XXXY     -10.3827   XXYY     -85.5870
      XYYY     -22.5513   YYYY    -241.9427   XXXZ      18.1044
      XXYZ      13.5308   XYYZ      11.3458   YYYZ      28.9095
      XXZZ     -74.0243   XYZZ      -3.1841   YYZZ     -66.0142
      XZZZ      18.4222   YZZZ      22.2156   ZZZZ    -185.9056
 -----------------------------------------------------------------
 Calculating analytic gradient of the SCF energy
 Gradient of SCF Energy
            1           2           3           4           5           6
    1   0.0005026   0.0073965   0.0023930  -0.0046757  -0.0006832  -0.0002322
    2   0.0012831  -0.0023603   0.0009123  -0.0017806   0.0000115   0.0006058
    3  -0.0007192  -0.0093323   0.0085545   0.0002904  -0.0003595   0.0022677
            7           8           9          10          11          12
    1  -0.0000824   0.0037352   0.0009296   0.0041490   0.0001710  -0.0107113
    2   0.0006259  -0.0000940  -0.0024201   0.0077136  -0.0019364   0.0011659
    3  -0.0013249  -0.0023884   0.0014737   0.0039220  -0.0029340  -0.0022107
           13
    1  -0.0028920
    2  -0.0037268
    3   0.0027606
 Max gradient component =       1.071E-02
 RMS gradient           =       3.745E-03
 Gradient time:  CPU 7.63 s  wall 2.63 s
 Geometry Optimization Parameters
   NAtoms,    NIC,     NZ,  NCons,   NDum,   NFix, NCnnct, MaxDiis
       13     128       0       0       0       0       0       0

 Cartesian Hessian Update
 Hessian Updated using Powell/Murtagh-Sargent Update
  Mixing factors:     0.999629 Powell
                      0.000371 Murtagh-Sargent


** GEOMETRY OPTIMIZATION IN DELOCALIZED INTERNAL COORDINATES **
   Searching for a Transition State

   Optimization Cycle:   5

                       Coordinates (Angstroms)
     ATOM                X               Y               Z
      1  C         1.5512450784    0.3041744880   -0.2976431888
      2  C         0.6288573340   -0.9005844119   -0.0883069575
      3  C        -0.6103993974   -0.4206840939   -0.8647663861
      4  C        -1.0217935154    0.3887677729    0.7225663140
      5  C        -0.4867795156    1.0286447706   -0.5582827628
      6  N         0.9281276573    1.4013934910   -0.5220827240
      7  H         2.6322758109    0.2787841801   -0.1728512665
      8  H         1.0668231470   -1.8869714339   -0.2565382101
      9  H        -1.2804151015   -0.9853111248   -1.4993114595
     10  H        -1.8599017405    0.8547604259    1.2416022892
     11  H        -1.1460197507    1.7302707863   -1.0633900189
     12  C        -0.1549733843   -0.6037489115    1.2226574344
     13  H        -0.2567455516   -1.2145351209    2.1157234580
   Point Group: c1    Number of degrees of freedom:    33


   Energy is   -286.820838355

 Hessian Updated using Powell/Murtagh-Sargent Update
  Mixing factors:     0.860653 Powell
                      0.139347 Murtagh-Sargent

 33 Hessian modes will be used to form the next step
  Hessian Eigenvalues:
    -0.045034   -0.000081    0.003628    0.008308    0.015593    0.019221
     0.024427    0.030961    0.033163    0.035723    0.036209    0.040499
     0.043202    0.065630    0.079221    0.092199    0.113375    0.114722
     0.125948    0.142833    0.153279    0.162260    0.191273    0.268271
     0.287267    0.314647    0.341725    0.344811    0.346282    0.358918
     0.359212    0.370904    0.582148
**WARNING** Magnitude of eigenvalue   2 too small.  Replaced by    -0.000100
**WARNING** Hessian does not have the Desired Local Structure

 Transition State Search - Taking P-RFO Step
 Searching for Lamda that Maximizes Along the Lowest mode
 Value Taken    Lamda =   0.00015303
 Searching for Lamda that Minimizes Along All other modes
 Value Taken    Lamda =  -0.00557180
 Calculated Step too Large.  Step scaled by  0.214540
 Step Taken.  Stepsize is  0.100000

                             Maximum     Tolerance    Cnvgd?
         Gradient           0.010435      0.000010      NO
         Displacement       0.056453      0.001200      NO
         Energy change     -0.001378      0.000001      NO


 New Cartesian Coordinates Obtained by Inverse Iteration

 Displacement from previous Coordinates is:  0.077571
 ----------------------------------------------------------------
             Standard Nuclear Orientation (Angstroms)
    I     Atom           X                Y                Z
 ----------------------------------------------------------------
    1      C       1.5506678475     0.3011754970    -0.2976568098
    2      C       0.6247223207    -0.9004549316    -0.0866692076
    3      C      -0.6096226669    -0.4195122575    -0.8735390345
    4      C      -1.0200619934     0.3880871668     0.7232858883
    5      C      -0.4874016375     1.0286008831    -0.5577987677
    6      N       0.9292995600     1.3993377342    -0.5232373105
    7      H       2.6312893888     0.2732127772    -0.1693156703
    8      H       1.0568855359    -1.8900929541    -0.2475377786
    9      H      -1.2815475835    -0.9789433097    -1.5105101483
   10      H      -1.8706667881     0.8378149847     1.2348658760
   11      H      -1.1463573405     1.7360044947    -1.0551250914
   12      C      -0.1490523463    -0.5989935343     1.2220307601
   13      H      -0.2378532262    -1.2012757326     2.1205838156
 ----------------------------------------------------------------
 Nuclear Repulsion Energy =   280.8886482509 hartrees
 There are       25 alpha and       24 beta electrons
 Applying Cartesian multipole field
    Component          Value
    ---------          -----
     (2,0,0)        1.00000E-11
     (0,2,0)        2.00000E-11
     (0,0,2)       -3.00000E-11
 Nucleus-field energy     =     0.0000000012 hartrees
 Requested basis set is 6-31G(d)
 There are 40 shells and 117 basis functions
 A cutoff of  1.0D-14 yielded    813 shell pairs
 There are      7085 function pairs
 Smallest overlap matrix eigenvalue = 1.44E-03
 Guess MOs from SCF MO coefficient file
 Reading MOs from coefficient file
 Reading MOs from coefficient file
 An unrestricted hybrid HF-DFT SCF calculation will be
 performed using Pulay DIIS extrapolation
 Exchange:     0.2000 Hartree-Fock + 0.0800 Slater + 0.7200 B88
 Correlation:  0.1900 VWN1RPA + 0.8100 LYP
 Using SG-1 standard quadrature grid
 SCF converges when DIIS error is below 1.0E-08
 Geometry optimization detected.  Setting ReadMinima to 0
 Setting SaveMinima to 0
Using Q-Chem read-in guess as SCF_GUESS READ specified.

 using 4 threads for integral computing
 -------------------------------------------------------
 OpenMP Integral computing Module                
 Release: version 1.0, May 2013, Q-Chem Inc. Pittsburgh 
 -------------------------------------------------------
 -------------------------------------------------------
 OpenMP BLAS3 based DFT computing Module                
 Release: version 1.0, May 2013, Q-Chem Inc. Pittsburgh 
 -------------------------------------------------------
 ---------------------------------------
  Cycle       Energy         DIIS Error
 ---------------------------------------
    1    -286.8237331264      3.58E-04
    2    -286.8218790540      9.40E-05
    3    -286.8218531638      1.57E-04
    4    -286.8219005319      2.21E-05
    5    -286.8219015056      8.60E-06
    6    -286.8219018236      3.05E-06
    7    -286.8219019522      2.64E-06
    8    -286.8219020190      7.89E-07
    9    -286.8219020400      4.92E-07
   10    -286.8219020446      1.43E-07
   11    -286.8219020452      5.24E-08
   12    -286.8219020453      2.62E-08
   13    -286.8219020453      5.34E-09 Convergence criterion met
 ---------------------------------------
 <S^2> = 0.7765
 SCF time:  CPU 33.55 s  wall 18.79 s
 SCF   energy in the final basis set = -286.82190205
 Total energy in the final basis set = -286.82190205
 
 --------------------------------------------------------------
 
                    Orbital Energies (a.u.)
 --------------------------------------------------------------
 
 Alpha MOs
 -- Occupied --
-14.315 -10.224 -10.218 -10.218 -10.214 -10.210 -10.193  -0.960
 -0.839  -0.738  -0.683  -0.591  -0.577  -0.538  -0.512  -0.458
 -0.433  -0.411  -0.398  -0.370  -0.336  -0.292  -0.273  -0.264
 -0.139
 -- Virtual --
  0.006   0.017   0.094   0.140   0.151   0.155   0.155   0.163
  0.172   0.202   0.217   0.278   0.286   0.302   0.353   0.382
  0.490   0.504   0.509   0.538   0.569   0.581   0.590   0.609
  0.630   0.647   0.662   0.681   0.696   0.748   0.766   0.799
  0.814   0.826   0.837   0.848   0.863   0.885   0.899   0.938
  0.980   1.033   1.058   1.122   1.169   1.232   1.254   1.343
  1.406   1.458   1.462   1.503   1.597   1.659   1.674   1.740
  1.762   1.822   1.857   1.874   1.939   1.961   2.025   2.045
  2.097   2.137   2.168   2.234   2.287   2.312   2.329   2.355
  2.407   2.470   2.526   2.541   2.581   2.622   2.645   2.683
  2.685   2.805   2.843   2.910   2.964   3.947   4.196   4.259
  4.315   4.420   4.530   4.610
 
 Beta MOs
 -- Occupied --
-14.314 -10.223 -10.220 -10.218 -10.211 -10.205 -10.183  -0.956
 -0.831  -0.735  -0.671  -0.586  -0.568  -0.532  -0.509  -0.450
 -0.430  -0.405  -0.396  -0.365  -0.331  -0.277  -0.266  -0.254
 -- Virtual --
 -0.027   0.019   0.034   0.097   0.146   0.153   0.156   0.160
  0.166   0.175   0.207   0.221   0.282   0.288   0.306   0.360
  0.385   0.498   0.510   0.516   0.553   0.572   0.584   0.596
  0.614   0.635   0.666   0.675   0.683   0.701   0.753   0.771
  0.800   0.816   0.827   0.839   0.851   0.868   0.888   0.904
  0.941   0.983   1.043   1.065   1.129   1.175   1.238   1.262
  1.349   1.408   1.464   1.469   1.506   1.605   1.666   1.680
  1.751   1.769   1.825   1.863   1.882   1.948   1.974   2.037
  2.053   2.102   2.147   2.172   2.246   2.297   2.322   2.340
  2.368   2.417   2.481   2.532   2.549   2.585   2.629   2.651
  2.688   2.694   2.809   2.847   2.912   2.965   3.949   4.208
  4.260   4.332   4.424   4.533   4.614
 --------------------------------------------------------------
 
          Ground-State Mulliken Net Atomic Charges

     Atom                 Charge (a.u.)    Spin (a.u.)
  --------------------------------------------------------
      1 C                     0.092712       0.014308
      2 C                    -0.259964      -0.065429
      3 C                    -0.128265       0.527193
      4 C                    -0.140252      -0.198794
      5 C                    -0.022247       0.001753
      6 N                    -0.338910       0.047920
      7 H                     0.143819       0.000963
      8 H                     0.137499       0.008015
      9 H                     0.157462      -0.022102
     10 H                     0.149843       0.008911
     11 H                     0.147803       0.003365
     12 C                    -0.083478       0.709738
     13 H                     0.143978      -0.035841
  --------------------------------------------------------
  Sum of atomic charges =     0.000000
  Sum of spin   charges =     1.000000

 -----------------------------------------------------------------
                    Cartesian Multipole Moments
 -----------------------------------------------------------------
    Charge (ESU x 10^10)
                 0.0000
    Dipole Moment (Debye)
         X      -1.2694      Y      -2.0406      Z       0.1962
       Tot       2.4112
    Quadrupole Moments (Debye-Ang)
        XX     -37.6786     XY      -4.5159     YY     -43.0524
        XZ       0.8224     YZ       0.9150     ZZ     -40.2742
    Octopole Moments (Debye-Ang^2)
       XXX      -7.5130    XXY      -6.3278    XYY     -10.8701
       YYY     -26.8018    XXZ       1.8161    XYZ       0.8085
       YYZ       3.0565    XZZ      -8.9420    YZZ      -8.7869
       ZZZ       7.9826
    Hexadecapole Moments (Debye-Ang^3)
      XXXX    -244.0842   XXXY     -10.3037   XXYY     -85.5734
      XYYY     -22.4205   YYYY    -241.1396   XXXZ      17.7632
      XXYZ      13.4587   XYYZ      11.3784   YYYZ      28.7375
      XXZZ     -74.0485   XYZZ      -3.1321   YYZZ     -66.1577
      XZZZ      18.3232   YZZZ      22.1028   ZZZZ    -186.1295
 -----------------------------------------------------------------
 Calculating analytic gradient of the SCF energy
 Gradient of SCF Energy
            1           2           3           4           5           6
    1   0.0003395   0.0059130   0.0017293  -0.0038354  -0.0004291  -0.0002089
    2   0.0010478  -0.0018427   0.0008079  -0.0020117   0.0001124   0.0005658
    3  -0.0005706  -0.0074004   0.0067345  -0.0000346  -0.0001989   0.0018743
            7           8           9          10          11          12
    1  -0.0000580   0.0030474   0.0007674   0.0034890   0.0000811  -0.0083737
    2   0.0004877  -0.0000535  -0.0020354   0.0065735  -0.0016260   0.0011185
    3  -0.0010768  -0.0019178   0.0012257   0.0032987  -0.0024368  -0.0015645
           13
    1  -0.0024616
    2  -0.0031444
    3   0.0020673
 Max gradient component =       8.374E-03
 RMS gradient           =       3.021E-03
 Gradient time:  CPU 7.86 s  wall 2.18 s
 Geometry Optimization Parameters
   NAtoms,    NIC,     NZ,  NCons,   NDum,   NFix, NCnnct, MaxDiis
       13     128       0       0       0       0       0       0

 Cartesian Hessian Update
 Hessian Updated using Powell/Murtagh-Sargent Update
  Mixing factors:     0.999875 Powell
                      0.000125 Murtagh-Sargent


** GEOMETRY OPTIMIZATION IN DELOCALIZED INTERNAL COORDINATES **
   Searching for a Transition State

   Optimization Cycle:   6

                       Coordinates (Angstroms)
     ATOM                X               Y               Z
      1  C         1.5506678475    0.3011754970   -0.2976568098
      2  C         0.6247223207   -0.9004549316   -0.0866692076
      3  C        -0.6096226669   -0.4195122575   -0.8735390345
      4  C        -1.0200619934    0.3880871668    0.7232858883
      5  C        -0.4874016375    1.0286008831   -0.5577987677
      6  N         0.9292995600    1.3993377342   -0.5232373105
      7  H         2.6312893888    0.2732127772   -0.1693156703
      8  H         1.0568855359   -1.8900929541   -0.2475377786
      9  H        -1.2815475835   -0.9789433097   -1.5105101483
     10  H        -1.8706667881    0.8378149847    1.2348658760
     11  H        -1.1463573405    1.7360044947   -1.0551250914
     12  C        -0.1490523463   -0.5989935343    1.2220307601
     13  H        -0.2378532262   -1.2012757326    2.1205838156
   Point Group: c1    Number of degrees of freedom:    33


   Energy is   -286.821902045

 Hessian Updated using Powell/Murtagh-Sargent Update
  Mixing factors:     0.885197 Powell
                      0.114803 Murtagh-Sargent

 33 Hessian modes will be used to form the next step
  Hessian Eigenvalues:
    -0.044913    0.000053    0.003636    0.008508    0.015595    0.019216
     0.024393    0.030930    0.033142    0.035703    0.036206    0.040565
     0.043215    0.065617    0.079219    0.092203    0.113371    0.114731
     0.126007    0.142854    0.153286    0.162261    0.191274    0.268282
     0.287266    0.314723    0.341725    0.344828    0.346300    0.358918
     0.359212    0.370905    0.582150
**WARNING** Magnitude of eigenvalue   2 too small.  Replaced by     0.000100

 Transition State Search - Taking P-RFO Step
 Searching for Lamda that Maximizes Along the Lowest mode
 Value Taken    Lamda =   0.00010251
 Searching for Lamda that Minimizes Along All other modes
 Value Taken    Lamda =  -0.00404530
 Calculated Step too Large.  Step scaled by  0.224642
 Step Taken.  Stepsize is  0.100000

                             Maximum     Tolerance    Cnvgd?
         Gradient           0.008494      0.000010      NO
         Displacement       0.053018      0.001200      NO
         Energy change     -0.001064      0.000001      NO


 New Cartesian Coordinates Obtained by Inverse Iteration

 Displacement from previous Coordinates is:  0.074479
 ----------------------------------------------------------------
             Standard Nuclear Orientation (Angstroms)
    I     Atom           X                Y                Z
 ----------------------------------------------------------------
    1      C       1.5502546064     0.2982084146    -0.2976056698
    2      C       0.6210229996    -0.9006016864    -0.0856377369
    3      C      -0.6088002168    -0.4181906244    -0.8812758730
    4      C      -1.0187499442     0.3874989622     0.7238764362
    5      C      -0.4878320269     1.0286927488    -0.5573639172
    6      N       0.9305149404     1.3973292902    -0.5239807529
    7      H       2.6304782798     0.2679975593    -0.1659806007
    8      H       1.0477077969    -1.8931651732    -0.2403505902
    9      H      -1.2828087039    -0.9725642523    -1.5203279051
   10      H      -1.8814348685     0.8210264256     1.2279630896
   11      H      -1.1461973730     1.7415309342    -1.0476300815
   12      C      -0.1445112465    -0.5953692288     1.2212211052
   13      H      -0.2193431727    -1.1874325520     2.1264690176
 ----------------------------------------------------------------
 Nuclear Repulsion Energy =   280.9335953409 hartrees
 There are       25 alpha and       24 beta electrons
 Applying Cartesian multipole field
    Component          Value
    ---------          -----
     (2,0,0)        1.00000E-11
     (0,2,0)        2.00000E-11
     (0,0,2)       -3.00000E-11
 Nucleus-field energy     =     0.0000000012 hartrees
 Requested basis set is 6-31G(d)
 There are 40 shells and 117 basis functions
 A cutoff of  1.0D-14 yielded    813 shell pairs
 There are      7085 function pairs
 Smallest overlap matrix eigenvalue = 1.43E-03
 Guess MOs from SCF MO coefficient file
 Reading MOs from coefficient file
 Reading MOs from coefficient file
 An unrestricted hybrid HF-DFT SCF calculation will be
 performed using Pulay DIIS extrapolation
 Exchange:     0.2000 Hartree-Fock + 0.0800 Slater + 0.7200 B88
 Correlation:  0.1900 VWN1RPA + 0.8100 LYP
 Using SG-1 standard quadrature grid
 SCF converges when DIIS error is below 1.0E-08
 Geometry optimization detected.  Setting ReadMinima to 0
 Setting SaveMinima to 0
[...]
 Searching for Lamda that Maximizes Along the Lowest mode
 Value Taken    Lamda =   0.00000000
 Searching for Lamda that Minimizes Along All other modes
 Value Taken    Lamda =   0.00000000
 Step Taken.  Stepsize is  0.003510

                             Maximum     Tolerance    Cnvgd?
         Gradient           0.000010      0.000010      NO
         Displacement       0.001865      0.001200      NO
         Energy change     -0.000000      0.000001     YES


 New Cartesian Coordinates Obtained by Inverse Iteration

 Displacement from previous Coordinates is:  0.001982
 ----------------------------------------------------------------
             Standard Nuclear Orientation (Angstroms)
    I     Atom           X                Y                Z
 ----------------------------------------------------------------
    1      C       1.5472061022     0.2800652443    -0.2862040863
    2      C       0.6018095335    -0.9085822596    -0.0935878209
    3      C      -0.5979932680    -0.4056680691    -0.9271138246
    4      C      -1.0219831915     0.3781443506     0.7188235532
    5      C      -0.4879944911     1.0310832966    -0.5559276323
    6      N       0.9369956081     1.3865071719    -0.5094835231
    7      H       2.6240597982     0.2394188089    -0.1301715307
    8      H       1.0034005867    -1.9120874673    -0.2366437791
    9      H      -1.3041684837    -0.9403965751    -1.5465843774
   10      H      -1.9405892945     0.7301172113     1.1823691791
   11      H      -1.1364718226     1.7728025567    -1.0154457198
   12      C      -0.1506101745    -0.6084357655     1.2012561475
   13      H      -0.0833598323    -1.0680076858     2.1780899358
 ----------------------------------------------------------------
 Nuclear Repulsion Energy =   281.0892981230 hartrees
 There are       25 alpha and       24 beta electrons
 Applying Cartesian multipole field
    Component          Value
    ---------          -----
     (2,0,0)        1.00000E-11
     (0,2,0)        2.00000E-11
     (0,0,2)       -3.00000E-11
 Nucleus-field energy     =     0.0000000012 hartrees
 Requested basis set is 6-31G(d)
 There are 40 shells and 117 basis functions
 A cutoff of  1.0D-14 yielded    813 shell pairs
 There are      7085 function pairs
 Smallest overlap matrix eigenvalue = 1.37E-03
 Guess MOs from SCF MO coefficient file
 Reading MOs from coefficient file
 Reading MOs from coefficient file
 An unrestricted hybrid HF-DFT SCF calculation will be
 performed using Pulay DIIS extrapolation
 Exchange:     0.2000 Hartree-Fock + 0.0800 Slater + 0.7200 B88
 Correlation:  0.1900 VWN1RPA + 0.8100 LYP
 Using SG-1 standard quadrature grid
 SCF converges when DIIS error is below 1.0E-08
 Geometry optimization detected.  Setting ReadMinima to 0
 Setting SaveMinima to 0
Using Q-Chem read-in guess as SCF_GUESS READ specified.

 using 4 threads for integral computing
 -------------------------------------------------------
 OpenMP Integral computing Module                
 Release: version 1.0, May 2013, Q-Chem Inc. Pittsburgh 
 -------------------------------------------------------
 -------------------------------------------------------
 OpenMP BLAS3 based DFT computing Module                
 Release: version 1.0, May 2013, Q-Chem Inc. Pittsburgh 
 -------------------------------------------------------
 ---------------------------------------
  Cycle       Energy         DIIS Error
 ---------------------------------------
    1    -286.8244866120      6.00E-06
    2    -286.8244730246      1.32E-06
    3    -286.8244730239      2.04E-06
    4    -286.8244730310      4.71E-07
    5    -286.8244730315      1.71E-07
    6    -286.8244730316      5.87E-08
    7    -286.8244730316      3.83E-08
    8    -286.8244730316      9.34E-09 Convergence criterion met
 ---------------------------------------
 <S^2> = 0.7805
 SCF time:  CPU 20.42 s  wall 7.32 s
 SCF   energy in the final basis set = -286.82447303
 Total energy in the final basis set = -286.82447303
 
 --------------------------------------------------------------
 
                    Orbital Energies (a.u.)
 --------------------------------------------------------------
 
 Alpha MOs
 -- Occupied --
-14.314 -10.224 -10.218 -10.216 -10.212 -10.209 -10.193  -0.959
 -0.836  -0.739  -0.685  -0.590  -0.575  -0.538  -0.513  -0.461
 -0.433  -0.413  -0.398  -0.367  -0.345  -0.284  -0.271  -0.264
 -0.145
 -- Virtual --
  0.006   0.018   0.095   0.139   0.150   0.154   0.156   0.164
  0.171   0.206   0.221   0.277   0.288   0.305   0.354   0.378
  0.490   0.503   0.511   0.535   0.576   0.581   0.591   0.611
  0.634   0.655   0.668   0.687   0.698   0.743   0.768   0.799
  0.811   0.822   0.836   0.849   0.859   0.885   0.896   0.942
  0.975   1.020   1.059   1.120   1.165   1.206   1.307   1.356
  1.400   1.454   1.460   1.512   1.595   1.646   1.666   1.739
  1.758   1.815   1.857   1.891   1.940   1.963   2.028   2.052
  2.108   2.142   2.170   2.228   2.274   2.302   2.319   2.363
  2.413   2.472   2.523   2.549   2.582   2.626   2.648   2.683
  2.693   2.810   2.848   2.908   2.961   3.948   4.203   4.262
  4.313   4.419   4.533   4.617
 
 Beta MOs
 -- Occupied --
-14.313 -10.224 -10.219 -10.218 -10.210 -10.204 -10.184  -0.955
 -0.828  -0.735  -0.673  -0.586  -0.566  -0.531  -0.510  -0.453
 -0.429  -0.408  -0.396  -0.362  -0.340  -0.274  -0.261  -0.251
 -- Virtual --
 -0.035   0.019   0.034   0.098   0.146   0.152   0.157   0.161
  0.166   0.174   0.211   0.225   0.281   0.291   0.309   0.360
  0.380   0.496   0.510   0.516   0.549   0.577   0.587   0.598
  0.618   0.639   0.673   0.677   0.691   0.706   0.749   0.772
  0.801   0.813   0.824   0.837   0.852   0.865   0.888   0.900
  0.945   0.979   1.026   1.064   1.131   1.169   1.211   1.312
  1.361   1.402   1.459   1.465   1.518   1.605   1.650   1.676
  1.748   1.767   1.817   1.863   1.900   1.949   1.971   2.041
  2.060   2.113   2.152   2.174   2.239   2.282   2.308   2.335
  2.375   2.422   2.484   2.528   2.556   2.585   2.633   2.653
  2.690   2.699   2.815   2.851   2.910   2.963   3.950   4.213
  4.263   4.330   4.424   4.536   4.620
 --------------------------------------------------------------
 
          Ground-State Mulliken Net Atomic Charges

     Atom                 Charge (a.u.)    Spin (a.u.)
  --------------------------------------------------------
      1 C                     0.091558       0.008787
      2 C                    -0.258880      -0.069058
      3 C                    -0.128068       0.570216
      4 C                    -0.132516      -0.216073
      5 C                    -0.028383       0.004293
      6 N                    -0.338708       0.064126
      7 H                     0.143591       0.001570
      8 H                     0.137622       0.010522
      9 H                     0.158486      -0.027812
     10 H                     0.147993       0.011846
     11 H                     0.146721       0.004261
     12 C                    -0.081394       0.664335
     13 H                     0.141979      -0.027013
  --------------------------------------------------------
  Sum of atomic charges =    -0.000000
  Sum of spin   charges =     1.000000

 -----------------------------------------------------------------
                    Cartesian Multipole Moments
 -----------------------------------------------------------------
    Charge (ESU x 10^10)
                 0.0000
    Dipole Moment (Debye)
         X      -1.2478      Y      -2.0036      Z       0.3520
       Tot       2.3865
    Quadrupole Moments (Debye-Ang)
        XX     -37.5894     XY      -4.6093     YY     -43.3518
        XZ       1.2603     YZ       0.8951     ZZ     -40.0322
    Octopole Moments (Debye-Ang^2)
       XXX      -8.4112    XXY      -6.3629    XYY     -10.4789
       YYY     -25.5796    XXZ       2.3280    XYZ       0.5230
       YYZ       2.6053    XZZ      -8.1756    YZZ      -8.5810
       ZZZ      10.0165
    Hexadecapole Moments (Debye-Ang^3)
      XXXX    -242.1176   XXXY      -9.8530   XXYY     -85.9108
      XYYY     -22.0022   YYYY    -238.1767   XXXZ      16.2441
      XXYZ      13.0051   XYYZ      11.5767   YYYZ      28.0616
      XXZZ     -74.0962   XYZZ      -3.1303   YYZZ     -67.2983
      XZZZ      18.3884   YZZZ      21.4353   ZZZZ    -184.4865
 -----------------------------------------------------------------
 Calculating analytic gradient of the SCF energy
 Gradient of SCF Energy
            1           2           3           4           5           6
    1  -0.0000005   0.0000011  -0.0000057   0.0000080  -0.0000030  -0.0000051
    2   0.0000056   0.0000034   0.0000097  -0.0000105   0.0000055   0.0000110
    3  -0.0000015  -0.0000184  -0.0000041   0.0000012   0.0000217   0.0000191
            7           8           9          10          11          12
    1  -0.0000008   0.0000028  -0.0000033  -0.0000002  -0.0000069   0.0000030
    2   0.0000062   0.0000051   0.0000207  -0.0000220   0.0000128  -0.0000150
    3  -0.0000058  -0.0000326  -0.0000082   0.0000198   0.0000297  -0.0000057
           13
    1   0.0000107
    2  -0.0000325
    3  -0.0000154
 Max gradient component =       3.260E-05
 RMS gradient           =       1.344E-05
 Gradient time:  CPU 7.61 s  wall 2.03 s
 Geometry Optimization Parameters
   NAtoms,    NIC,     NZ,  NCons,   NDum,   NFix, NCnnct, MaxDiis
       13     128       0       0       0       0       0       0

 Cartesian Hessian Update
 Hessian Updated using Powell/Murtagh-Sargent Update
**WARNING** Small Scalar Product
 Hessian Update Skipped this cycle


** GEOMETRY OPTIMIZATION IN DELOCALIZED INTERNAL COORDINATES **
   Searching for a Transition State

   Optimization Cycle:  18

                       Coordinates (Angstroms)
     ATOM                X               Y               Z
      1  C         1.5472061022    0.2800652443   -0.2862040863
      2  C         0.6018095335   -0.9085822596   -0.0935878209
      3  C        -0.5979932680   -0.4056680691   -0.9271138246
      4  C        -1.0219831915    0.3781443506    0.7188235532
      5  C        -0.4879944911    1.0310832966   -0.5559276323
      6  N         0.9369956081    1.3865071719   -0.5094835231
      7  H         2.6240597982    0.2394188089   -0.1301715307
      8  H         1.0034005867   -1.9120874673   -0.2366437791
      9  H        -1.3041684837   -0.9403965751   -1.5465843774
     10  H        -1.9405892945    0.7301172113    1.1823691791
     11  H        -1.1364718226    1.7728025567   -1.0154457198
     12  C        -0.1506101745   -0.6084357655    1.2012561475
     13  H        -0.0833598323   -1.0680076858    2.1780899358
   Point Group: c1    Number of degrees of freedom:    33


   Energy is   -286.824473032

 Hessian Updated using Powell/Murtagh-Sargent Update
**WARNING** Small Scalar Product
 Hessian Update Skipped this cycle

 33 Hessian modes will be used to form the next step
  Hessian Eigenvalues:
    -0.043856    0.001424    0.002269    0.008821    0.015588    0.019333
     0.024357    0.030717    0.033094    0.035676    0.036181    0.040640
     0.043141    0.065634    0.079230    0.092195    0.113321    0.114465
     0.126114    0.142825    0.153316    0.162207    0.191229    0.268252
     0.287155    0.314895    0.341722    0.344665    0.346376    0.358918
     0.359208    0.370879    0.582183

 Transition State Search - Taking P-RFO Step
 Searching for Lamda that Maximizes Along the Lowest mode
 Value Taken    Lamda =   0.00000000
 Searching for Lamda that Minimizes Along All other modes
 Value Taken    Lamda =   0.00000000
 Step Taken.  Stepsize is  0.000271

                             Maximum     Tolerance    Cnvgd?
         Gradient           0.000003      0.000010     YES
         Displacement       0.000164      0.001200     YES
         Energy change     -0.000000      0.000001     YES


                       Distance Matrix (Angstroms)
             C (  1)   C (  2)   C (  3)   C (  4)   C (  5)   N (  6)
   C (  2)  1.530934
   C (  3)  2.341554  1.545062
   C (  4)  2.760513  2.225394  1.871694
   C (  5)  2.186051  2.272385  1.487996  1.528550
   N (  6)  1.283131  2.356428  2.396351  2.522525  1.469381
   H (  7)  1.088858  2.325670  3.381254  3.746154  3.239272  2.075060
   H (  8)  2.259140  1.090304  2.304455  3.203164  3.314884  3.310525
   H (  9)  3.347898  2.396865  1.080908  2.636333  2.352504  3.393063
   H ( 10)  3.811033  3.282864  2.746360  1.087473  2.285233  3.402015
   H ( 11)  3.156293  3.325849  2.245773  2.228423  1.087119  2.168983
   C ( 12)  2.425810  1.527365  2.184313  1.401917  2.426839  2.844172
   H ( 13)  3.247890  2.378107  3.216494  2.258723  3.470557  3.780055
             H (  7)   H (  8)   H (  9)   H ( 10)   H ( 11)   C ( 12)
   H (  8)  2.695710
   H (  9)  4.339259  2.825775
   H ( 10)  4.774889  4.202609  3.262336
   H ( 11)  4.156510  4.331743  2.769780  2.562067
   C ( 12)  3.192233  2.258053  2.998587  2.235197  3.399410
   H ( 13)  3.790456  2.779291  3.921716  2.770201  4.402036  1.081635

 
 Final energy is   -286.824473031628     


 ******************************
 **  OPTIMIZATION CONVERGED  **
 ******************************

                       Coordinates (Angstroms)
     ATOM                X               Y               Z
      1  C         1.5472061022    0.2800652443   -0.2862040863
      2  C         0.6018095335   -0.9085822596   -0.0935878209
      3  C        -0.5979932680   -0.4056680691   -0.9271138246
      4  C        -1.0219831915    0.3781443506    0.7188235532
      5  C        -0.4879944911    1.0310832966   -0.5559276323
      6  N         0.9369956081    1.3865071719   -0.5094835231
      7  H         2.6240597982    0.2394188089   -0.1301715307
      8  H         1.0034005867   -1.9120874673   -0.2366437791
      9  H        -1.3041684837   -0.9403965751   -1.5465843774
     10  H        -1.9405892945    0.7301172113    1.1823691791
     11  H        -1.1364718226    1.7728025567   -1.0154457198
     12  C        -0.1506101745   -0.6084357655    1.2012561475
     13  H        -0.0833598323   -1.0680076858    2.1780899358

Z-matrix Print:
$molecule
0 2
N 
C  1 1.283131
H  2 1.088858 1 121.833026
C  1 1.469381 2 104.958433 3 -175.668153 0
H  4 1.087119 1 115.265614 2 -162.971953 0
C  4 1.487996 1 108.248082 2 -24.507595 0
H  6 1.080908 4 131.984099 1 -142.744470 0
C  4 1.528550 1 114.566854 2 58.840332 0
H  8 1.087473 4 120.818767 1 131.196398 0
C  8 1.401917 4 111.743872 1 -44.989223 0
H  10 1.081635 8 130.423649 4 162.057240 0
C  10 1.527365 8 98.786529 4 -21.893740 0
H  12 1.090304 10 118.264962 8 -150.711603 0
$end

 
 --------------------------------------------------------------
 
                    Orbital Energies (a.u.)
 --------------------------------------------------------------
 
 Alpha MOs
 -- Occupied --
-14.314 -10.224 -10.218 -10.216 -10.212 -10.209 -10.193  -0.959
 -0.836  -0.739  -0.685  -0.590  -0.575  -0.538  -0.513  -0.461
 -0.433  -0.413  -0.398  -0.367  -0.345  -0.284  -0.271  -0.264
 -0.145
 -- Virtual --
  0.006   0.018   0.095   0.139   0.150   0.154   0.156   0.164
  0.171   0.206   0.221   0.277   0.288   0.305   0.354   0.378
  0.490   0.503   0.511   0.535   0.576   0.581   0.591   0.611
  0.634   0.655   0.668   0.687   0.698   0.743   0.768   0.799
  0.811   0.822   0.836   0.849   0.859   0.885   0.896   0.942
  0.975   1.020   1.059   1.120   1.165   1.206   1.307   1.356
  1.400   1.454   1.460   1.512   1.595   1.646   1.666   1.739
  1.758   1.815   1.857   1.891   1.940   1.963   2.028   2.052
  2.108   2.142   2.170   2.228   2.274   2.302   2.319   2.363
  2.413   2.472   2.523   2.549   2.582   2.626   2.648   2.683
  2.693   2.810   2.848   2.908   2.961   3.948   4.203   4.262
  4.313   4.419   4.533   4.617
 
 Beta MOs
 -- Occupied --
-14.313 -10.224 -10.219 -10.218 -10.210 -10.204 -10.184  -0.955
 -0.828  -0.735  -0.673  -0.586  -0.566  -0.531  -0.510  -0.453
 -0.429  -0.408  -0.396  -0.362  -0.340  -0.274  -0.261  -0.251
 -- Virtual --
 -0.035   0.019   0.034   0.098   0.146   0.152   0.157   0.161
  0.166   0.174   0.211   0.225   0.281   0.291   0.309   0.360
  0.380   0.496   0.510   0.516   0.549   0.577   0.587   0.598
  0.618   0.639   0.673   0.677   0.691   0.706   0.749   0.772
  0.801   0.813   0.824   0.837   0.852   0.865   0.888   0.900
  0.945   0.979   1.026   1.064   1.131   1.169   1.211   1.312
  1.361   1.402   1.459   1.465   1.518   1.605   1.650   1.676
  1.748   1.767   1.817   1.863   1.900   1.949   1.971   2.041
  2.060   2.113   2.152   2.174   2.239   2.282   2.308   2.335
  2.375   2.422   2.484   2.528   2.556   2.585   2.633   2.653
  2.690   2.699   2.815   2.851   2.910   2.963   3.950   4.213
  4.263   4.330   4.424   4.536   4.620
 --------------------------------------------------------------
 
          Ground-State Mulliken Net Atomic Charges

     Atom                 Charge (a.u.)    Spin (a.u.)
  --------------------------------------------------------
      1 C                     0.091558       0.008787
      2 C                    -0.258880      -0.069058
      3 C                    -0.128068       0.570216
      4 C                    -0.132516      -0.216073
      5 C                    -0.028383       0.004293
      6 N                    -0.338708       0.064126
      7 H                     0.143591       0.001570
      8 H                     0.137622       0.010522
      9 H                     0.158486      -0.027812
     10 H                     0.147993       0.011846
     11 H                     0.146721       0.004261
     12 C                    -0.081394       0.664335
     13 H                     0.141979      -0.027013
  --------------------------------------------------------
  Sum of atomic charges =    -0.000000
  Sum of spin   charges =     1.000000

 -----------------------------------------------------------------
                    Cartesian Multipole Moments
 -----------------------------------------------------------------
    Charge (ESU x 10^10)
                 0.0000
    Dipole Moment (Debye)
         X      -1.2478      Y      -2.0036      Z       0.3520
       Tot       2.3865
    Quadrupole Moments (Debye-Ang)
        XX     -37.5894     XY      -4.6093     YY     -43.3518
        XZ       1.2603     YZ       0.8951     ZZ     -40.0322
    Octopole Moments (Debye-Ang^2)
       XXX      -8.4112    XXY      -6.3629    XYY     -10.4789
       YYY     -25.5796    XXZ       2.3280    XYZ       0.5230
       YYZ       2.6053    XZZ      -8.1756    YZZ      -8.5810
       ZZZ      10.0165
    Hexadecapole Moments (Debye-Ang^3)
      XXXX    -242.1176   XXXY      -9.8530   XXYY     -85.9108
      XYYY     -22.0022   YYYY    -238.1767   XXXZ      16.2441
      XXYZ      13.0051   XYYZ      11.5767   YYYZ      28.0616
      XXZZ     -74.0962   XYZZ      -3.1303   YYZZ     -67.2983
      XZZZ      18.3884   YZZZ      21.4353   ZZZZ    -184.4865
 -----------------------------------------------------------------
Archival summary:
1\1\c8-66\TS\ProcedureUnspecified\6-31G*\166(2)\hpark21\WedMar218:53:072022WedMar218:53:072022\0\\#,TS,ProcedureUnspecified,6-31G*,\\0,2\N\C,1,1.28313\H,2,1.08886,1,121.833\C,1,1.46938,2,104.958,3,-175.668,0\H,4,1.08712,1,115.266,2,-162.972,0\C,4,1.488,1,108.248,2,-24.5076,0\H,6,1.08091,4,131.984,1,-142.744,0\C,4,1.52855,1,114.567,2,58.8403,0\H,8,1.08747,4,120.819,1,131.196,0\C,8,1.40192,4,111.744,1,-44.9892,0\H,10,1.08163,8,130.424,4,162.057,0\C,10,1.52737,8,98.7865,4,-21.8937,0\H,12,1.0903,10,118.265,8,-150.712,0\\\@

 Total job time:  271.66s(wall), 705.28s(cpu) 
 Wed Mar  2 18:53:07 2022

        *************************************************************
        *                                                           *
        *  Thank you very much for using Q-Chem.  Have a nice day.  *
        *                                                           *
        *************************************************************


