
Running Job 1 of 1 qcts1.in
qchem qcts1.in_56236.0 ./qcts1.d/ 1
/home/leeping/opt/qchem/5.0.2-openmp/exe/qcprog.exe_s qcts1.in_56236.0 ./qcts1.d/
Check license passed

                  Welcome to Q-Chem
     A Quantum Leap Into The Future Of Chemistry


 Q-Chem 5.0, Q-Chem, Inc., Pleasanton, CA (2017)

 Yihan Shao,  Zhengting Gan,  E. Epifanovsky,  A. T. B. Gilbert,  M. Wormit,  
 J. Kussmann,  A. W. Lange,  A. Behn,  Jia Deng,  Xintian Feng,  D. Ghosh,  
 M. Goldey,  P. R. Horn,  L. D. Jacobson,  I. Kaliman,  T. Kus,  A. Landau,  
 Jie Liu,  E. I. Proynov,  R. M. Richard,  R. P. Steele,  E. J. Sundstrom,  
 H. L. Woodcock III,  P. M. Zimmerman,  D. Zuev,  B. Albrecht,  E. Alguire,  
 S. A. Baeppler,  D. Barton,  Z. Benda,  Y. A. Bernard,  E. J. Berquist,  
 K. B. Bravaya,  H. Burton,  D. Casanova,  Chun-Min Chang,  Yunqing Chen,  
 A. Chien,  K. D. Closser,  M. P. Coons,  S. Dasgupta,  A. L. Dempwolff,  
 M. Diedenhofen,  Hainam Do,  R. G. Edgar,  Po-Tung Fang,  S. Fatehi,  
 Qingguo Feng,  J. Fosso-Tande,  Qinghui Ge,  A. Ghysels,  G. Gidofalvi,  
 J. Gomes,  J. Gonthier,  A. Gunina,  M. W. D. Hanson-Heine,  
 P. H. P. Harbach,  A. W. Hauser,  J. E. Herr,  E. G. Hohenstein,  
 Z. C. Holden,  Kerwin Hui,  T.-C. Jagau,  Hyunjun Ji,  B. Kaduk,  
 K. Khistyaev,  Jaehoon Kim,  P. Klunzinger,  K. Koh,  D. Kosenkov,  
 L. Koulias,  T. Kowalczyk,  C. M. Krauter,  A. Kunitsa,  Ka Un Lao,  
 A. Laurent,  K. V. Lawler,  Joonho Lee,  D. Lefrancois,  S. Lehtola,  
 D. S. Levine,  Yi-Pei Li,  You-Sheng Lin,  Fenglai Liu,  E. Livshits,  
 A. Luenser,  P. Manohar,  E. Mansoor,  S. F. Manzer,  Shan-Ping Mao,  
 Yuezhi Mao,  N. Mardirossian,  A. V. Marenich,  T. Markovich,  
 L. A. Martinez-Martinez,  S. A. Maurer,  N. J. Mayhall,  S. C. McKenzie,  
 J.-M. Mewes,  A. F. Morrison,  J. W. Mullinax,  K. Nanda,  
 T. S. Nguyen-Beck,  R. Olivares-Amaya,  J. A. Parkhill,  T. M. Perrine,  
 F. Plasser,  S. Prager,  A. Prociuk,  E. Ramos,  D. R. Rehn,  F. Rob,  
 M. Schneider,  N. Sergueev,  S. M. Sharada,  S. Sharma,  D. W. Small,  
 T. Stauch,  T. Stein,  Yu-Chuan Su,  A. J. W. Thom,  A. Tkatchenko,  
 T. Tsuchimochi,  L. Vogt,  O. Vydrov,  M. A. Watson,  J. Wenzel,  
 M. de Wergifosse,  T. A. Wesolowski,  A. White,  J. Witte,  A. Yamada,  
 Jun Yang,  K. Yao,  S. Yeganeh,  S. R. Yost,  Zhi-Qiang You,  A. Zech,  
 Igor Ying Zhang,  Xing Zhang,  Yan Zhao,  Ying Zhu,  B. R. Brooks,  
 G. K. L. Chan,  C. J. Cramer,  M. S. Gordon,  W. J. Hehre,  A. Klamt,  
 M. W. Schmidt,  C. D. Sherrill,  D. G. Truhlar,  A. Aspuru-Guzik,  R. Baer,  
 A. T. Bell,  N. A. Besley,  Jeng-Da Chai,  R. A. DiStasio Jr.,  A. Dreuw,  
 B. D. Dunietz,  T. R. Furlani,  Chao-Ping Hsu,  Yousung Jung,  Jing Kong,  
 D. S. Lambrecht,  WanZhen Liang,  C. Ochsenfeld,  V. A. Rassolov,  
 L. V. Slipchenko,  J. E. Subotnik,  T. Van Voorhis,  J. M. Herbert,  
 A. I. Krylov,  P. M. W. Gill,  M. Head-Gordon

 Contributors to earlier versions of Q-Chem not listed above: 
 R. D. Adamson,  B. Austin,  J. Baker,  G. J. O. Beran,  K. Brandhorst,  
 S. T. Brown,  E. F. C. Byrd,  A. K. Chakraborty,  C.-L. Cheng,  
 Siu Hung Chien,  D. M. Chipman,  D. L. Crittenden,  H. Dachsel,  
 R. J. Doerksen,  A. D. Dutoi,  L. Fusti-Molnar,  W. A. Goddard III,  
 A. Golubeva-Zadorozhnaya,  S. R. Gwaltney,  G. Hawkins,  A. Heyden,  
 S. Hirata,  G. Kedziora,  F. J. Keil,  C. Kelley,  Jihan Kim,  R. A. King,  
 R. Z. Khaliullin,  P. P. Korambath,  W. Kurlancheek,  A. M. Lee,  M. S. Lee,  
 S. V. Levchenko,  Ching Yeh Lin,  D. Liotard,  R. C. Lochan,  I. Lotan,  
 P. E. Maslen,  N. Nair,  D. P. O'Neill,  D. Neuhauser,  E. Neuscamman,  
 C. M. Oana,  R. Olson,  B. Peters,  R. Peverati,  P. A. Pieniazek,  
 Y. M. Rhee,  J. Ritchie,  M. A. Rohrdanz,  E. Rosta,  N. J. Russ,  
 H. F. Schaefer III,  N. E. Schultz,  N. Shenvi,  A. C. Simmonett,  A. Sodt,  
 D. Stuck,  K. S. Thanthiriwatte,  V. Vanovschi,  Tao Wang,  A. Warshel,  
 C. F. Williams,  Q. Wu,  X. Xu,  W. Zhang

 Please cite Q-Chem as follows:
 Y. Shao et al., Mol. Phys. 113, 184-215 (2015)
 DOI: 10.1080/00268976.2014.952696

 Q-Chem 5.0.2 for Intel X86 EM64T Linux

 Parts of Q-Chem use Armadillo 5.200.1 (Boston Tea Smuggler).
 http://arma.sourceforge.net/

 Q-Chem begins on Wed Mar  2 18:43:45 2022  

Host: 
0

     Scratch files written to ./qcts1.d//
 Dec517 15110_ 26548  26544 5633   
Processing $rem in /home/leeping/opt/qchem/5.0.2-openmp/config/preferences.
 MEM_STATIC 2000
 MEM_TOTAL  8000
 SYMMETRY   OFF
 SYM_IGNORE TRUE 

Checking the input file for inconsistencies... 	...done.

--------------------------------------------------------------
User input:
--------------------------------------------------------------
$molecule
0 2
C        1.5583654825    0.3155499394   -0.3012951530
C        0.6527588157   -0.9035715320   -0.1027010661
C       -0.6118307096   -0.4233815181   -0.8157790109
C       -1.0328212448    0.3948041179    0.7194191375
C       -0.4810323184    1.0308415698   -0.5593056626
N        0.9264053449    1.4090220359   -0.5168975280
H        2.6412788445    0.3046859935   -0.1957210126
H        1.1144699778   -1.8751780942   -0.3099955817
H       -1.2768257090   -1.0083934510   -1.4379233267
H       -1.8285754563    0.9157714794    1.2615587364
H       -1.1380020775    1.7083064645   -1.0994485217
C       -0.1922190193   -0.6298491046    1.2281217383
H       -0.3416708599   -1.2636470826    2.1093437724
$end

$rem
method                b3lyp
basis                 6-31g(d)
unrestricted          true
symmetry              off
sym_ignore            true
incdft                false
incfock               0
scf_convergence       8
thresh                14
jobtype               freq
scf_guess             read
scf_algorithm         diis
max_scf_cycles        100
$end

--------------------------------------------------------------
 ----------------------------------------------------------------
             Standard Nuclear Orientation (Angstroms)
    I     Atom           X                Y                Z
 ----------------------------------------------------------------
    1      C       1.5583654825     0.3155499394    -0.3012951530
    2      C       0.6527588157    -0.9035715320    -0.1027010661
    3      C      -0.6118307096    -0.4233815181    -0.8157790109
    4      C      -1.0328212448     0.3948041179     0.7194191375
    5      C      -0.4810323184     1.0308415698    -0.5593056626
    6      N       0.9264053449     1.4090220359    -0.5168975280
    7      H       2.6412788445     0.3046859935    -0.1957210126
    8      H       1.1144699778    -1.8751780942    -0.3099955817
    9      H      -1.2768257090    -1.0083934510    -1.4379233267
   10      H      -1.8285754563     0.9157714794     1.2615587364
   11      H      -1.1380020775     1.7083064645    -1.0994485217
   12      C      -0.1922190193    -0.6298491046     1.2281217383
   13      H      -0.3416708599    -1.2636470826     2.1093437724
 ----------------------------------------------------------------
 Nuclear Repulsion Energy =   280.3109431935 hartrees
 There are       25 alpha and       24 beta electrons
 Requested basis set is 6-31G(d)
 There are 40 shells and 117 basis functions

 Total QAlloc Memory Limit   8000 MB
 Mega-Array Size      1956 MB
 MEM_STATIC part      2000 MB

                       Distance Matrix (Angstroms)
             C (  1)   C (  2)   C (  3)   C (  4)   C (  5)   N (  6)
   C (  2)  1.531607
   C (  3)  2.349567  1.529134
   C (  4)  2.786106  2.280974  1.789831
   C (  5)  2.176547  2.288214  1.482448  1.531062
   N (  6)  1.281226  2.365276  2.411058  2.528969  1.457978
   H (  7)  1.088102  2.328680  3.390763  3.787428  3.226193  2.064825
   H (  8)  2.235265  1.095522  2.311632  3.289890  3.324565  3.296081
   H (  9)  3.329123  2.348851  1.082368  2.585078  2.358757  3.398001
   H ( 10)  3.778114  3.365744  2.754838  1.094782  2.268184  3.316040
   H ( 11)  3.138028  3.319975  2.213915  2.246026  1.087346  2.165806
   C ( 12)  2.509470  1.600000  2.096720  1.419614  2.456869  2.907475
   H ( 13)  3.451837  2.451874  3.055385  2.271572  3.522185  3.955796
             H (  7)   H (  8)   H (  9)   H ( 10)   H ( 11)   C ( 12)
   H (  8)  2.663834
   H (  9)  4.314949  2.782415
   H ( 10)  4.740958  4.349793  3.360661
   H ( 11)  4.131566  4.305604  2.741222  2.584446
   C ( 12)  3.305963  2.371515  2.903009  2.251160  3.432064
   H ( 13)  4.083011  2.889207  3.677332  2.771189  4.445560  1.095713

 
 A cutoff of  1.0D-14 yielded    812 shell pairs
 There are      7084 function pairs
 Smallest overlap matrix eigenvalue = 1.53E-03
 Guess MOs from SCF MO coefficient file
 Reading MOs from coefficient file
 Reading MOs from coefficient file
 An unrestricted hybrid HF-DFT SCF calculation will be
 performed using Pulay DIIS extrapolation
 Exchange:     0.2000 Hartree-Fock + 0.0800 Slater + 0.7200 B88
 Correlation:  0.1900 VWN1RPA + 0.8100 LYP
 Using SG-1 standard quadrature grid
 SCF converges when DIIS error is below 1.0E-08
Using Q-Chem read-in guess as SCF_GUESS READ specified.

 -------------------------------------------------------
 OpenMP BLAS3 based DFT computing Module                
 -------------------------------------------------------
 ---------------------------------------
  Cycle       Energy         DIIS Error
 ---------------------------------------
    1    -286.8127806448      1.85E-09
    2    -286.8127806448      2.75E-09 Convergence criterion met
 ---------------------------------------
 <S^2> = 0.7706
 SCF time:  CPU 3.29 s  wall 4.26 s
 SCF   energy in the final basis set = -286.81278064
 Total energy in the final basis set = -286.81278064
 
 --------------------------------------------------------------
 
                    Orbital Energies (a.u.)
 --------------------------------------------------------------
 
 Alpha MOs
 -- Occupied --
-14.315 -10.224 -10.220 -10.218 -10.217 -10.213 -10.196  -0.961
 -0.842  -0.737  -0.681  -0.591  -0.578  -0.537  -0.513  -0.457
 -0.431  -0.408  -0.400  -0.374  -0.327  -0.300  -0.272  -0.264
 -0.130
 -- Virtual --
  0.004   0.019   0.095   0.141   0.143   0.152   0.155   0.158
  0.173   0.197   0.214   0.279   0.282   0.299   0.349   0.389
  0.491   0.506   0.509   0.539   0.561   0.579   0.589   0.603
  0.625   0.646   0.661   0.679   0.695   0.748   0.764   0.798
  0.815   0.824   0.833   0.847   0.864   0.883   0.905   0.936
  0.982   1.031   1.057   1.105   1.192   1.229   1.238   1.336
  1.410   1.451   1.472   1.508   1.588   1.643   1.669   1.722
  1.762   1.828   1.847   1.870   1.940   1.961   2.010   2.039
  2.076   2.125   2.164   2.239   2.277   2.314   2.339   2.350
  2.403   2.473   2.525   2.540   2.580   2.605   2.649   2.678
  2.685   2.793   2.829   2.905   2.966   3.946   4.176   4.254
  4.326   4.415   4.527   4.591
 
 Beta MOs
 -- Occupied --
-14.315 -10.224 -10.222 -10.218 -10.214 -10.210 -10.185  -0.957
 -0.834  -0.734  -0.669  -0.586  -0.571  -0.531  -0.509  -0.449
 -0.429  -0.402  -0.398  -0.369  -0.322  -0.284  -0.267  -0.255
 -- Virtual --
 -0.018   0.018   0.034   0.097   0.146   0.150   0.153   0.158
  0.161   0.177   0.200   0.218   0.282   0.285   0.303   0.357
  0.391   0.501   0.510   0.517   0.553   0.565   0.582   0.594
  0.606   0.632   0.665   0.674   0.681   0.700   0.753   0.769
  0.800   0.816   0.824   0.836   0.850   0.869   0.886   0.909
  0.939   0.984   1.041   1.064   1.110   1.199   1.238   1.244
  1.342   1.412   1.460   1.479   1.509   1.597   1.650   1.674
  1.733   1.769   1.832   1.853   1.875   1.946   1.977   2.022
  2.049   2.081   2.135   2.167   2.253   2.287   2.325   2.350
  2.362   2.414   2.482   2.531   2.547   2.584   2.610   2.656
  2.682   2.693   2.798   2.833   2.907   2.968   3.948   4.188
  4.255   4.341   4.419   4.531   4.595
 --------------------------------------------------------------
 
          Ground-State Mulliken Net Atomic Charges

     Atom                 Charge (a.u.)    Spin (a.u.)
  --------------------------------------------------------
      1 C                     0.091754       0.025250
      2 C                    -0.254042      -0.061811
      3 C                    -0.124920       0.434810
      4 C                    -0.151038      -0.167358
      5 C                    -0.012937       0.004792
      6 N                    -0.339925       0.030926
      7 H                     0.143860       0.000641
      8 H                     0.138501       0.007273
      9 H                     0.158500      -0.016365
     10 H                     0.154334       0.006813
     11 H                     0.149857       0.003441
     12 C                    -0.098657       0.770625
     13 H                     0.144714      -0.039037
  --------------------------------------------------------
  Sum of atomic charges =    -0.000000
  Sum of spin   charges =     1.000000

 -----------------------------------------------------------------
                    Cartesian Multipole Moments
 -----------------------------------------------------------------
    Charge (ESU x 10^10)
                 0.0000
    Dipole Moment (Debye)
         X      -1.2641      Y      -1.9917      Z       0.0054
       Tot       2.3590
    Quadrupole Moments (Debye-Ang)
        XX     -37.7152     XY      -4.4652     YY     -42.9721
        XZ       0.4994     YZ       1.0557     ZZ     -40.4003
    Octopole Moments (Debye-Ang^2)
       XXX      -6.4295    XXY      -6.2450    XYY     -10.9550
       YYY     -26.7804    XXZ       1.3103    XYZ       1.0081
       YYZ       2.7956    XZZ      -9.1124    YZZ      -8.3151
       ZZZ       6.7227
    Hexadecapole Moments (Debye-Ang^3)
      XXXX    -248.0010   XXXY     -10.7795   XXYY     -85.9835
      XYYY     -23.2626   YYYY    -245.7924   XXXZ      20.1292
      XXYZ      13.9025   XYYZ      11.4361   YYYZ      29.9309
      XXZZ     -74.1349   XYZZ      -3.4364   YYZZ     -65.5297
      XZZZ      19.6307   YZZZ      22.7608   ZZZZ    -184.5165
 -----------------------------------------------------------------
 Calculating MO derivatives via CPSCF
   1         3          39      0.269807    0.055245
   2         3          39      0.030786    0.005489
   3         3          39      0.003516    0.000697
   4         3          39      0.000433    0.000081
   5        30          12      0.000035    0.000009
   6        42           0      0.000000    0.000000    Roots Converged
 Time for AOints: 5.7 s (CPU) 6.6 s (wall)
 ------------------------------------------------------------------------------
                     AOints        : Timing summary (seconds)
 ------------------------------------------------------------------------------
     job step          cpu (% of tot)      sys (% of tot)     wall (% of tot)
 ------------------------------------------------------------------------------
  cpscf_lag         0.5544E+02 (29.0)   0.2400E-04 (36.4)   0.5561E+02 (28.6)
  iterzp            0.1298E+03 (67.9)   0.4100E-04 (62.1)   0.1323E+03 (68.0)
  make_fx           0.0000E+00 ( 0.0)   0.0000E+00 ( 0.0)   0.0000E+00 ( 0.0)
  AOints            0.5743E+01 ( 3.0)   0.1000E-05 ( 1.5)   0.6583E+01 ( 3.4)
 ------------------------------------------------------------------------------
   Grand Totals     0.1911E+03          0.6600E-04          0.1947E+03
 ------------------------------------------------------------------------------
 Calculating analytic Hessian of the SCF energy
 Polarizability Matrix (a.u.)
            1           2           3
    1 -63.4035013   4.8135251   3.3959955
    2   4.8135251 -57.9175626   4.5873623
    3   3.3959955   4.5873623 -56.8449327
 
 Direct stationary perturbation theory relativistic correction:
 
 rels  =       0.069243883149
 relv  =      -0.341044457518
 rel2e =       0.158890332668
 E_rel =      -0.112910241701
 
 Hessian of the SCF Energy
            1           2           3           4           5           6
    1   0.7934300  -0.1619110   0.0786663  -0.1114009  -0.0322907  -0.0005890
    2  -0.1619110   0.6370094  -0.0915203  -0.0278046  -0.1214829  -0.0039059
    3   0.0786663  -0.0915203   0.1714041   0.0024679   0.0062501  -0.0579896
    4  -0.1114009  -0.0278046   0.0024679   0.4304663  -0.1441454   0.0100747
    5  -0.0322907  -0.1214829   0.0062501  -0.1441454   0.6315270   0.0340422
    6  -0.0005890  -0.0039059  -0.0579896   0.0100747   0.0340422   0.2573028
    7  -0.0398481  -0.0184210  -0.0106870  -0.1247361   0.0229105  -0.0515577
    8  -0.0076969   0.0048222  -0.0085205   0.0311370  -0.0846224   0.0069979
    9  -0.0086229  -0.0018495   0.0006782  -0.0658841   0.0088877  -0.0700294
   10  -0.0084035   0.0030898   0.0047859  -0.0353370   0.0168605   0.0192271
   11   0.0091753  -0.0148230   0.0054362   0.0323909  -0.0083621  -0.0160931
   12  -0.0003947   0.0145128   0.0011826   0.0206030  -0.0239098  -0.0007459
   13  -0.0768867   0.0392246  -0.0132914  -0.0193873   0.0212638  -0.0008515
   14   0.0279007   0.0015675  -0.0014347   0.0143933  -0.0338066   0.0118918
   15  -0.0059995  -0.0118000   0.0013472   0.0029809   0.0108866  -0.0114639
   16  -0.2155646   0.2126554  -0.0494333   0.0170384   0.0031670  -0.0084474
   17   0.1721929  -0.4390237   0.0755201  -0.0055250  -0.0552980   0.0122922
   18  -0.0420406   0.0754619  -0.0668902  -0.0007683   0.0162858   0.0178649
   19  -0.3343784  -0.0068728  -0.0258739  -0.0052875   0.0037642  -0.0028553
   20  -0.0147388  -0.0548536   0.0033757  -0.0180566   0.0052488  -0.0032788
   21  -0.0283786   0.0036425  -0.0401510   0.0040832   0.0011591   0.0039526
   22   0.0143076  -0.0163914  -0.0042702  -0.0988539   0.1001913   0.0165621
   23   0.0136822  -0.0144880  -0.0025792   0.0988663  -0.2651868  -0.0449228
   24  -0.0029216   0.0039132   0.0000522   0.0186720  -0.0494028  -0.0552452
   25  -0.0015885  -0.0017878  -0.0019199  -0.0031811  -0.0134058  -0.0062608
   26   0.0000410  -0.0030438   0.0020986   0.0065311   0.0092072   0.0082401
   27  -0.0004620   0.0020931   0.0008256  -0.0001708  -0.0038239  -0.0020732
   28   0.0002815   0.0007624   0.0004133   0.0015097   0.0041348   0.0015353
   29  -0.0009361  -0.0012566   0.0001579   0.0059324  -0.0016692   0.0026166
   30   0.0017063  -0.0007485   0.0007956   0.0014379   0.0045163  -0.0004952
   31  -0.0062665  -0.0024432  -0.0007103  -0.0004074  -0.0010010  -0.0006697
   32  -0.0030083  -0.0008361   0.0004642  -0.0009861  -0.0053077  -0.0004044
   33   0.0001010  -0.0000812   0.0006724   0.0006062  -0.0032253   0.0011815
   34  -0.0143330  -0.0230735   0.0176593  -0.0492628   0.0303136   0.0167601
   35  -0.0013556   0.0066856   0.0109001   0.0068500  -0.0749874   0.0006490
   36   0.0101965   0.0100290  -0.0112960   0.0070876  -0.0079706  -0.0768636
   37   0.0006511   0.0029732   0.0021933  -0.0011603  -0.0117628   0.0070723
   38  -0.0010548  -0.0002768  -0.0001482   0.0004168   0.0047402  -0.0081249
   39  -0.0012612   0.0002530  -0.0006310  -0.0011904   0.0063046  -0.0053959
            7           8           9          10          11          12
    1  -0.0398481  -0.0076969  -0.0086229  -0.0084035   0.0091753  -0.0003947
    2  -0.0184210   0.0048222  -0.0018495   0.0030898  -0.0148230   0.0145128
    3  -0.0106870  -0.0085205   0.0006782   0.0047859   0.0054362   0.0011826
    4  -0.1247361   0.0311370  -0.0658841  -0.0353370   0.0323909   0.0206030
    5   0.0229105  -0.0846224   0.0088877   0.0168605  -0.0083621  -0.0239098
    6  -0.0515577   0.0069979  -0.0700294   0.0192271  -0.0160931  -0.0007459
    7   0.3810758   0.1218947   0.2918480  -0.0445358  -0.0164400  -0.0515822
    8   0.1218947   0.4759314   0.0829672   0.0243255  -0.0056853   0.0034180
    9   0.2918480   0.0829672   0.2264707   0.0503252   0.0077615   0.0696009
   10  -0.0445358   0.0243255   0.0503252   0.4920248  -0.2490040  -0.1741194
   11  -0.0164400  -0.0056853   0.0077615  -0.2490040   0.3708858  -0.0522764
   12  -0.0515822   0.0034180   0.0696009  -0.1741194  -0.0522764   0.2927234
   13  -0.0368223  -0.0428775  -0.0698567  -0.0746384   0.0292350   0.0633812
   14   0.0114172  -0.2335722  -0.0616589   0.0004944  -0.0440633   0.0768723
   15  -0.0285996  -0.0058402  -0.0196146   0.0312972   0.0160576  -0.1315598
   16  -0.0177512  -0.0281468   0.0005517  -0.0183529  -0.0337395   0.0290212
   17  -0.0234378  -0.0306337  -0.0057986  -0.0009625  -0.0008426  -0.0026577
   18  -0.0191016  -0.0043506   0.0066669   0.0232653   0.0042827  -0.0017628
   19  -0.0001547  -0.0005741   0.0004731   0.0003226  -0.0002826   0.0000110
   20  -0.0020574  -0.0024806   0.0003837  -0.0009717   0.0001232   0.0005689
   21   0.0013002   0.0003244  -0.0028963  -0.0018613   0.0011044   0.0016116
   22  -0.0009849   0.0162540   0.0098212  -0.0022187   0.0018273   0.0019741
   23  -0.0013023  -0.0002259   0.0002365  -0.0008927   0.0003802   0.0005216
   24  -0.0008809   0.0178820   0.0063737   0.0017268  -0.0001580  -0.0072170
   25  -0.1631621  -0.1002348  -0.1237813   0.0073926   0.0034476   0.0007955
   26  -0.0993837  -0.1386867  -0.1038959   0.0003114  -0.0032079   0.0017855
   27  -0.1342525  -0.1011243  -0.1215883  -0.0090967  -0.0057568  -0.0045644
   28   0.0022437   0.0022558   0.0063008  -0.1972432   0.1037147   0.0913159
   29   0.0007657  -0.0000606   0.0086627   0.1056506  -0.1036544  -0.0645479
   30  -0.0015890   0.0098450   0.0093259   0.0980391  -0.0636174  -0.1224370
   31   0.0016443   0.0007400   0.0037096   0.0074066  -0.0089418   0.0034936
   32   0.0173797  -0.0143711   0.0149619   0.0003657  -0.0016510  -0.0016692
   33   0.0110472  -0.0091393   0.0052604  -0.0172144   0.0182010  -0.0087660
   34   0.0470313  -0.0174324  -0.0953610  -0.1315135   0.1172923   0.0339695
   35  -0.0102186   0.0300109   0.0483745   0.1130636  -0.1853190   0.0402136
   36  -0.0013696   0.0079410  -0.1110449  -0.0249025   0.0839920  -0.0811953
   37  -0.0039996   0.0003556   0.0004764   0.0050965   0.0113248  -0.0184686
   38  -0.0031069  -0.0004262   0.0009673  -0.0123304  -0.0037806   0.0071683
   39  -0.0045751  -0.0004006   0.0007969  -0.0014722   0.0010663  -0.0068703
           13          14          15          16          17          18
    1  -0.0768867   0.0279007  -0.0059995  -0.2155646   0.1721929  -0.0420406
    2   0.0392246   0.0015675  -0.0118000   0.2126554  -0.4390237   0.0754619
    3  -0.0132914  -0.0014347   0.0013472  -0.0494333   0.0755201  -0.0668902
    4  -0.0193873   0.0143933   0.0029809   0.0170384  -0.0055250  -0.0007683
    5   0.0212638  -0.0338066   0.0108866   0.0031670  -0.0552980   0.0162858
    6  -0.0008515   0.0118918  -0.0114639  -0.0084474   0.0122922   0.0178649
    7  -0.0368223   0.0114172  -0.0285996  -0.0177512  -0.0234378  -0.0191016
    8  -0.0428775  -0.2335722  -0.0058402  -0.0281468  -0.0306337  -0.0043506
    9  -0.0698567  -0.0616589  -0.0196146   0.0005517  -0.0057986   0.0066669
   10  -0.0746384   0.0004944   0.0312972  -0.0183529  -0.0009625   0.0232653
   11   0.0292350  -0.0440633   0.0160576  -0.0337395  -0.0008426   0.0042827
   12   0.0633812   0.0768723  -0.1315598   0.0290212  -0.0026577  -0.0017628
   13   0.5160383  -0.1338132   0.1133736  -0.1472789  -0.0075848  -0.0102009
   14  -0.1338132   0.5675218  -0.1349669  -0.0333796  -0.0797318   0.0048248
   15   0.1133736  -0.1349669   0.3578024  -0.0272951   0.0134461  -0.0726196
   16  -0.1472789  -0.0333796  -0.0272951   0.4326375  -0.1580366   0.0599898
   17  -0.0075848  -0.0797318   0.0134461  -0.1580366   0.6053199  -0.0956594
   18  -0.0102009   0.0048248  -0.0726196   0.0599898  -0.0956594   0.1194298
   19  -0.0004251   0.0023586  -0.0028461  -0.0146294   0.0060523  -0.0023602
   20   0.0018873  -0.0049672   0.0028121   0.0357512   0.0000147   0.0026694
   21  -0.0032089   0.0008753   0.0137763  -0.0042474  -0.0017296  -0.0058157
   22  -0.0042287   0.0001595  -0.0017971  -0.0023999  -0.0049437   0.0023360
   23  -0.0011775  -0.0016454  -0.0003489  -0.0015090  -0.0053776   0.0013725
   24  -0.0032169   0.0024929  -0.0016460   0.0004064   0.0013874   0.0003247
   25   0.0017451   0.0078463   0.0028239  -0.0045928  -0.0002535  -0.0001746
   26  -0.0121863   0.0008298  -0.0124715  -0.0018561  -0.0012416  -0.0019061
   27   0.0060842  -0.0028858  -0.0002685   0.0050622   0.0028863   0.0010074
   28  -0.0073801   0.0041792   0.0021452   0.0006683  -0.0002921   0.0011805
   29  -0.0143541   0.0071540   0.0070565   0.0001107   0.0011680   0.0019448
   30   0.0194120  -0.0064867  -0.0134114  -0.0012127  -0.0007673  -0.0020071
   31  -0.1507611   0.1050052  -0.0857355  -0.0182055   0.0192538  -0.0129978
   32   0.1056502  -0.1647625   0.0934670  -0.0071032   0.0100701  -0.0080055
   33  -0.0887509   0.0938836  -0.1133562   0.0011214  -0.0026086   0.0003706
   34   0.0042054  -0.0072596  -0.0027159  -0.0138999   0.0060720   0.0005157
   35   0.0107401  -0.0122753   0.0189451   0.0099662  -0.0043994   0.0030739
   36  -0.0129743   0.0188673  -0.0118792  -0.0078924   0.0048456   0.0032093
   37  -0.0041802   0.0006981   0.0023680   0.0023310  -0.0025350   0.0003567
   38   0.0039924  -0.0022487   0.0027565   0.0021203  -0.0000245   0.0000057
   39   0.0001007  -0.0022750   0.0028934   0.0023755  -0.0011564   0.0002219
           19          20          21          22          23          24
    1  -0.3343784  -0.0147388  -0.0283786   0.0143076   0.0136822  -0.0029216
    2  -0.0068728  -0.0548536   0.0036425  -0.0163914  -0.0144880   0.0039132
    3  -0.0258739   0.0033757  -0.0401510  -0.0042702  -0.0025792   0.0000522
    4  -0.0052875  -0.0180566   0.0040832  -0.0988539   0.0988663   0.0186720
    5   0.0037642   0.0052488   0.0011591   0.1001913  -0.2651868  -0.0494028
    6  -0.0028553  -0.0032788   0.0039526   0.0165621  -0.0449228  -0.0552452
    7  -0.0001547  -0.0020574   0.0013002  -0.0009849  -0.0013023  -0.0008809
    8  -0.0005741  -0.0024806   0.0003244   0.0162540  -0.0002259   0.0178820
    9   0.0004731   0.0003837  -0.0028963   0.0098212   0.0002365   0.0063737
   10   0.0003226  -0.0009717  -0.0018613  -0.0022187  -0.0008927   0.0017268
   11  -0.0002826   0.0001232   0.0011044   0.0018273   0.0003802  -0.0001580
   12   0.0000110   0.0005689   0.0016116   0.0019741   0.0005216  -0.0072170
   13  -0.0004251   0.0018873  -0.0032089  -0.0042287  -0.0011775  -0.0032169
   14   0.0023586  -0.0049672   0.0008753   0.0001595  -0.0016454   0.0024929
   15  -0.0028461   0.0028121   0.0137763  -0.0017971  -0.0003489  -0.0016460
   16  -0.0146294   0.0357512  -0.0042474  -0.0023999  -0.0015090   0.0004064
   17   0.0060523   0.0000147  -0.0017296  -0.0049437  -0.0053776   0.0013874
   18  -0.0023602   0.0026694  -0.0058157   0.0023360   0.0013725   0.0003247
   19   0.3557102  -0.0037622   0.0327783  -0.0002103  -0.0008017   0.0000753
   20  -0.0037622   0.0551569  -0.0057912   0.0010383   0.0002331  -0.0001845
   21   0.0327783  -0.0057912   0.0279098   0.0000993   0.0000750  -0.0000567
   22  -0.0002103   0.0010383   0.0000993   0.0982416  -0.1061647  -0.0231987
   23  -0.0008017   0.0002331   0.0000750  -0.1061647   0.2831406   0.0465776
   24   0.0000753  -0.0001845  -0.0000567  -0.0231987   0.0465776   0.0521868
   25  -0.0003185  -0.0008558   0.0001012   0.0007090   0.0002441   0.0006502
   26   0.0002204   0.0006419  -0.0002999  -0.0006067   0.0000911  -0.0008499
   27   0.0000258  -0.0002068  -0.0006874  -0.0000967   0.0005035   0.0005742
   28   0.0001762   0.0003558  -0.0002943   0.0000748  -0.0003150   0.0009498
   29   0.0001907   0.0004816  -0.0003150   0.0010477   0.0003692  -0.0006562
   30   0.0001265   0.0002789   0.0010165  -0.0003814   0.0001320   0.0009527
   31  -0.0007832   0.0015340   0.0007070   0.0002827   0.0002049  -0.0000904
   32  -0.0001919   0.0007332   0.0005051   0.0007187   0.0000849   0.0009772
   33   0.0004048  -0.0000108   0.0002265   0.0005837  -0.0002175   0.0007557
   34   0.0001963   0.0001412  -0.0009562  -0.0048868  -0.0014498   0.0089506
   35  -0.0001142  -0.0005465   0.0004812   0.0073529   0.0024158  -0.0223400
   36  -0.0000851  -0.0008492   0.0012514  -0.0014541  -0.0013362   0.0027520
   37  -0.0002183  -0.0002652  -0.0001225   0.0001676   0.0006154  -0.0011225
   38   0.0000134   0.0002145  -0.0000314  -0.0004832   0.0002089   0.0003609
   39   0.0001259   0.0002326  -0.0001376  -0.0001782  -0.0000142   0.0001930
           25          26          27          28          29          30
    1  -0.0015885   0.0000410  -0.0004620   0.0002815  -0.0009361   0.0017063
    2  -0.0017878  -0.0030438   0.0020931   0.0007624  -0.0012566  -0.0007485
    3  -0.0019199   0.0020986   0.0008256   0.0004133   0.0001579   0.0007956
    4  -0.0031811   0.0065311  -0.0001708   0.0015097   0.0059324   0.0014379
    5  -0.0134058   0.0092072  -0.0038239   0.0041348  -0.0016692   0.0045163
    6  -0.0062608   0.0082401  -0.0020732   0.0015353   0.0026166  -0.0004952
    7  -0.1631621  -0.0993837  -0.1342525   0.0022437   0.0007657  -0.0015890
    8  -0.1002348  -0.1386867  -0.1011243   0.0022558  -0.0000606   0.0098450
    9  -0.1237813  -0.1038959  -0.1215883   0.0063008   0.0086627   0.0093259
   10   0.0073926   0.0003114  -0.0090967  -0.1972432   0.1056506   0.0980391
   11   0.0034476  -0.0032079  -0.0057568   0.1037147  -0.1036544  -0.0636174
   12   0.0007955   0.0017855  -0.0045644   0.0913159  -0.0645479  -0.1224370
   13   0.0017451  -0.0121863   0.0060842  -0.0073801  -0.0143541   0.0194120
   14   0.0078463   0.0008298  -0.0028858   0.0041792   0.0071540  -0.0064867
   15   0.0028239  -0.0124715  -0.0002685   0.0021452   0.0070565  -0.0134114
   16  -0.0045928  -0.0018561   0.0050622   0.0006683   0.0001107  -0.0012127
   17  -0.0002535  -0.0012416   0.0028863  -0.0002921   0.0011680  -0.0007673
   18  -0.0001746  -0.0019061   0.0010074   0.0011805   0.0019448  -0.0020071
   19  -0.0003185   0.0002204   0.0000258   0.0001762   0.0001907   0.0001265
   20  -0.0008558   0.0006419  -0.0002068   0.0003558   0.0004816   0.0002789
   21   0.0001012  -0.0002999  -0.0006874  -0.0002943  -0.0003150   0.0010165
   22   0.0007090  -0.0006067  -0.0000967   0.0000748   0.0010477  -0.0003814
   23   0.0002441   0.0000911   0.0005035  -0.0003150   0.0003692   0.0001320
   24   0.0006502  -0.0008499   0.0005742   0.0009498  -0.0006562   0.0009527
   25   0.1632722   0.1062004   0.1295270  -0.0003586  -0.0002819  -0.0012400
   26   0.1062004   0.1336411   0.1063908   0.0002716   0.0006298  -0.0002652
   27   0.1295270   0.1063908   0.1265484   0.0011866   0.0004011   0.0013597
   28  -0.0003586   0.0002716   0.0011866   0.2033469  -0.1112459  -0.1121095
   29  -0.0002819   0.0006298   0.0004011  -0.1112459   0.1033845   0.0588508
   30  -0.0012400  -0.0002652   0.0013597  -0.1121095   0.0588508   0.1117358
   31   0.0001864   0.0001585   0.0000031   0.0007474   0.0004211  -0.0005526
   32  -0.0001817   0.0010134  -0.0009295  -0.0003195  -0.0000049   0.0003248
   33   0.0000581   0.0008910  -0.0000702  -0.0005375  -0.0014378   0.0014687
   34  -0.0008738   0.0004294   0.0030619  -0.0031551   0.0143269  -0.0029933
   35  -0.0005959  -0.0001263   0.0033039  -0.0029793  -0.0063057  -0.0009627
   36  -0.0005478  -0.0001334   0.0002825   0.0087887  -0.0123151   0.0124912
   37   0.0007702  -0.0001311  -0.0008721  -0.0009113  -0.0016278  -0.0006433
   38  -0.0001411   0.0002521  -0.0008516  -0.0005224  -0.0002356  -0.0010998
   39  -0.0000315   0.0004159  -0.0013459  -0.0008748  -0.0004186  -0.0007955
           31          32          33          34          35          36
    1  -0.0062665  -0.0030083   0.0001010  -0.0143330  -0.0013556   0.0101965
    2  -0.0024432  -0.0008361  -0.0000812  -0.0230735   0.0066856   0.0100290
    3  -0.0007103   0.0004642   0.0006724   0.0176593   0.0109001  -0.0112960
    4  -0.0004074  -0.0009861   0.0006062  -0.0492628   0.0068500   0.0070876
    5  -0.0010010  -0.0053077  -0.0032253   0.0303136  -0.0749874  -0.0079706
    6  -0.0006697  -0.0004044   0.0011815   0.0167601   0.0006490  -0.0768636
    7   0.0016443   0.0173797   0.0110472   0.0470313  -0.0102186  -0.0013696
    8   0.0007400  -0.0143711  -0.0091393  -0.0174324   0.0300109   0.0079410
    9   0.0037096   0.0149619   0.0052604  -0.0953610   0.0483745  -0.1110449
   10   0.0074066   0.0003657  -0.0172144  -0.1315135   0.1130636  -0.0249025
   11  -0.0089418  -0.0016510   0.0182010   0.1172923  -0.1853190   0.0839920
   12   0.0034936  -0.0016692  -0.0087660   0.0339695   0.0402136  -0.0811953
   13  -0.1507611   0.1056502  -0.0887509   0.0042054   0.0107401  -0.0129743
   14   0.1050052  -0.1647625   0.0938836  -0.0072596  -0.0122753   0.0188673
   15  -0.0857355   0.0934670  -0.1133562  -0.0027159   0.0189451  -0.0118792
   16  -0.0182055  -0.0071032   0.0011214  -0.0138999   0.0099662  -0.0078924
   17   0.0192538   0.0100701  -0.0026086   0.0060720  -0.0043994   0.0048456
   18  -0.0129978  -0.0080055   0.0003706   0.0005157   0.0030739   0.0032093
   19  -0.0007832  -0.0001919   0.0004048   0.0001963  -0.0001142  -0.0000851
   20   0.0015340   0.0007332  -0.0000108   0.0001412  -0.0005465  -0.0008492
   21   0.0007070   0.0005051   0.0002265  -0.0009562   0.0004812   0.0012514
   22   0.0002827   0.0007187   0.0005837  -0.0048868   0.0073529  -0.0014541
   23   0.0002049   0.0000849  -0.0002175  -0.0014498   0.0024158  -0.0013362
   24  -0.0000904   0.0009772   0.0007557   0.0089506  -0.0223400   0.0027520
   25   0.0001864  -0.0001817   0.0000581  -0.0008738  -0.0005959  -0.0005478
   26   0.0001585   0.0010134   0.0008910   0.0004294  -0.0001263  -0.0001334
   27   0.0000031  -0.0009295  -0.0000702   0.0030619   0.0033039   0.0002825
   28   0.0007474  -0.0003195  -0.0005375  -0.0031551  -0.0029793   0.0087887
   29   0.0004211  -0.0000049  -0.0014378   0.0143269  -0.0063057  -0.0123151
   30  -0.0005526   0.0003248   0.0014687  -0.0029933  -0.0009627   0.0124912
   31   0.1661586  -0.1130765   0.0904888  -0.0006326  -0.0012771   0.0023947
   32  -0.1130765   0.1741654  -0.0992612   0.0006874   0.0007480  -0.0001848
   33   0.0904888  -0.0992612   0.1166430   0.0028574   0.0017635  -0.0048505
   34  -0.0006326   0.0006874   0.0028574   0.2008992  -0.1255229  -0.0328474
   35  -0.0012771   0.0007480   0.0017635  -0.1255229   0.3762021  -0.2550048
   36   0.0023947  -0.0001848  -0.0048505  -0.0328474  -0.2550048   0.4911365
   37   0.0006303   0.0000656  -0.0007659  -0.0337747  -0.0059091   0.0536055
   38  -0.0005779   0.0001184   0.0012428   0.0054755  -0.1321029   0.1521191
   39  -0.0000406  -0.0002456   0.0004641   0.0510993   0.1506026  -0.2139933
           37          38          39
    1   0.0006511  -0.0010548  -0.0012612
    2   0.0029732  -0.0002768   0.0002530
    3   0.0021933  -0.0001482  -0.0006310
    4  -0.0011603   0.0004168  -0.0011904
    5  -0.0117628   0.0047402   0.0063046
    6   0.0070723  -0.0081249  -0.0053959
    7  -0.0039996  -0.0031069  -0.0045751
    8   0.0003556  -0.0004262  -0.0004006
    9   0.0004764   0.0009673   0.0007969
   10   0.0050965  -0.0123304  -0.0014722
   11   0.0113248  -0.0037806   0.0010663
   12  -0.0184686   0.0071683  -0.0068703
   13  -0.0041802   0.0039924   0.0001007
   14   0.0006981  -0.0022487  -0.0022750
   15   0.0023680   0.0027565   0.0028934
   16   0.0023310   0.0021203   0.0023755
   17  -0.0025350  -0.0000245  -0.0011564
   18   0.0003567   0.0000057   0.0002219
   19  -0.0002183   0.0000134   0.0001259
   20  -0.0002652   0.0002145   0.0002326
   21  -0.0001225  -0.0000314  -0.0001376
   22   0.0001676  -0.0004832  -0.0001782
   23   0.0006154   0.0002089  -0.0000142
   24  -0.0011225   0.0003609   0.0001930
   25   0.0007702  -0.0001411  -0.0000315
   26  -0.0001311   0.0002521   0.0004159
   27  -0.0008721  -0.0008516  -0.0013459
   28  -0.0009113  -0.0005224  -0.0008748
   29  -0.0016278  -0.0002356  -0.0004186
   30  -0.0006433  -0.0010998  -0.0007955
   31   0.0006303  -0.0005779  -0.0000406
   32   0.0000656   0.0001184  -0.0002456
   33  -0.0007659   0.0012428   0.0004641
   34  -0.0337747   0.0054755   0.0510993
   35  -0.0059091  -0.1321029   0.1506026
   36   0.0536055   0.1521191  -0.2139933
   37   0.0345975   0.0061983  -0.0440773
   38   0.0061983   0.1335612  -0.1543645
   39  -0.0440773  -0.1543645   0.2246000
 Gradient time:  CPU 255.72 s  wall 260.61 s
 **********************************************************************
 **                                                                  **
 **                       VIBRATIONAL ANALYSIS                       **
 **                       --------------------                       **
 **                                                                  **
 **        VIBRATIONAL FREQUENCIES (CM**-1) AND NORMAL MODES         **
 **     FORCE CONSTANTS (mDYN/ANGSTROM) AND REDUCED MASSES (AMU)     **
 **                  INFRARED INTENSITIES (KM/MOL)                   **
 **                                                                  **
 **********************************************************************
 

 Mode:                 1                      2                      3
 Frequency:      -658.36                 129.96                 420.51
 Force Cnst:      1.2886                 0.0125                 0.3876
 Red. Mass:       5.0459                 1.2553                 3.7203
 IR Active:          YES                    YES                    YES
 IR Intens:       40.300                 21.312                  1.375
 Raman Active:       YES                    YES                    YES
               X      Y      Z        X      Y      Z        X      Y      Z
 C          0.016 -0.002  0.008    0.000  0.001  0.014   -0.082 -0.030  0.193
 C          0.017  0.005  0.007    0.003 -0.003  0.001   -0.048 -0.063 -0.135
 C         -0.220  0.097  0.351   -0.008  0.040  0.041   -0.099 -0.061 -0.047
 C         -0.101 -0.172 -0.287   -0.004 -0.043 -0.031    0.119  0.080 -0.040
 C          0.093  0.099 -0.061    0.025  0.037 -0.027   -0.036 -0.036 -0.129
 N          0.041  0.007 -0.016    0.003  0.008 -0.007   -0.077 -0.033  0.165
 H          0.008 -0.001  0.084   -0.004  0.008  0.061   -0.129  0.017  0.642
 H         -0.036  0.008 -0.121   -0.005  0.002 -0.049   -0.038 -0.057 -0.132
 H         -0.016  0.199  0.000   -0.100 -0.006  0.185   -0.263 -0.106  0.171
 H         -0.274 -0.287 -0.448   -0.007 -0.031 -0.046    0.226  0.125  0.076
 H          0.052  0.070 -0.040    0.012  0.035 -0.015   -0.006 -0.022 -0.147
 C          0.186 -0.007  0.064   -0.060 -0.088 -0.045    0.232  0.138 -0.081
 H         -0.203 -0.323 -0.238    0.582  0.553  0.527    0.270  0.164 -0.058
 TransDip  -0.048 -0.032 -0.195    0.045  0.043  0.134   -0.029 -0.024  0.001

 Mode:                 4                      5                      6
 Frequency:       446.44                 524.38                 639.99
 Force Cnst:      0.2815                 0.2514                 0.8232
 Red. Mass:       2.3975                 1.5518                 3.4110
 IR Active:          YES                    YES                    YES
 IR Intens:        5.826                 11.511                 12.169
 Raman Active:       YES                    YES                    YES
               X      Y      Z        X      Y      Z        X      Y      Z
 C          0.024 -0.068 -0.135    0.031 -0.018 -0.113    0.034  0.077 -0.112
 C         -0.012 -0.005 -0.013    0.050 -0.009 -0.019    0.050 -0.035 -0.073
 C          0.009 -0.025 -0.045    0.053 -0.026  0.017   -0.099 -0.122  0.204
 C         -0.135 -0.050 -0.039   -0.013  0.042 -0.052    0.083  0.147  0.005
 C         -0.014 -0.026  0.059   -0.004  0.013  0.007    0.068 -0.100 -0.109
 N          0.004 -0.022  0.171   -0.023  0.002  0.132   -0.033  0.091  0.141
 H          0.047 -0.123 -0.355    0.044  0.002 -0.231    0.031  0.136 -0.058
 H         -0.072 -0.059  0.116    0.021 -0.028  0.008    0.054 -0.020 -0.128
 H          0.323  0.150 -0.557   -0.400 -0.276  0.756    0.308  0.113 -0.473
 H         -0.105 -0.046  0.004   -0.148 -0.062 -0.160    0.306  0.410  0.100
 H          0.066 -0.008 -0.016    0.049  0.016 -0.055    0.053 -0.219 -0.244
 C          0.075  0.178  0.025   -0.040  0.027 -0.015   -0.146 -0.111 -0.018
 H          0.313  0.354  0.191   -0.160 -0.028 -0.075   -0.159  0.012  0.069
 TransDip   0.068  0.014 -0.034   -0.092 -0.023 -0.054    0.053  0.059 -0.079

 Mode:                 7                      8                      9
 Frequency:       745.02                 761.04                 790.59
 Force Cnst:      1.7993                 1.5485                 1.8671
 Red. Mass:       5.5019                 4.5377                 5.0700
 IR Active:          YES                    YES                    YES
 IR Intens:        0.936                  2.525                  5.946
 Raman Active:       YES                    YES                    YES
               X      Y      Z        X      Y      Z        X      Y      Z
 C         -0.214 -0.024 -0.101   -0.113 -0.030 -0.068    0.039  0.114 -0.030
 C         -0.131 -0.125  0.371   -0.038 -0.037 -0.163   -0.209  0.099  0.071
 C          0.098  0.078 -0.057    0.139  0.089 -0.083   -0.213 -0.166 -0.165
 C          0.237  0.004 -0.123    0.099 -0.127 -0.006   -0.002 -0.154 -0.006
 C          0.017  0.107 -0.093    0.069  0.014 -0.136    0.087 -0.132 -0.045
 N         -0.110  0.087  0.096   -0.056  0.049  0.032    0.236  0.244  0.038
 H         -0.182 -0.084 -0.470   -0.149 -0.005  0.240    0.049 -0.246 -0.098
 H         -0.029 -0.086  0.419   -0.095  0.005 -0.486   -0.036  0.139  0.276
 H          0.140  0.143 -0.168    0.050  0.089  0.021   -0.423 -0.340  0.208
 H          0.221 -0.101 -0.058    0.062  0.094 -0.274    0.210  0.152  0.025
 H         -0.068  0.055 -0.060   -0.074  0.032  0.064    0.060  0.026  0.200
 C          0.120 -0.130 -0.076   -0.048  0.015  0.423    0.022 -0.015  0.078
 H         -0.063 -0.054 -0.054   -0.289  0.018  0.402    0.145 -0.104  0.034
 TransDip  -0.017 -0.012 -0.023   -0.032 -0.027 -0.028    0.011 -0.057  0.052

 Mode:                10                     11                     12
 Frequency:       852.93                 862.00                 888.00
 Force Cnst:      1.0419                 1.8249                 0.7744
 Red. Mass:       2.4308                 4.1684                 1.6668
 IR Active:          YES                    YES                    YES
 IR Intens:       22.139                  2.546                  8.927
 Raman Active:       YES                    YES                    YES
               X      Y      Z        X      Y      Z        X      Y      Z
 C         -0.091 -0.040 -0.051   -0.165  0.045  0.113    0.102  0.063 -0.123
 C         -0.100 -0.028 -0.027    0.010 -0.216 -0.116   -0.055 -0.130  0.039
 C          0.160 -0.002  0.109    0.045 -0.152  0.041    0.008  0.008 -0.021
 C         -0.108  0.029  0.100    0.065  0.077 -0.158   -0.000 -0.001 -0.009
 C         -0.041  0.008 -0.057    0.010  0.009  0.271    0.016 -0.019  0.074
 N          0.123  0.122 -0.009    0.079  0.152 -0.088   -0.022  0.024 -0.018
 H         -0.130 -0.243  0.320   -0.124 -0.202 -0.336    0.027  0.406  0.724
 H         -0.217 -0.051 -0.167    0.260 -0.088 -0.193   -0.217 -0.232  0.163
 H          0.267 -0.148  0.146   -0.024  0.039 -0.068   -0.162  0.219 -0.028
 H         -0.235 -0.217  0.148   -0.113 -0.140 -0.220   -0.086 -0.065 -0.083
 H         -0.025 -0.293 -0.467   -0.142 -0.126  0.297   -0.050 -0.051  0.117
 C          0.049 -0.016 -0.051   -0.023  0.072 -0.018    0.002  0.021 -0.015
 H          0.192 -0.154 -0.128   -0.256  0.369  0.156   -0.069  0.075  0.012
 TransDip  -0.073 -0.126 -0.038   -0.005 -0.043  0.027   -0.028  0.036  0.084

 Mode:                13                     14                     15
 Frequency:       920.94                 927.06                 957.08
 Force Cnst:      0.7279                 0.8937                 0.8533
 Red. Mass:       1.4568                 1.7649                 1.5811
 IR Active:          YES                    YES                    YES
 IR Intens:        9.795                 14.597                  2.990
 Raman Active:       YES                    YES                    YES
               X      Y      Z        X      Y      Z        X      Y      Z
 C          0.014  0.036  0.030   -0.124 -0.098 -0.109   -0.072 -0.007  0.002
 C         -0.032 -0.065  0.002    0.090  0.093  0.011    0.107 -0.091 -0.007
 C          0.074  0.020  0.026   -0.006 -0.048  0.015   -0.032  0.040 -0.036
 C         -0.109 -0.074 -0.057   -0.008 -0.030 -0.040   -0.084 -0.022  0.074
 C          0.039  0.022  0.028    0.031  0.053  0.057    0.077 -0.008 -0.038
 N         -0.037  0.002 -0.023    0.011  0.002  0.001   -0.002  0.041 -0.011
 H          0.032  0.099 -0.155   -0.204 -0.162  0.624   -0.069 -0.042 -0.051
 H         -0.171 -0.105 -0.121    0.326  0.164  0.206    0.438 -0.007  0.307
 H          0.030 -0.094  0.186    0.145 -0.212 -0.002   -0.467  0.506 -0.001
 H          0.568  0.616  0.332    0.236  0.229  0.085   -0.007  0.026  0.150
 H          0.021 -0.020 -0.005   -0.034  0.167  0.286    0.148 -0.151 -0.316
 C          0.015  0.023 -0.016   -0.037  0.015 -0.031   -0.002  0.017  0.014
 H          0.027 -0.068 -0.080    0.024 -0.036 -0.062    0.057 -0.077 -0.041
 TransDip   0.097  0.007 -0.026   -0.007 -0.003  0.122   -0.008 -0.055 -0.006

 Mode:                16                     17                     18
 Frequency:       983.49                1047.76                1081.05
 Force Cnst:      1.3994                 1.2984                 1.0917
 Red. Mass:       2.4556                 2.0075                 1.5855
 IR Active:          YES                    YES                    YES
 IR Intens:        0.670                  5.865                  1.601
 Raman Active:       YES                    YES                    YES
               X      Y      Z        X      Y      Z        X      Y      Z
 C         -0.073  0.013  0.010   -0.026  0.040  0.012    0.011 -0.008  0.007
 C         -0.101  0.122 -0.030   -0.027 -0.082 -0.040    0.059 -0.097  0.011
 C          0.075  0.010  0.025   -0.035 -0.104 -0.011   -0.014  0.007 -0.032
 C          0.003  0.050  0.001   -0.035 -0.000  0.098   -0.068  0.101  0.002
 C          0.209 -0.150  0.093    0.167  0.142 -0.042   -0.093  0.023 -0.042
 N         -0.108 -0.034 -0.018   -0.070  0.000 -0.020    0.043  0.025  0.008
 H         -0.076 -0.030 -0.052   -0.015  0.259 -0.104    0.020  0.039 -0.041
 H         -0.144  0.093  0.070   -0.025 -0.121  0.139    0.072 -0.109  0.052
 H         -0.081  0.200  0.039    0.270 -0.459 -0.033    0.065 -0.082 -0.045
 H         -0.231  0.235 -0.548   -0.218 -0.244  0.057   -0.158  0.427 -0.430
 H          0.130 -0.227  0.114    0.421  0.457  0.049   -0.194  0.203  0.304
 C          0.010 -0.005 -0.033   -0.006  0.019  0.002    0.032 -0.065  0.063
 H          0.441 -0.262 -0.158    0.085 -0.069 -0.043    0.473 -0.346 -0.059
 TransDip   0.013 -0.023 -0.003    0.048  0.016  0.058    0.007  0.016 -0.036

 Mode:                19                     20                     21
 Frequency:      1131.58                1152.76                1230.45
 Force Cnst:      1.2190                 1.3848                 1.3264
 Red. Mass:       1.6157                 1.7687                 1.4870
 IR Active:          YES                    YES                    YES
 IR Intens:       12.560                  4.814                  1.579
 Raman Active:       YES                    YES                    YES
               X      Y      Z        X      Y      Z        X      Y      Z
 C         -0.002 -0.017  0.038    0.037  0.003  0.017   -0.019 -0.006  0.001
 C          0.023 -0.009 -0.082   -0.056  0.050 -0.113    0.025 -0.027 -0.033
 C          0.042  0.041  0.078    0.020 -0.059  0.002   -0.073  0.137 -0.035
 C          0.044 -0.074  0.044    0.061 -0.006 -0.068   -0.011 -0.021  0.061
 C          0.003 -0.039 -0.102   -0.071  0.128  0.075    0.018 -0.050  0.042
 N          0.004  0.041  0.004   -0.002 -0.028 -0.004    0.004  0.016 -0.001
 H          0.010 -0.096 -0.138    0.040  0.027 -0.007   -0.018  0.040 -0.014
 H         -0.265 -0.273  0.587   -0.040 -0.105  0.724    0.056 -0.081  0.288
 H          0.040  0.089  0.049   -0.007  0.015 -0.042    0.325 -0.457  0.089
 H          0.025 -0.098  0.021    0.116  0.047 -0.032   -0.072  0.282 -0.326
 H         -0.369  0.070  0.502    0.027 -0.215 -0.502    0.013 -0.248 -0.202
 C         -0.065  0.076 -0.058   -0.017 -0.048  0.078    0.063 -0.037 -0.031
 H         -0.021  0.018 -0.106    0.196 -0.189  0.018   -0.387  0.280  0.132
 TransDip  -0.067 -0.072  0.057    0.065  0.003  0.026   -0.006 -0.030 -0.026

 Mode:                22                     23                     24
 Frequency:      1265.26                1284.89                1330.89
 Force Cnst:      1.5915                 1.2345                 1.8762
 Red. Mass:       1.6873                 1.2691                 1.7978
 IR Active:          YES                    YES                    YES
 IR Intens:       14.069                  1.048                 13.348
 Raman Active:       YES                    YES                    YES
               X      Y      Z        X      Y      Z        X      Y      Z
 C          0.073  0.056 -0.012    0.012 -0.022 -0.004   -0.024 -0.061  0.011
 C         -0.142 -0.012 -0.046   -0.096 -0.039 -0.012    0.001  0.052  0.026
 C          0.088 -0.037  0.056   -0.010  0.056  0.008    0.014 -0.131  0.004
 C         -0.047  0.005  0.038    0.011  0.008 -0.019    0.003 -0.084  0.106
 C         -0.033  0.015 -0.049    0.038  0.001 -0.014    0.017  0.141 -0.025
 N         -0.031 -0.036  0.002    0.033 -0.037  0.019    0.045 -0.012  0.015
 H          0.069 -0.363  0.055    0.030  0.453 -0.085   -0.011  0.447 -0.106
 H          0.561  0.269  0.181    0.549  0.259 -0.015   -0.120  0.052 -0.200
 H         -0.042  0.192  0.003    0.144 -0.169  0.058   -0.210  0.216 -0.099
 H         -0.051  0.182 -0.125    0.022 -0.162  0.156   -0.077  0.339 -0.429
 H          0.059  0.292  0.192   -0.370 -0.301  0.102   -0.359 -0.221 -0.051
 C          0.073 -0.051 -0.025   -0.040  0.042  0.007    0.020  0.012 -0.064
 H         -0.319  0.220  0.116    0.183 -0.115 -0.077   -0.214  0.168  0.001
 TransDip   0.032  0.115 -0.009    0.030  0.008  0.010   -0.092  0.072 -0.005

 Mode:                25                     26                     27
 Frequency:      1333.85                1384.97                1653.93
 Force Cnst:      1.6470                 2.4178                12.2208
 Red. Mass:       1.5712                 2.1394                 7.5825
 IR Active:          YES                    YES                    YES
 IR Intens:        5.171                  1.476                 35.442
 Raman Active:       YES                    YES                    YES
               X      Y      Z        X      Y      Z        X      Y      Z
 C         -0.104 -0.026  0.000   -0.001  0.022 -0.007   -0.246  0.515 -0.100
 C         -0.016  0.051 -0.038   -0.028 -0.062  0.020    0.050 -0.039  0.006
 C          0.046  0.007  0.028    0.001  0.043  0.058   -0.009  0.008 -0.007
 C         -0.028  0.034 -0.033    0.130 -0.147  0.054    0.003 -0.026  0.026
 C         -0.059 -0.098 -0.007   -0.118 -0.039  0.025    0.025  0.046 -0.030
 N          0.096 -0.022  0.005    0.029  0.005 -0.003    0.228 -0.392  0.085
 H         -0.094  0.736 -0.115    0.003  0.041  0.008   -0.312 -0.366  0.045
 H         -0.057 -0.005  0.197    0.238  0.092 -0.160   -0.217 -0.171  0.023
 H         -0.055  0.143  0.032    0.087  0.010  0.010    0.007 -0.037  0.019
 H          0.034 -0.012  0.116    0.063  0.190 -0.428   -0.016 -0.000 -0.021
 H          0.362  0.361  0.079    0.511  0.312 -0.295   -0.288 -0.201  0.042
 C          0.045 -0.053  0.010   -0.113  0.133 -0.055   -0.024  0.018 -0.002
 H         -0.138  0.096  0.097    0.247 -0.128 -0.224    0.045 -0.005 -0.013
 TransDip  -0.052  0.048 -0.018   -0.032  0.003  0.022    0.038  0.169 -0.081

 Mode:                28                     29                     30
 Frequency:      3108.85                3121.92                3139.44
 Force Cnst:      6.2102                 6.2437                 6.3840
 Red. Mass:       1.0906                 1.0873                 1.0993
 IR Active:          YES                    YES                    YES
 IR Intens:       16.198                 10.201                  1.622
 Raman Active:       YES                    YES                    YES
               X      Y      Z        X      Y      Z        X      Y      Z
 C         -0.005  0.001 -0.001    0.001  0.000  0.000    0.002 -0.000  0.000
 C          0.036 -0.076 -0.014   -0.005  0.011  0.002   -0.003  0.004  0.002
 C          0.001  0.003  0.001    0.001 -0.001  0.000   -0.002 -0.000  0.001
 C         -0.007  0.004  0.004   -0.055  0.034  0.034    0.035 -0.024 -0.019
 C         -0.000 -0.000  0.000    0.003 -0.003  0.002   -0.002  0.001 -0.001
 N          0.000 -0.000 -0.000    0.000 -0.000  0.000    0.000 -0.000  0.000
 H          0.063 -0.005  0.007   -0.012  0.001 -0.002   -0.022  0.001 -0.002
 H         -0.402  0.878  0.175    0.060 -0.129 -0.027    0.023 -0.046 -0.013
 H         -0.021 -0.022 -0.019    0.001  0.001  0.001    0.015  0.014  0.013
 H          0.072 -0.045 -0.047    0.636 -0.396 -0.411   -0.371  0.231  0.234
 H         -0.003  0.005 -0.003   -0.036  0.035 -0.026    0.027 -0.028  0.020
 C          0.001  0.006 -0.008    0.006  0.023 -0.033    0.006  0.047 -0.062
 H         -0.013 -0.071  0.096   -0.064 -0.285  0.391   -0.109 -0.507  0.686
 TransDip   0.046 -0.118 -0.024   -0.090  0.046  0.019    0.022  0.008 -0.033

 Mode:                31                     32                     33
 Frequency:      3186.71                3193.03                3251.62
 Force Cnst:      6.5238                 6.5706                 6.8226
 Red. Mass:       1.0903                 1.0938                 1.0952
 IR Active:          YES                    YES                    YES
 IR Intens:       25.700                 19.484                  1.546
 Raman Active:       YES                    YES                    YES
               X      Y      Z        X      Y      Z        X      Y      Z
 C          0.011  0.000  0.001   -0.087  0.003 -0.008    0.002 -0.000  0.000
 C         -0.000 -0.001 -0.000   -0.001  0.006  0.000    0.004 -0.004  0.001
 C         -0.005 -0.003 -0.003   -0.001 -0.002 -0.001   -0.057 -0.047 -0.049
 C          0.005 -0.003 -0.004    0.001 -0.001 -0.001   -0.002  0.000  0.001
 C          0.051 -0.055  0.041    0.009 -0.008  0.006   -0.003  0.009 -0.004
 N         -0.000  0.000 -0.000    0.001 -0.002  0.000    0.000  0.001  0.000
 H         -0.140  0.001 -0.013    0.979 -0.009  0.097   -0.020 -0.000 -0.003
 H         -0.005  0.011  0.002    0.020 -0.059 -0.010   -0.017  0.032  0.004
 H          0.052  0.042  0.048    0.022  0.020  0.021    0.621  0.531  0.561
 H         -0.050  0.029  0.032   -0.012  0.008  0.008    0.014 -0.008 -0.011
 H         -0.589  0.621 -0.478   -0.083  0.087 -0.065    0.048 -0.055  0.039
 C         -0.000  0.001 -0.001    0.000  0.001 -0.001    0.001 -0.001  0.002
 H         -0.001 -0.002  0.003   -0.003 -0.010  0.014    0.003  0.009 -0.014
 TransDip   0.117 -0.099  0.054   -0.141 -0.010  0.009   -0.031 -0.023 -0.010

 STANDARD THERMODYNAMIC QUANTITIES AT   298.15 K  AND     1.00 ATM

   This Molecule has  1 Imaginary Frequencies
   Zero point vibrational energy:       62.541 kcal/mol

   Atom    1 Element C  Has Mass   12.00000
   Atom    2 Element C  Has Mass   12.00000
   Atom    3 Element C  Has Mass   12.00000
   Atom    4 Element C  Has Mass   12.00000
   Atom    5 Element C  Has Mass   12.00000
   Atom    6 Element N  Has Mass   14.00307
   Atom    7 Element H  Has Mass    1.00783
   Atom    8 Element H  Has Mass    1.00783
   Atom    9 Element H  Has Mass    1.00783
   Atom   10 Element H  Has Mass    1.00783
   Atom   11 Element H  Has Mass    1.00783
   Atom   12 Element C  Has Mass   12.00000
   Atom   13 Element H  Has Mass    1.00783
   Molecular Mass:    92.050050 amu
   Principal axes and moments of inertia in amu*Bohr^2:
                             1           2           3
    Eigenvalues --      369.51031   463.38738   582.17571
          X               0.72411    -0.64630     0.24077
          Y               0.49752     0.73126     0.46663
          Z              -0.47765    -0.21810     0.85105
   Rotational Symmetry Number is   1
   The Molecule is an Asymmetric Top
   Translational Enthalpy:        0.889 kcal/mol
   Rotational Enthalpy:           0.889 kcal/mol
   Vibrational Enthalpy:         64.037 kcal/mol
   gas constant (RT):             0.592 kcal/mol
   Translational Entropy:        39.471  cal/mol.K
   Rotational Entropy:           26.102  cal/mol.K
   Vibrational Entropy:           7.704  cal/mol.K

   Total Enthalpy:               66.407 kcal/mol
   Total Entropy:                73.278  cal/mol.K
Archival summary:
1\1\c8-66\FREQ\ProcedureUnspecified\6-31G*\166(2)\hpark21\WedMar218:48:132022WedMar218:48:132022\0\\#,FREQ,ProcedureUnspecified,6-31G*,\\0,2\N\C,1,1.28123\H,2,1.0881,1,121.047\C,1,1.45798,2,105.05,3,-178.426,0\H,4,1.08735,1,115.855,2,-157.028,0\C,4,1.48245,1,110.161,2,-19.5873,0\H,6,1.08237,4,133.146,1,-138.67,0\C,6,1.52913,4,98.8822,1,32.3349,0\H,8,1.09552,6,122.603,4,-160.047,0\C,4,1.53106,1,115.554,2,60.4757,0\H,10,1.09478,4,118.546,1,116.83,0\C,10,1.41961,4,112.689,1,-47.6062,0\H,12,1.09571,10,128.677,4,-178.756,0\\\@

 Total job time:  267.89s(wall), 259.21s(cpu) 
 Wed Mar  2 18:48:13 2022

        *************************************************************
        *                                                           *
        *  Thank you very much for using Q-Chem.  Have a nice day.  *
        *                                                           *
        *************************************************************


