
Running Job 1 of 1 qcts1.in
qchem qcts1.in_56038.0 ./qcts1.d/ 1
/home/leeping/opt/qchem/5.0.2-openmp/exe/qcprog.exe_s qcts1.in_56038.0 ./qcts1.d/
Check license passed

                  Welcome to Q-Chem
     A Quantum Leap Into The Future Of Chemistry


 Q-Chem 5.0, Q-Chem, Inc., Pleasanton, CA (2017)

 Yihan Shao,  Zhengting Gan,  E. Epifanovsky,  A. T. B. Gilbert,  M. Wormit,  
 J. Kussmann,  A. W. Lange,  A. Behn,  Jia Deng,  Xintian Feng,  D. Ghosh,  
 M. Goldey,  P. R. Horn,  L. D. Jacobson,  I. Kaliman,  T. Kus,  A. Landau,  
 Jie Liu,  E. I. Proynov,  R. M. Richard,  R. P. Steele,  E. J. Sundstrom,  
 H. L. Woodcock III,  P. M. Zimmerman,  D. Zuev,  B. Albrecht,  E. Alguire,  
 S. A. Baeppler,  D. Barton,  Z. Benda,  Y. A. Bernard,  E. J. Berquist,  
 K. B. Bravaya,  H. Burton,  D. Casanova,  Chun-Min Chang,  Yunqing Chen,  
 A. Chien,  K. D. Closser,  M. P. Coons,  S. Dasgupta,  A. L. Dempwolff,  
 M. Diedenhofen,  Hainam Do,  R. G. Edgar,  Po-Tung Fang,  S. Fatehi,  
 Qingguo Feng,  J. Fosso-Tande,  Qinghui Ge,  A. Ghysels,  G. Gidofalvi,  
 J. Gomes,  J. Gonthier,  A. Gunina,  M. W. D. Hanson-Heine,  
 P. H. P. Harbach,  A. W. Hauser,  J. E. Herr,  E. G. Hohenstein,  
 Z. C. Holden,  Kerwin Hui,  T.-C. Jagau,  Hyunjun Ji,  B. Kaduk,  
 K. Khistyaev,  Jaehoon Kim,  P. Klunzinger,  K. Koh,  D. Kosenkov,  
 L. Koulias,  T. Kowalczyk,  C. M. Krauter,  A. Kunitsa,  Ka Un Lao,  
 A. Laurent,  K. V. Lawler,  Joonho Lee,  D. Lefrancois,  S. Lehtola,  
 D. S. Levine,  Yi-Pei Li,  You-Sheng Lin,  Fenglai Liu,  E. Livshits,  
 A. Luenser,  P. Manohar,  E. Mansoor,  S. F. Manzer,  Shan-Ping Mao,  
 Yuezhi Mao,  N. Mardirossian,  A. V. Marenich,  T. Markovich,  
 L. A. Martinez-Martinez,  S. A. Maurer,  N. J. Mayhall,  S. C. McKenzie,  
 J.-M. Mewes,  A. F. Morrison,  J. W. Mullinax,  K. Nanda,  
 T. S. Nguyen-Beck,  R. Olivares-Amaya,  J. A. Parkhill,  T. M. Perrine,  
 F. Plasser,  S. Prager,  A. Prociuk,  E. Ramos,  D. R. Rehn,  F. Rob,  
 M. Schneider,  N. Sergueev,  S. M. Sharada,  S. Sharma,  D. W. Small,  
 T. Stauch,  T. Stein,  Yu-Chuan Su,  A. J. W. Thom,  A. Tkatchenko,  
 T. Tsuchimochi,  L. Vogt,  O. Vydrov,  M. A. Watson,  J. Wenzel,  
 M. de Wergifosse,  T. A. Wesolowski,  A. White,  J. Witte,  A. Yamada,  
 Jun Yang,  K. Yao,  S. Yeganeh,  S. R. Yost,  Zhi-Qiang You,  A. Zech,  
 Igor Ying Zhang,  Xing Zhang,  Yan Zhao,  Ying Zhu,  B. R. Brooks,  
 G. K. L. Chan,  C. J. Cramer,  M. S. Gordon,  W. J. Hehre,  A. Klamt,  
 M. W. Schmidt,  C. D. Sherrill,  D. G. Truhlar,  A. Aspuru-Guzik,  R. Baer,  
 A. T. Bell,  N. A. Besley,  Jeng-Da Chai,  R. A. DiStasio Jr.,  A. Dreuw,  
 B. D. Dunietz,  T. R. Furlani,  Chao-Ping Hsu,  Yousung Jung,  Jing Kong,  
 D. S. Lambrecht,  WanZhen Liang,  C. Ochsenfeld,  V. A. Rassolov,  
 L. V. Slipchenko,  J. E. Subotnik,  T. Van Voorhis,  J. M. Herbert,  
 A. I. Krylov,  P. M. W. Gill,  M. Head-Gordon

 Contributors to earlier versions of Q-Chem not listed above: 
 R. D. Adamson,  B. Austin,  J. Baker,  G. J. O. Beran,  K. Brandhorst,  
 S. T. Brown,  E. F. C. Byrd,  A. K. Chakraborty,  C.-L. Cheng,  
 Siu Hung Chien,  D. M. Chipman,  D. L. Crittenden,  H. Dachsel,  
 R. J. Doerksen,  A. D. Dutoi,  L. Fusti-Molnar,  W. A. Goddard III,  
 A. Golubeva-Zadorozhnaya,  S. R. Gwaltney,  G. Hawkins,  A. Heyden,  
 S. Hirata,  G. Kedziora,  F. J. Keil,  C. Kelley,  Jihan Kim,  R. A. King,  
 R. Z. Khaliullin,  P. P. Korambath,  W. Kurlancheek,  A. M. Lee,  M. S. Lee,  
 S. V. Levchenko,  Ching Yeh Lin,  D. Liotard,  R. C. Lochan,  I. Lotan,  
 P. E. Maslen,  N. Nair,  D. P. O'Neill,  D. Neuhauser,  E. Neuscamman,  
 C. M. Oana,  R. Olson,  B. Peters,  R. Peverati,  P. A. Pieniazek,  
 Y. M. Rhee,  J. Ritchie,  M. A. Rohrdanz,  E. Rosta,  N. J. Russ,  
 H. F. Schaefer III,  N. E. Schultz,  N. Shenvi,  A. C. Simmonett,  A. Sodt,  
 D. Stuck,  K. S. Thanthiriwatte,  V. Vanovschi,  Tao Wang,  A. Warshel,  
 C. F. Williams,  Q. Wu,  X. Xu,  W. Zhang

 Please cite Q-Chem as follows:
 Y. Shao et al., Mol. Phys. 113, 184-215 (2015)
 DOI: 10.1080/00268976.2014.952696

 Q-Chem 5.0.2 for Intel X86 EM64T Linux

 Parts of Q-Chem use Armadillo 5.200.1 (Boston Tea Smuggler).
 http://arma.sourceforge.net/

 Q-Chem begins on Wed Mar  2 18:41:04 2022  

Host: 
0

     Scratch files written to ./qcts1.d//
 Dec517 15110_ 26548  26544 5633   
Processing $rem in /home/leeping/opt/qchem/5.0.2-openmp/config/preferences.
 MEM_STATIC 2000
 MEM_TOTAL  8000
 SYMMETRY   OFF
 SYM_IGNORE TRUE 

Checking the input file for inconsistencies... 	...done.

--------------------------------------------------------------
User input:
--------------------------------------------------------------
$molecule
0 2
C        1.5583654825    0.3155499394   -0.3012951530
C        0.6527588157   -0.9035715320   -0.1027010661
C       -0.6118307096   -0.4233815181   -0.8157790109
C       -1.0328212448    0.3948041179    0.7194191375
C       -0.4810323184    1.0308415698   -0.5593056626
N        0.9264053449    1.4090220359   -0.5168975280
H        2.6412788445    0.3046859935   -0.1957210126
H        1.1144699778   -1.8751780942   -0.3099955817
H       -1.2768257090   -1.0083934510   -1.4379233267
H       -1.8285754563    0.9157714794    1.2615587364
H       -1.1380020775    1.7083064645   -1.0994485217
C       -0.1922190193   -0.6298491046    1.2281217383
H       -0.3416708599   -1.2636470826    2.1093437724
$end

$rem
method                b3lyp
basis                 6-31g(d)
unrestricted          true
symmetry              off
sym_ignore            true
incdft                false
incfock               0
scf_convergence       8
thresh                14
jobtype               sp
scf_guess             core
scf_guess_mix         5
scf_algorithm         diis
max_scf_cycles        100
$end

--------------------------------------------------------------
 ----------------------------------------------------------------
             Standard Nuclear Orientation (Angstroms)
    I     Atom           X                Y                Z
 ----------------------------------------------------------------
    1      C       1.5583654825     0.3155499394    -0.3012951530
    2      C       0.6527588157    -0.9035715320    -0.1027010661
    3      C      -0.6118307096    -0.4233815181    -0.8157790109
    4      C      -1.0328212448     0.3948041179     0.7194191375
    5      C      -0.4810323184     1.0308415698    -0.5593056626
    6      N       0.9264053449     1.4090220359    -0.5168975280
    7      H       2.6412788445     0.3046859935    -0.1957210126
    8      H       1.1144699778    -1.8751780942    -0.3099955817
    9      H      -1.2768257090    -1.0083934510    -1.4379233267
   10      H      -1.8285754563     0.9157714794     1.2615587364
   11      H      -1.1380020775     1.7083064645    -1.0994485217
   12      C      -0.1922190193    -0.6298491046     1.2281217383
   13      H      -0.3416708599    -1.2636470826     2.1093437724
 ----------------------------------------------------------------
 Nuclear Repulsion Energy =   280.3109431935 hartrees
 There are       25 alpha and       24 beta electrons
 Requested basis set is 6-31G(d)
 There are 40 shells and 117 basis functions

 Total QAlloc Memory Limit   8000 MB
 Mega-Array Size      1956 MB
 MEM_STATIC part      2000 MB

                       Distance Matrix (Angstroms)
             C (  1)   C (  2)   C (  3)   C (  4)   C (  5)   N (  6)
   C (  2)  1.531607
   C (  3)  2.349567  1.529134
   C (  4)  2.786106  2.280974  1.789831
   C (  5)  2.176547  2.288214  1.482448  1.531062
   N (  6)  1.281226  2.365276  2.411058  2.528969  1.457978
   H (  7)  1.088102  2.328680  3.390763  3.787428  3.226193  2.064825
   H (  8)  2.235265  1.095522  2.311632  3.289890  3.324565  3.296081
   H (  9)  3.329123  2.348851  1.082368  2.585078  2.358757  3.398001
   H ( 10)  3.778114  3.365744  2.754838  1.094782  2.268184  3.316040
   H ( 11)  3.138028  3.319975  2.213915  2.246026  1.087346  2.165806
   C ( 12)  2.509470  1.600000  2.096720  1.419614  2.456869  2.907475
   H ( 13)  3.451837  2.451874  3.055385  2.271572  3.522185  3.955796
             H (  7)   H (  8)   H (  9)   H ( 10)   H ( 11)   C ( 12)
   H (  8)  2.663834
   H (  9)  4.314949  2.782415
   H ( 10)  4.740958  4.349793  3.360661
   H ( 11)  4.131566  4.305604  2.741222  2.584446
   C ( 12)  3.305963  2.371515  2.903009  2.251160  3.432064
   H ( 13)  4.083011  2.889207  3.677332  2.771189  4.445560  1.095713

 
 A cutoff of  1.0D-14 yielded    812 shell pairs
 There are      7084 function pairs
 
 -------------------------------------------------------
 OpenMP Integral Computing Module                       
 Release: version 1.0, May 2013, Q-Chem Inc. Pittsburgh 
 -------------------------------------------------------
 Integral Job Info:
 Integral job number is                      11
 Integral operator is                         1
 short-range coefficients                     0
 long-range coefficients              100000000
 Omega coefficients                           0
 if combine SR and LR in K                    0
 Integral screening is                        0
 Integral computing path is                   2
 max size of driver memory is            800000
 size of driver memory is                593474
 size of scratch memory is              2361544
 max col of scratch BK array               1296
 max len of scratch array in speh3          155
 max len of scratch index in speh4           18
 max int batch size is                      520
 min int batch size is                       52
 fixed nKL is                                52
 max L of basis functions is                  2
 order of int derivative is                   0
 number of shells is                         40
 number of basis is                         117
 number of cartesian basis is               117
 number of contracted shell pairs           812
 number of primitive shell pairs           3587
 maxK2 (contraction) of shell pair           36
 max number of K2 of shell pair               1
 max number of CS2 of shell pair             84
 max number of PS2 of shell pair            408
 mem total for path MDJ                  535308
 -------------------------------------------------------
 Smallest overlap matrix eigenvalue = 1.53E-03

 Scale SEOQF with 1.000000e-01/1.000000e-01/1.000000e-01

 Standard Electronic Orientation quadrupole field applied
 Nucleus-field energy     =     0.0000000014 hartrees
 Guess MOs from core Hamiltonian diagonalization
 Mixing HOMO and LUMO in initial guess
 Adding  50% of the LUMO to the HOMO
 An unrestricted hybrid HF-DFT SCF calculation will be
 performed using Pulay DIIS extrapolation
 Exchange:     0.2000 Hartree-Fock + 0.0800 Slater + 0.7200 B88
 Correlation:  0.1900 VWN1RPA + 0.8100 LYP
 Using SG-1 standard quadrature grid
 SCF converges when DIIS error is below 1.0E-08
 using 4 threads for integral computing
 -------------------------------------------------------
 OpenMP Integral computing Module                
 Release: version 1.0, May 2013, Q-Chem Inc. Pittsburgh 
 -------------------------------------------------------
 -------------------------------------------------------
 OpenMP BLAS3 based DFT computing Module                
 Release: version 1.0, May 2013, Q-Chem Inc. Pittsburgh 
 -------------------------------------------------------
 ---------------------------------------
  Cycle       Energy         DIIS Error
 ---------------------------------------
    1    -235.2284158641      1.36E-01
    2    -222.4052812012      1.09E-01
    3    -253.0562285935      1.02E-01
    4    -278.5740977908      6.33E-02
    5    -281.4731250710      5.15E-02
    6    -285.7356211248      2.13E-02
    7    -286.2759857167      1.54E-02
    8    -286.7525770637      4.72E-03
    9    -286.7959337850      2.82E-03
   10    -286.8094510109      8.51E-04
   11    -286.8113791690      5.87E-04
   12    -286.8122753086      2.93E-04
   13    -286.8127166266      1.08E-04
   14    -286.8127710315      2.84E-05
   15    -286.8127778213      5.87E-06
   16    -286.8127796393      2.80E-06
   17    -286.8127803826      2.50E-06
   18    -286.8127805788      4.13E-07
   19    -286.8127806164      2.79E-07
   20    -286.8127806396      1.56E-07
   21    -286.8127806444      4.44E-08
   22    -286.8127806448      1.01E-08
   23    -286.8127806448      5.68E-09 Convergence criterion met
 ---------------------------------------
 <S^2> = 0.7706
 SCF time:  CPU 59.43 s  wall 26.74 s
 SCF   energy in the final basis set = -286.81278064
 Total energy in the final basis set = -286.81278064
 
 --------------------------------------------------------------
 
                    Orbital Energies (a.u.)
 --------------------------------------------------------------
 
 Alpha MOs
 -- Occupied --
-14.315 -10.224 -10.220 -10.218 -10.217 -10.213 -10.196  -0.961
 -0.842  -0.737  -0.681  -0.591  -0.578  -0.537  -0.513  -0.457
 -0.431  -0.408  -0.400  -0.374  -0.327  -0.300  -0.272  -0.264
 -0.130
 -- Virtual --
  0.004   0.019   0.095   0.141   0.143   0.152   0.155   0.158
  0.173   0.197   0.214   0.279   0.282   0.299   0.349   0.389
  0.491   0.506   0.509   0.539   0.561   0.579   0.589   0.603
  0.625   0.646   0.661   0.679   0.695   0.748   0.764   0.798
  0.815   0.824   0.833   0.847   0.864   0.883   0.905   0.936
  0.982   1.031   1.057   1.105   1.192   1.229   1.238   1.336
  1.410   1.451   1.472   1.508   1.588   1.643   1.669   1.722
  1.762   1.828   1.847   1.870   1.940   1.961   2.010   2.039
  2.076   2.125   2.164   2.239   2.277   2.314   2.339   2.350
  2.403   2.473   2.525   2.540   2.580   2.605   2.649   2.678
  2.685   2.793   2.829   2.905   2.966   3.946   4.176   4.254
  4.326   4.415   4.527   4.591
 
 Beta MOs
 -- Occupied --
-14.315 -10.224 -10.222 -10.218 -10.214 -10.210 -10.185  -0.957
 -0.834  -0.734  -0.669  -0.586  -0.571  -0.531  -0.509  -0.449
 -0.429  -0.402  -0.398  -0.369  -0.322  -0.284  -0.267  -0.255
 -- Virtual --
 -0.018   0.018   0.034   0.097   0.146   0.150   0.153   0.158
  0.161   0.177   0.200   0.218   0.282   0.285   0.303   0.357
  0.391   0.501   0.510   0.517   0.553   0.565   0.582   0.594
  0.606   0.632   0.665   0.674   0.681   0.700   0.753   0.769
  0.800   0.816   0.824   0.836   0.850   0.869   0.886   0.909
  0.939   0.984   1.041   1.064   1.110   1.199   1.238   1.244
  1.342   1.412   1.460   1.479   1.509   1.597   1.650   1.674
  1.733   1.769   1.832   1.853   1.875   1.946   1.977   2.022
  2.049   2.081   2.135   2.167   2.253   2.287   2.325   2.350
  2.362   2.414   2.482   2.531   2.547   2.584   2.610   2.656
  2.682   2.693   2.798   2.833   2.907   2.968   3.948   4.188
  4.255   4.341   4.419   4.531   4.595
 --------------------------------------------------------------
 
          Ground-State Mulliken Net Atomic Charges

     Atom                 Charge (a.u.)    Spin (a.u.)
  --------------------------------------------------------
      1 C                     0.091754       0.025259
      2 C                    -0.254042      -0.061813
      3 C                    -0.124920       0.434812
      4 C                    -0.151038      -0.167361
      5 C                    -0.012937       0.004793
      6 N                    -0.339925       0.030919
      7 H                     0.143860       0.000641
      8 H                     0.138501       0.007273
      9 H                     0.158500      -0.016365
     10 H                     0.154334       0.006813
     11 H                     0.149857       0.003441
     12 C                    -0.098657       0.770626
     13 H                     0.144714      -0.039037
  --------------------------------------------------------
  Sum of atomic charges =    -0.000000
  Sum of spin   charges =     1.000000

 -----------------------------------------------------------------
                    Cartesian Multipole Moments
 -----------------------------------------------------------------
    Charge (ESU x 10^10)
                -0.0000
    Dipole Moment (Debye)
         X      -1.2641      Y      -1.9917      Z       0.0054
       Tot       2.3590
    Quadrupole Moments (Debye-Ang)
        XX     -37.7152     XY      -4.4652     YY     -42.9721
        XZ       0.4994     YZ       1.0557     ZZ     -40.4003
    Octopole Moments (Debye-Ang^2)
       XXX      -6.4295    XXY      -6.2450    XYY     -10.9550
       YYY     -26.7804    XXZ       1.3103    XYZ       1.0081
       YYZ       2.7956    XZZ      -9.1123    YZZ      -8.3151
       ZZZ       6.7227
    Hexadecapole Moments (Debye-Ang^3)
      XXXX    -248.0010   XXXY     -10.7795   XXYY     -85.9835
      XYYY     -23.2626   YYYY    -245.7924   XXXZ      20.1292
      XXYZ      13.9025   XYYZ      11.4361   YYYZ      29.9309
      XXZZ     -74.1349   XYZZ      -3.4364   YYZZ     -65.5297
      XZZZ      19.6307   YZZZ      22.7608   ZZZZ    -184.5165
 -----------------------------------------------------------------
Archival summary:
1\1\c8-66\SP\ProcedureUnspecified\6-31G*\166(2)\hpark21\WedMar218:41:342022WedMar218:41:342022\0\\#,ProcedureUnspecified,6-31G*,\\0,2\N\C,1,1.28123\H,2,1.0881,1,121.047\C,1,1.45798,2,105.05,3,-178.426,0\H,4,1.08735,1,115.855,2,-157.028,0\C,4,1.48245,1,110.161,2,-19.5873,0\H,6,1.08237,4,133.146,1,-138.67,0\C,6,1.52913,4,98.8822,1,32.3349,0\H,8,1.09552,6,122.603,4,-160.047,0\C,4,1.53106,1,115.554,2,60.4757,0\H,10,1.09478,4,118.546,1,116.83,0\C,10,1.41961,4,112.689,1,-47.6062,0\H,12,1.09571,10,128.677,4,-178.756,0\\\@

 Total job time:  29.80s(wall), 61.19s(cpu) 
 Wed Mar  2 18:41:34 2022

        *************************************************************
        *                                                           *
        *  Thank you very much for using Q-Chem.  Have a nice day.  *
        *                                                           *
        *************************************************************


