13
image # 1 Energy = -286.83831
C 1.54870   0.24423   -0.24941  
C 0.58329   -0.92549  -0.09491  
C -0.70965  -0.35961  -0.78553  
C -1.11940  0.19929   0.59046   
C -0.44225  1.08355   -0.55180  
N 0.96712   1.36966   -0.45382  
H 2.62083   0.17804   -0.07086  
H 0.96058   -1.92794  -0.30835  
H -1.31953  -0.82262  -1.55542  
H -2.09214  0.50632   0.96198   
H -1.08329  1.85604   -0.96419  
C -0.13402  -0.66345  1.22811   
H 0.21977   -0.73802  2.25376   
13
image # 2 Energy = -286.83684
C 1.55470   0.25328   -0.26295  
C 0.59143   -0.91942  -0.09685  
C -0.70366  -0.36707  -0.77843  
C -1.11483  0.22394   0.59883   
C -0.44455  1.07359   -0.54787  
N 0.96235   1.37354   -0.45043  
H 2.63250   0.19823   -0.09473  
H 0.99949   -1.92759  -0.33171  
H -1.30717  -0.84859  -1.53711  
H -2.08148  0.56980   1.00693   
H -1.08281  1.83474   -0.98619  
C -0.15386  -0.67853  1.21692   
H 0.14822   -0.78777  2.25677   
13
image # 3 Energy = -286.83449
C 1.56005   0.26107   -0.27005  
C 0.60535   -0.93467  -0.09718  
C -0.69783  -0.37182  -0.77714  
C -1.12211  0.24896   0.61411   
C -0.44740  1.07261   -0.54668  
N 0.95768   1.38067   -0.45231  
H 2.64005   0.21766   -0.11844  
H 1.02721   -1.90994  -0.34680  
H -1.29778  -0.87447  -1.52107  
H -2.05154  0.62530   1.04234   
H -1.08321  1.81266   -1.00591  
C -0.16775  -0.69038  1.21181   
H 0.07679   -0.84162  2.25527   
13
image # 4 Energy = -286.83116
C 1.55018   0.27171   -0.26621  
C 0.60393   -0.92487  -0.08204  
C -0.68711  -0.37102  -0.77703  
C -1.09090  0.25490   0.62397   
C -0.44563  1.06743   -0.54186  
N 0.95760   1.38300   -0.46435  
H 2.64450   0.24390   -0.15113  
H 1.05313   -1.88549  -0.35728  
H -1.29530  -0.90982  -1.50678  
H -1.99998  0.69042   1.07980   
H -1.09327  1.79209   -1.03776  
C -0.17971  -0.68696  1.20754   
H -0.01827  -0.93214  2.25673   
13
image # 5 Energy = -286.82512
C 1.56658   0.27335   -0.26281  
C 0.61055   -0.89575  -0.08128  
C -0.68071  -0.39001  -0.78255  
C -1.08519  0.29152   0.63527   
C -0.44950  1.06917   -0.55191  
N 0.94629   1.39497   -0.47825  
H 2.63895   0.26635   -0.17965  
H 1.08040   -1.87963  -0.36372  
H -1.28620  -0.93503  -1.48214  
H -1.94596  0.75017   1.11781   
H -1.09912  1.76764   -1.05901  
C -0.18363  -0.70131  1.22651   
H -0.11469  -1.02148  2.24215   
13
image # 6 Energy = -286.82173
C 1.55748   0.30194   -0.27079  
C 0.63044   -0.90481  -0.08455  
C -0.66957  -0.39284  -0.77711  
C -1.07343  0.31913   0.64884   
C -0.45443  1.05937   -0.56225  
N 0.94752   1.39202   -0.48773  
H 2.64599   0.28298   -0.19837  
H 1.09763   -1.86721  -0.36248  
H -1.28045  -0.95903  -1.46228  
H -1.90815  0.80486   1.15633   
H -1.10563  1.74845   -1.07386  
C -0.19426  -0.69724  1.21947   
H -0.19644  -1.10091  2.23237   
13
image # 7 Energy = -286.81507
C 1.56447   0.30262   -0.27883  
C 0.64817   -0.91780  -0.08880  
C -0.65364  -0.39596  -0.76940  
C -1.05297  0.34069   0.66721   
C -0.45530  1.04319   -0.56259  
N 0.93308   1.41530   -0.50341  
H 2.65165   0.30028   -0.21214  
H 1.11483   -1.85718  -0.35754  
H -1.27696  -0.98425  -1.44270  
H -1.87621  0.86115   1.19797   
H -1.11638  1.73398   -1.09043  
C -0.20904  -0.68402  1.21428   
H -0.27633  -1.17513  2.20380   
13
image # 8 Energy = -286.80871
C 1.55875   0.31918   -0.29588  
C 0.66083   -0.91217  -0.09576  
C -0.63308  -0.41604  -0.77532  
C -1.03961  0.37325   0.69911   
C -0.46044  1.03779   -0.56094  
N 0.93123   1.41481   -0.51528  
H 2.65962   0.31921   -0.22059  
H 1.13722   -1.86212  -0.34978  
H -1.27236  -1.00878  -1.41642  
H -1.83957  0.91859   1.24239   
H -1.12788  1.71417   -1.10452  
C -0.22344  -0.67505  1.22467   
H -0.35839  -1.24382  2.14666   
13
image # 9 Energy = -286.80099
C 1.57247   0.32786   -0.30963  
C 0.67662   -0.90628  -0.10967  
C -0.60865  -0.43550  -0.78203  
C -1.03252  0.41629   0.73415   
C -0.47923  1.02607   -0.55503  
N 0.92695   1.41141   -0.52237  
H 2.65649   0.33585   -0.22467  
H 1.15779   -1.87026  -0.33962  
H -1.27157  -1.03414  -1.39322  
H -1.80734  0.97048   1.28640   
H -1.13452  1.69141   -1.11228  
C -0.23883  -0.65320  1.21506   
H -0.42737  -1.30504  2.09227   
13
image # 10 Energy = -286.81546
C 1.56894   0.33270   -0.32570  
C 0.67980   -0.90014  -0.09960  
C -0.56849  -0.46350  -0.85582  
C -0.99527  0.47639   0.79517   
C -0.50360  0.99659   -0.53982  
N 0.91689   1.40930   -0.53876  
H 2.65878   0.35472   -0.21765  
H 1.16150   -1.87327  -0.30217  
H -1.28058  -1.06805  -1.36548  
H -1.77723  1.01965   1.34184   
H -1.14859  1.66615   -1.11365  
C -0.21987  -0.60745  1.22414   
H -0.50404  -1.37347  1.97890   
13
image # 11 Energy = -286.81997
C 1.57672   0.33042   -0.33253  
C 0.68973   -0.89660  -0.10831  
C -0.51311  -0.49749  -0.90908  
C -0.97567  0.51685   0.87327   
C -0.52737  0.98216   -0.53688  
N 0.90448   1.40644   -0.53860  
H 2.65833   0.36152   -0.21379  
H 1.16811   -1.88308  -0.28284  
H -1.29575  -1.09655  -1.35194  
H -1.76615  1.04988   1.38265   
H -1.15139  1.64980   -1.10703  
C -0.25014  -0.57015  1.19786   
H -0.53456  -1.39325  1.91102   
13
image # 12 Energy = -286.81573
C 1.58780   0.32869   -0.33911  
C 0.73103   -0.89970  -0.16313  
C -0.49031  -0.52337  -0.90400  
C -0.98868  0.56712   0.90090   
C -0.53777  0.95849   -0.51949  
N 0.89545   1.40044   -0.52058  
H 2.66124   0.36145   -0.20490  
H 1.18463   -1.90265  -0.28620  
H -1.29403  -1.10809  -1.33251  
H -1.77855  1.08339   1.42147   
H -1.14819  1.64117   -1.10754  
C -0.32644  -0.58809  1.15429   
H -0.51489  -1.36575  1.88687   
13
image # 13 Energy = -286.81641
C 1.57838   0.33914   -0.32892  
C 0.73849   -0.88330  -0.13308  
C -0.48611  -0.54822  -0.88348  
C -0.93912  0.62082   0.92460   
C -0.53938  0.95410   -0.52764  
N 0.88764   1.40044   -0.55576  
H 2.65913   0.36873   -0.19664  
H 1.15965   -1.88640  -0.23531  
H -1.30147  -1.13485  -1.30931  
H -1.74643  1.09286   1.45121   
H -1.16831  1.63156   -1.10039  
C -0.31766  -0.59923  1.07571   
H -0.54445  -1.40392  1.80642   
13
image # 14 Energy = -286.81809
C 1.58114   0.35290   -0.32585  
C 0.73559   -0.87763  -0.09964  
C -0.50258  -0.56022  -0.86385  
C -0.89396  0.64964   0.93043   
C -0.54324  0.95586   -0.52923  
N 0.88581   1.39790   -0.57921  
H 2.65625   0.37685   -0.19604  
H 1.14951   -1.87446  -0.19967  
H -1.29337  -1.15371  -1.29692  
H -1.72432  1.09865   1.47500   
H -1.18191  1.62174   -1.09345  
C -0.31980  -0.61938  1.02239   
H -0.56918  -1.41705  1.74419   
13
image # 15 Energy = -286.81934
C 1.59012   0.35408   -0.34134  
C 0.78075   -0.87655  -0.13451  
C -0.53195  -0.59666  -0.74284  
C -0.92033  0.66393   0.92403   
C -0.53999  0.96180   -0.51324  
N 0.88652   1.40365   -0.56316  
H 2.66714   0.37710   -0.20230  
H 1.17578   -1.89022  -0.24194  
H -1.27119  -1.14421  -1.30567  
H -1.73626  1.11805   1.47292   
H -1.17232  1.62175   -1.10663  
C -0.38324  -0.64663  0.96396   
H -0.56386  -1.39410  1.78005   
13
image # 16 Energy = -286.82039
C 1.59728   0.34521   -0.34515  
C 0.83321   -0.88464  -0.23302  
C -0.51915  -0.61505  -0.68381  
C -0.96777  0.65903   0.91176   
C -0.53560  0.95818   -0.50365  
N 0.88014   1.40734   -0.53754  
H 2.66750   0.36781   -0.18891  
H 1.18854   -1.90896  -0.26907  
H -1.26983  -1.12938  -1.27945  
H -1.74922  1.14570   1.48118   
H -1.16052  1.62007   -1.12182  
C -0.45794  -0.63323  0.95984   
H -0.52310  -1.37886  1.80105   
13
image # 17 Energy = -286.80880
C 1.60185   0.31740   -0.35473  
C 0.88025   -0.91215  -0.37090  
C -0.50126  -0.60567  -0.64469  
C -1.05849  0.62998   0.88362   
C -0.53929  0.95892   -0.49461  
N 0.88006   1.40198   -0.47095  
H 2.67643   0.35921   -0.19553  
H 1.23580   -1.93076  -0.33437  
H -1.25235  -1.10137  -1.27257  
H -1.77851  1.18257   1.48570   
H -1.12671  1.61333   -1.13891  
C -0.56146  -0.62539  1.02240   
H -0.47121  -1.32979  1.87904   
13
image # 18 Energy = -286.81855
C 1.61315   0.29760   -0.36300  
C 0.90740   -0.92116  -0.43369  
C -0.50256  -0.60933  -0.59860  
C -1.11200  0.61852   0.88171   
C -0.52757  0.95435   -0.48326  
N 0.87227   1.40171   -0.43707  
H 2.68666   0.36211   -0.21522  
H 1.27772   -1.93866  -0.37395  
H -1.22306  -1.09065  -1.27528  
H -1.77461  1.21147   1.49975   
H -1.11435  1.60720   -1.14795  
C -0.64041  -0.63805  1.03205   
H -0.47747  -1.29128  1.90978   
13
image # 19 Energy = -286.83260
C 1.61482   0.30424   -0.37589  
C 0.93583   -0.92962  -0.47664  
C -0.48987  -0.62679  -0.56847  
C -1.13554  0.63185   0.90122   
C -0.53047  0.94538   -0.46939  
N 0.87438   1.38586   -0.41965  
H 2.69575   0.37105   -0.23152  
H 1.31036   -1.93784  -0.39219  
H -1.19876  -1.09542  -1.26874  
H -1.75418  1.24722   1.52901   
H -1.11046  1.59087   -1.15082  
C -0.70893  -0.63618  1.02336   
H -0.51804  -1.28436  1.89677   
13
image # 20 Energy = -286.84425
C 1.63669   0.30540   -0.38732  
C 0.95190   -0.93080  -0.49760  
C -0.47397  -0.64325  -0.54609  
C -1.13891  0.64575   0.91404   
C -0.53943  0.93500   -0.45472  
N 0.86987   1.38727   -0.41403  
H 2.70037   0.38623   -0.26315  
H 1.34881   -1.93309  -0.41021  
H -1.16765  -1.10364  -1.26428  
H -1.72001  1.28340   1.56267   
H -1.10783  1.56837   -1.14566  
C -0.77427  -0.63806  1.01666   
H -0.60050  -1.29436  1.88839   
13
image # 21 Energy = -286.85381
C 1.63040   0.30415   -0.40041  
C 0.97668   -0.92558  -0.50860  
C -0.46330  -0.65240  -0.52115  
C -1.13674  0.66388   0.93050   
C -0.53811  0.91697   -0.44317  
N 0.86559   1.39329   -0.41358  
H 2.71926   0.40381   -0.29535  
H 1.38372   -1.92628  -0.42569  
H -1.13838  -1.11586  -1.25735  
H -1.67855  1.31569   1.59438   
H -1.10848  1.54586   -1.14018  
C -0.83070  -0.63985  1.00425   
H -0.69597  -1.31324  1.87612   
13
image # 22 Energy = -286.86007
C 1.64611   0.32071   -0.40882  
C 0.98995   -0.92733  -0.51246  
C -0.45534  -0.65986  -0.49218  
C -1.13324  0.67332   0.95490   
C -0.52986  0.90750   -0.44255  
N 0.85678   1.39401   -0.41716  
H 2.72629   0.41855   -0.32964  
H 1.41467   -1.91546  -0.43983  
H -1.11242  -1.13022  -1.25153  
H -1.63312  1.34125   1.61912   
H -1.11023  1.52276   -1.13365  
C -0.87633  -0.63947  0.99339   
H -0.79723  -1.33216  1.86076   
13
image # 23 Energy = -286.86502
C 1.65030   0.32926   -0.41852  
C 1.00043   -0.90018  -0.50852  
C -0.44406  -0.68420  -0.47473  
C -1.11842  0.67539   0.96663   
C -0.52522  0.90442   -0.42643  
N 0.86140   1.38970   -0.42209  
H 2.73238   0.43607   -0.36503  
H 1.44600   -1.90996  -0.45350  
H -1.08771  -1.14512  -1.24173  
H -1.58935  1.36827   1.64709   
H -1.11672  1.50108   -1.13355  
C -0.91664  -0.64179  0.99804   
H -0.90518  -1.34618  1.83359   
13
image # 24 Energy = -286.86869
C 1.65806   0.33223   -0.43040  
C 1.02536   -0.91434  -0.49540  
C -0.44072  -0.69563  -0.46352  
C -1.10421  0.68124   0.97381   
C -0.52460  0.89880   -0.40225  
N 0.86706   1.40449   -0.42609  
H 2.73740   0.45598   -0.40033  
H 1.46723   -1.87940  -0.46834  
H -1.06686  -1.16634  -1.23247  
H -1.54217  1.38949   1.67154   
H -1.12467  1.47810   -1.13534  
C -0.94586  -0.63715  0.99793   
H -1.01646  -1.36719  1.81232   
13
image # 25 Energy = -286.87241
C 1.66349   0.34415   -0.45066  
C 1.02430   -0.90396  -0.48003  
C -0.43683  -0.67886  -0.45337  
C -1.10365  0.69509   0.99114   
C -0.50775  0.89541   -0.40602  
N 0.86695   1.40732   -0.42203  
H 2.74488   0.48023   -0.43693  
H 1.51183   -1.87751  -0.48380  
H -1.04561  -1.19903  -1.21649  
H -1.48550  1.41155   1.70160   
H -1.12789  1.43863   -1.12534  
C -0.97276  -0.63430  0.99899   
H -1.13921  -1.39102  1.78406   
13
image # 26 Energy = -286.87303
C 1.67079   0.35603   -0.46241  
C 1.04771   -0.91186  -0.48695  
C -0.43688  -0.69316  -0.44104  
C -1.09814  0.72807   1.00214   
C -0.49943  0.88834   -0.38946  
N 0.86135   1.40739   -0.42115  
H 2.74655   0.49594   -0.46251  
H 1.53487   -1.86237  -0.49322  
H -1.02157  -1.21466  -1.18959  
H -1.44451  1.43065   1.72949   
H -1.13308  1.41333   -1.12487  
C -1.01295  -0.66081  1.00944   
H -1.21906  -1.38517  1.73082   
13
image # 27 Energy = -286.87550
C 1.67317   0.35904   -0.47794  
C 1.05540   -0.90138  -0.48855  
C -0.42158  -0.69721  -0.41372  
C -1.09398  0.71681   1.01848   
C -0.49741  0.88106   -0.37972  
N 0.86200   1.41008   -0.41821  
H 2.75079   0.51652   -0.49141  
H 1.56835   -1.85673  -0.50574  
H -1.00385  -1.24085  -1.16925  
H -1.39944  1.45089   1.75805   
H -1.13444  1.38108   -1.11947  
C -1.04418  -0.61936  0.99053   
H -1.31483  -1.39995  1.69696   
