13   
From optimize.out: Frame 1 / 26, Energy=    -286.6682355796
C        1.2319062165    0.1748322140   -1.2788275285
C        0.4962607154   -1.1307161987   -1.1068968073
C       -0.7353390231   -0.6038545812   -2.2291080689
C       -1.0828000619    0.0561011650   -0.4643792445
C       -0.6518900314    0.9112388625   -1.9810909183
N        0.8489921120    1.3526165396   -1.5904956096
H        2.2705424740    0.2704685353   -0.8968565249
H        1.2296734678   -1.8793659789   -1.3288426807
H       -1.1602852189   -1.5900263214   -2.0689558734
H       -1.9969795198    0.4460241054    0.0056285870
H       -1.2457534535    1.5725202490   -2.5729708713
C       -0.2027999215   -0.8831950548    0.1695428916
H        0.0566747506   -0.6570856050    1.2884985542
13   
From optimize.out: Frame 2 / 26, Energy=    -286.7083720091
C        1.2953872187    0.1795085155   -1.2766445049
C        0.5213383244   -1.1072366121   -1.1154792413
C       -0.7370719399   -0.6072185696   -2.2013547602
C       -1.1134649197    0.0675406099   -0.4673656115
C       -0.6559755093    0.8865929204   -1.9460448374
N        0.8332126424    1.3254709205   -1.5967118787
H        2.3349065070    0.2624929530   -0.9005684861
H        1.2464612944   -1.8748558036   -1.3372299179
H       -1.1855679304   -1.5829231741   -2.0495530857
H       -2.0350686664    0.4566361730   -0.0195809621
H       -1.2583958116    1.5526617582   -2.5347202637
C       -0.2231780756   -0.8578433600    0.1479476976
H        0.0356193722   -0.6612684005    1.2425517572
13   
From optimize.out: Frame 3 / 26, Energy=    -286.7396552024
C        1.3326520313    0.1889081362   -1.2757293713
C        0.5359819006   -1.0878496693   -1.1244262690
C       -0.7228360378   -0.6173394849   -2.1733323964
C       -1.1281815443    0.0839890213   -0.4779446411
C       -0.6470407936    0.8575043863   -1.9055936675
N        0.8037225145    1.3028752359   -1.6011194774
H        2.3680330423    0.2728927375   -0.9082622294
H        1.2449260549   -1.8791530206   -1.3426819859
H       -1.2019034854   -1.5786985543   -2.0303166799
H       -2.0546906090    0.4781659676   -0.0540145679
H       -1.2557600595    1.5301054656   -2.4876667317
C       -0.2410652463   -0.8367812984    0.1262775652
H        0.0243647384   -0.6750609921    1.2000563577
13   
From optimize.out: Frame 4 / 26, Energy=    -286.7632234201
C        1.3638486965    0.1990342751   -1.2775282419
C        0.5496907389   -1.0706598756   -1.1312400799
C       -0.7019478227   -0.6314243561   -2.1508743627
C       -1.1400071037    0.1018551413   -0.4911264457
C       -0.6390674751    0.8342535620   -1.8673511851
N        0.7763819083    1.2838749671   -1.6064130795
H        2.3976643597    0.2863836333   -0.9205929543
H        1.2360610169   -1.8878880182   -1.3424117721
H       -1.2184701677   -1.5749575733   -2.0211200727
H       -2.0732614830    0.4980651139   -0.0890477907
H       -1.2553694277    1.5111381693   -2.4417500982
C       -0.2539458599   -0.8174255812    0.1099787852
H        0.0166251257   -0.6926915267    1.1747232030
13   
From optimize.out: Frame 5 / 26, Energy=    -286.7803670615
C        1.3896961973    0.2106896027   -1.2821041531
C        0.5637957740   -1.0548435732   -1.1341825909
C       -0.6765010793   -0.6470161865   -2.1324906066
C       -1.1489270553    0.1183217094   -0.5016069666
C       -0.6332232151    0.8167203571   -1.8349547436
N        0.7590203194    1.2717927888   -1.6141017886
H        2.4238960903    0.3018453980   -0.9378777118
H        1.2221152356   -1.9004510343   -1.3335003208
H       -1.2380698596   -1.5673059508   -2.0223286922
H       -2.0901649456    0.5112480102   -0.1181295259
H       -1.2585580885    1.4938743040   -2.4034287744
C       -0.2630963574   -0.8003955376    0.0994785717
H        0.0082194904   -0.7149219571    1.1604732083
13   
From optimize.out: Frame 6 / 26, Energy=    -286.7928728770
C        1.4105614562    0.2222877397   -1.2884176169
C        0.5782759206   -1.0408111975   -1.1327871028
C       -0.6481330296   -0.6611183227   -2.1177373290
C       -1.1553432122    0.1321309341   -0.5059620512
C       -0.6304423916    0.8038053236   -1.8111341311
N        0.7505393686    1.2657490427   -1.6246566776
H        2.4469456182    0.3164388176   -0.9587661599
H        1.2060723608   -1.9145065092   -1.3155779384
H       -1.2597250089   -1.5522888603   -2.0358952585
H       -2.1049942477    0.5166908711   -0.1365956743
H       -1.2653930326    1.4770763765   -2.3767705200
C       -0.2688885866   -0.7856187433    0.0949081736
H       -0.0012727090   -0.7402775414    1.1546381914
13   
From optimize.out: Frame 7 / 26, Energy=    -286.8024337556
C        1.4264042118    0.2328088977   -1.2956364928
C        0.5921747124   -1.0290881816   -1.1282025562
C       -0.6180595378   -0.6736088196   -2.1061251016
C       -1.1592453982    0.1442604327   -0.5035073735
C       -0.6296081814    0.7927586515   -1.7951061359
N        0.7458677275    1.2628085492   -1.6370304792
H        2.4660217782    0.3297524816   -0.9819675297
H        1.1906620693   -1.9279301753   -1.2906162781
H       -1.2808822470   -1.5302738204   -2.0618228089
H       -2.1162337229    0.5182928672   -0.1433356143
H       -1.2739720258    1.4594907905   -2.3602479521
C       -0.2726440229   -0.7724923095    0.0947903694
H       -0.0122828569   -0.7672214332    1.1540538583
13   
From optimize.out: Frame 8 / 26, Energy=    -286.8101099511
C        1.4383205458    0.2419409808   -1.3034162425
C        0.6046640825   -1.0195209373   -1.1219709951
C       -0.5869015422   -0.6856262582   -2.0985378868
C       -1.1609835149    0.1571728594   -0.4948601885
C       -0.6303622880    0.7810042781   -1.7842771769
N        0.7418681942    1.2605351828   -1.6502658003
H        2.4816131219    0.3419411929   -1.0067336889
H        1.1767058549   -1.9397876298   -1.2603655339
H       -1.2972286165   -1.5047160442   -2.0994954629
H       -2.1227707229    0.5215918371   -0.1381872350
H       -1.2844008811    1.4397869544   -2.3494282558
C       -0.2761371056   -0.7593402106    0.0970008882
H       -0.0261846218   -0.7954242745    1.1557834838
13   
From optimize.out: Frame 9 / 26, Energy=    -286.8166642223
C        1.4477965670    0.2502952863   -1.3116010857
C        0.6153026711   -1.0109605457   -1.1159078854
C       -0.5546101131   -0.6985710927   -2.0973835810
C       -1.1613279029    0.1738041174   -0.4805813574
C       -0.6328168289    0.7666502182   -1.7756594200
N        0.7373318435    1.2576778825   -1.6641671003
H        2.4947237775    0.3535952920   -1.0322816122
H        1.1627583353   -1.9498764330   -1.2265593385
H       -1.3031187057   -1.4817502861   -2.1455034324
H       -2.1238545936    0.5324035594   -0.1202942028
H       -1.2971500506    1.4171668418   -2.3398852941
C       -0.2816116476   -0.7444115720    0.0989425953
H       -0.0452208458   -0.8264653373    1.1561276199
13   
From optimize.out: Frame 10 / 26, Energy=    -286.8228651580
C        1.4558277823    0.2581747366   -1.3196737746
C        0.6239963003   -1.0025813113   -1.1115497509
C       -0.5212639639   -0.7128818109   -2.1041577982
C       -1.1615974710    0.1943984909   -0.4618010905
C       -0.6367422985    0.7492566942   -1.7670512759
N        0.7320076485    1.2535628309   -1.6783187788
H        2.5057339218    0.3649355007   -1.0562566480
H        1.1471743194   -1.9582593134   -1.1920629142
H       -1.2969858091   -1.4655036856   -2.1946648559
H       -2.1202814781    0.5522219514   -0.0909284209
H       -1.3112888455    1.3923265779   -2.3292128775
C       -0.2900995585   -0.7270401667    0.0989151118
H       -0.0682780417   -0.8590525639    1.1520089791
13   
From optimize.out: Frame 11 / 26, Energy=    -286.8290227617
C        1.4623194359    0.2651717822   -1.3267480677
C        0.6310179108   -0.9950599647   -1.1082793066
C       -0.4880059751   -0.7278813338   -2.1164566997
C       -1.1622727270    0.2162782612   -0.4398002304
C       -0.6414757850    0.7296704582   -1.7590301163
N        0.7266778450    1.2484012630   -1.6922327817
H        2.5144059351    0.3756139803   -1.0767959919
H        1.1306152329   -1.9652631807   -1.1580625919
H       -1.2848443675   -1.4523596433   -2.2472142870
H       -2.1139473463    0.5759376181   -0.0536417008
H       -1.3256218467    1.3660006352   -2.3188277605
C       -0.3000018546   -0.7077941866    0.0979953257
H       -0.0906639512   -0.8891577583    1.1443401142
13   
From optimize.out: Frame 12 / 26, Energy=    -286.8348362135
C        1.4657313021    0.2715970052   -1.3313941754
C        0.6365654721   -0.9896305851   -1.1038536960
C       -0.4580762585   -0.7424783172   -2.1315506517
C       -1.1622748126    0.2388080265   -0.4152166517
C       -0.6473238471    0.7093794158   -1.7550000372
N        0.7215425338    1.2439141961   -1.7054969392
H        2.5199354386    0.3855848348   -1.0942845366
H        1.1170457447   -1.9704030179   -1.1228645965
H       -1.2717413396   -1.4395837097   -2.3040203528
H       -2.1037578139    0.6023126960   -0.0099252904
H       -1.3396425157    1.3388662445   -2.3140348556
C       -0.3092909241   -0.6884205051    0.0978620076
H       -0.1105104736   -0.9203883531    1.1350256809
13   
From optimize.out: Frame 13 / 26, Energy=    -286.8398060183
C        1.4646526820    0.2775736723   -1.3340491937
C        0.6404167510   -0.9870127532   -1.0967673925
C       -0.4339727644   -0.7551920491   -2.1451992430
C       -1.1598119847    0.2627352470   -0.3908815549
C       -0.6550406125    0.6907119918   -1.7554842368
N        0.7153970583    1.2419749507   -1.7165257581
H        2.5219030804    0.3938189574   -1.1123473462
H        1.1115675065   -1.9722754908   -1.0854556096
H       -1.2582354306   -1.4280635514   -2.3611713760
H       -2.0879959637    0.6330907918    0.0355759353
H       -1.3533285154    1.3126191759   -2.3168606911
C       -0.3157940355   -0.6717388221    0.0994204001
H       -0.1315552654   -0.9586841894    1.1249919719
13   
From optimize.out: Frame 14 / 26, Energy=    -286.8438052471
C        1.4596698536    0.2830430222   -1.3364893388
C        0.6416755838   -0.9861265969   -1.0881858221
C       -0.4158169151   -0.7652509968   -2.1566337432
C       -1.1539318237    0.2865149944   -0.3685546552
C       -0.6643812917    0.6755117268   -1.7574372414
N        0.7090916263    1.2431552120   -1.7252216494
H        2.5211112918    0.3990432228   -1.1340009635
H        1.1141026714   -1.9696298818   -1.0479831799
H       -1.2410592732   -1.4225296018   -2.4153520600
H       -2.0659068524    0.6663450482    0.0812208154
H       -1.3662096965    1.2894494433   -2.3237523152
C       -0.3188990882   -0.6588227432    0.1021616406
H       -0.1612435799   -1.0011449184    1.1154744180
13   
From optimize.out: Frame 15 / 26, Energy=    -286.8469086510
C        1.4518527095    0.2878800033   -1.3389205471
C        0.6399829379   -0.9862352257   -1.0794538288
C       -0.4028254791   -0.7725437336   -2.1663460091
C       -1.1450478833    0.3083219062   -0.3491719460
C       -0.6753098017    0.6647158448   -1.7589774177
N        0.7029743938    1.2464749978   -1.7323087131
H        2.5180288329    0.4014646586   -1.1581970810
H        1.1230167326   -1.9625436742   -1.0141259563
H       -1.2178947784   -1.4270323277   -2.4634039248
H       -2.0370898563    0.7014445517    0.1266561203
H       -1.3781739085    1.2713029978   -2.3316261628
C       -0.3193145445   -0.6497988678    0.1050965170
H       -0.2019968485   -1.0438932002    1.1060248548
13   
From optimize.out: Frame 16 / 26, Energy=    -286.8491448485
C        1.4419319025    0.2917631257   -1.3408688515
C        0.6351276966   -0.9872038953   -1.0708045577
C       -0.3944349246   -0.7772713093   -2.1739608317
C       -1.1354275510    0.3268925212   -0.3337962549
C       -0.6877291278    0.6585347224   -1.7601275933
N        0.6967397996    1.2509899520   -1.7371610612
H        2.5125291115    0.4018518004   -1.1817995968
H        1.1365890023   -1.9519625688   -0.9869209318
H       -1.1885496470   -1.4432424625   -2.5016182267
H       -2.0026068874    0.7395809329    0.1699268711
H       -1.3888038446    1.2596322362   -2.3396469152
C       -0.3185802467   -0.6437144522    0.1078335803
H       -0.2485827771   -1.0862926719    1.0941902747
13   
From optimize.out: Frame 17 / 26, Energy=    -286.8504925930
C        1.4315196483    0.2952447131   -1.3415572948
C        0.6280371717   -0.9882674703   -1.0635265573
C       -0.3904617450   -0.7795444081   -2.1798755738
C       -1.1267472573    0.3396323983   -0.3225402692
C       -0.7011069533    0.6553931252   -1.7614014467
N        0.6905033173    1.2555354598   -1.7403978862
H        2.5056424196    0.4021315827   -1.2013437872
H        1.1534830063   -1.9387478773   -0.9719919902
H       -1.1540009052   -1.4709371155   -2.5272632697
H       -1.9612578645    0.7815816816    0.2107150939
H       -1.3980038347    1.2540561994   -2.3467617188
C       -0.3186796290   -0.6426834519    0.1096802165
H       -0.3007248680   -1.1238369062    1.0815103888
13   
From optimize.out: Frame 18 / 26, Energy=    -286.8509481251
C        1.4239692405    0.2949972914   -1.3402081827
C        0.6207660255   -0.9906125361   -1.0599112486
C       -0.3910894931   -0.7785925426   -2.1825242522
C       -1.1281292513    0.3426966765   -0.3218997710
C       -0.7087027387    0.6563475419   -1.7626585045
N        0.6860333023    1.2578753334   -1.7372029054
H        2.4987678198    0.4007807106   -1.2031837276
H        1.1624841655   -1.9322320930   -0.9721893036
H       -1.1335951180   -1.4927195784   -2.5293340235
H       -1.9399360350    0.8096527801    0.2251791432
H       -1.4001405321    1.2567863624   -2.3517643899
C       -0.3211946189   -0.6409572024    0.1100716633
H       -0.3110302606   -1.1444648130    1.0708714079
13   
From optimize.out: Frame 19 / 26, Energy=    -286.8510741305
C        1.4228499974    0.2990283379   -1.3364793681
C        0.6200119234   -0.9903024289   -1.0647395194
C       -0.3951394807   -0.7770898158   -2.1883121271
C       -1.1245092208    0.3337837812   -0.3201359717
C       -0.7140558477    0.6519397516   -1.7664782068
N        0.6833811970    1.2593983239   -1.7363144470
H        2.4975984007    0.4066892687   -1.1988817422
H        1.1757055331   -1.9252392179   -0.9962123137
H       -1.1203994594   -1.5138047911   -2.5247208394
H       -1.9054687619    0.8305531247    0.2454152589
H       -1.4027563914    1.2560779429   -2.3541632567
C       -0.3243636073   -0.6590909827    0.1052446097
H       -0.3546517762   -1.1323853637    1.0810238289
13   
From optimize.out: Frame 20 / 26, Energy=    -286.8514121087
C        1.4198647198    0.2968368138   -1.3329492266
C        0.6158819638   -0.9926401799   -1.0651385466
C       -0.3957176759   -0.7743161714   -2.1899210669
C       -1.1332552932    0.3326261508   -0.3257986989
C       -0.7137424265    0.6544330884   -1.7667502034
N        0.6821312782    1.2592503466   -1.7307866546
H        2.4932244807    0.4046637147   -1.1862354538
H        1.1717406884   -1.9281091198   -1.0007796728
H       -1.1224445319   -1.5170926835   -2.5094173615
H       -1.9127074624    0.8378100572    0.2343455636
H       -1.3984917645    1.2601172862   -2.3579207501
C       -0.3291771121   -0.6547377642    0.1031828939
H       -0.3191043582   -1.1392836081    1.0734150830
13   
From optimize.out: Frame 21 / 26, Energy=    -286.8515232469
C        1.4208678564    0.2957422354   -1.3327149690
C        0.6168742259   -0.9937019841   -1.0676586300
C       -0.3941772145   -0.7729169649   -2.1941876105
C       -1.1378208990    0.3277682598   -0.3291892342
C       -0.7120900756    0.6534311502   -1.7676226327
N        0.6818371148    1.2597132094   -1.7244343203
H        2.4931872632    0.4044324461   -1.1797910491
H        1.1700260736   -1.9310156881   -1.0046868307
H       -1.1299287696   -1.5138123356   -2.4978962009
H       -1.9184492019    0.8364899635    0.2258177800
H       -1.3963912043    1.2619920664   -2.3569301206
C       -0.3316625243   -0.6565086508    0.1002724111
H       -0.3040701386   -1.1320557766    1.0742673124
13   
From optimize.out: Frame 22 / 26, Energy=    -286.8515808883
C        1.4203770571    0.2992122332   -1.3233249557
C        0.6187413934   -0.9942421250   -1.0725296526
C       -0.3934993326   -0.7711558943   -2.1988607153
C       -1.1391198674    0.3241644629   -0.3311044891
C       -0.7102205319    0.6521459482   -1.7710223982
N        0.6821076086    1.2591047332   -1.7262310376
H        2.4918289927    0.4090743822   -1.1651275911
H        1.1713187845   -1.9323672004   -1.0152556131
H       -1.1451432840   -1.5085149163   -2.4729613602
H       -1.9179467305    0.8406200617    0.2189907815
H       -1.3930454821    1.2590444232   -2.3643712451
C       -0.3357033696   -0.6648414671    0.0950593202
H       -0.2914927319   -1.1326867108    1.0719848615
13   
From optimize.out: Frame 23 / 26, Energy=    -286.8516203310
C        1.4217413063    0.2977246002   -1.3287131037
C        0.6194900906   -0.9940545109   -1.0731343998
C       -0.3900271316   -0.7711325099   -2.2028928352
C       -1.1398878511    0.3217367409   -0.3325415184
C       -0.7102270977    0.6517412587   -1.7705819360
N        0.6821804844    1.2612852777   -1.7199635529
H        2.4931909244    0.4074348425   -1.1702087479
H        1.1730705582   -1.9312714191   -1.0121727038
H       -1.1453984095   -1.5086872760   -2.4673521543
H       -1.9188217519    0.8384128659    0.2170652438
H       -1.3934910618    1.2616225463   -2.3602422125
C       -0.3365905945   -0.6656306408    0.0934150009
H       -0.2970269596   -1.1296238446    1.0725688252
13   
From optimize.out: Frame 24 / 26, Energy=    -286.8516374538
C        1.4213537038    0.2981888021   -1.3285879926
C        0.6198251619   -0.9940923757   -1.0725555330
C       -0.3900465900   -0.7720459432   -2.2030295564
C       -1.1378727087    0.3227072040   -0.3321745526
C       -0.7102797285    0.6524058284   -1.7717112755
N        0.6828545790    1.2618473915   -1.7214968168
H        2.4931161831    0.4079411117   -1.1718494033
H        1.1754300695   -1.9299296325   -1.0099463548
H       -1.1473525744   -1.5082747161   -2.4663631139
H       -1.9178581884    0.8373139231    0.2180544343
H       -1.3937948491    1.2620760950   -2.3609730592
C       -0.3349022230   -0.6653695502    0.0940386214
H       -0.3022703290   -1.1332102073    1.0718405076
13   
From optimize.out: Frame 25 / 26, Energy=    -286.8516452122
C        1.4217558803    0.2992829596   -1.3284774202
C        0.6204944271   -0.9930015421   -1.0731545124
C       -0.3887096242   -0.7722806608   -2.2032747356
C       -1.1361103031    0.3241423987   -0.3320666591
C       -0.7097113836    0.6534316257   -1.7713513697
N        0.6839101899    1.2623001927   -1.7236886803
H        2.4937642156    0.4090376635   -1.1731248334
H        1.1770333783   -1.9281139049   -1.0095526070
H       -1.1503050123   -1.5077270830   -2.4572060950
H       -1.9181454698    0.8361512873    0.2178609349
H       -1.3930025425    1.2612446972   -2.3624882215
C       -0.3340553327   -0.6655400506    0.0932468459
H       -0.3087159168   -1.1393696524    1.0685232587
