13   
From optimize.out: Frame 1 / 26, Energy=    -286.6682355796
C        0.0801880000    0.1286720000   -0.0000000000
C       -0.2718290000   -0.0630630000   -0.0000000000
C       -0.1435060000    0.4129580000   -0.0000000000
C       -0.1746980000   -0.2286840000   -0.0000000000
C       -0.0901260000    0.2173310000   -0.0000000000
N       -0.3074780000   -0.0195660000   -0.0000000000
H        0.1232850000   -0.0005800000   -0.0000000000
H        0.1533120000    0.0130010000   -0.0000000000
H        0.2234600000   -0.0228320000   -0.0000000000
H        0.1472190000    0.0183660000    0.0000000000
H        0.1733970000   -0.0065360000   -0.0000000000
C       -0.0662610000    0.5436770000    0.0000000000
H        0.1530380000    0.0072550000    0.0000000000
13   
From optimize.out: Frame 2 / 26, Energy=    -286.7083720091
C        0.0749620000    0.1129870000   -0.0000000000
C       -0.2729250000   -0.0654910000   -0.0000000000
C       -0.1387320000    0.4304730000   -0.0000000000
C       -0.1708940000   -0.2213480000   -0.0000000000
C       -0.0828500000    0.1713670000   -0.0000000000
N       -0.3107750000   -0.0064040000   -0.0000000000
H        0.1309250000    0.0002260000   -0.0000000000
H        0.1503030000    0.0153380000   -0.0000000000
H        0.2179430000   -0.0225890000   -0.0000000000
H        0.1497890000    0.0179270000   -0.0000000000
H        0.1723600000   -0.0028770000   -0.0000000000
C       -0.0690160000    0.5652080000    0.0000000000
H        0.1489120000    0.0051840000    0.0000000000
13   
From optimize.out: Frame 3 / 26, Energy=    -286.7396552024
C        0.0734100000    0.1028920000   -0.0000000000
C       -0.2734060000   -0.0663290000   -0.0000000000
C       -0.1336240000    0.4487890000   -0.0000000000
C       -0.1659660000   -0.2163540000   -0.0000000000
C       -0.0720320000    0.1266780000   -0.0000000000
N       -0.3147150000    0.0020400000   -0.0000000000
H        0.1349400000    0.0007850000   -0.0000000000
H        0.1474390000    0.0169400000   -0.0000000000
H        0.2114180000   -0.0221110000   -0.0000000000
H        0.1509940000    0.0182990000   -0.0000000000
H        0.1686980000    0.0002120000   -0.0000000000
C       -0.0728660000    0.5841060000    0.0000000000
H        0.1457120000    0.0040530000    0.0000000000
13   
From optimize.out: Frame 4 / 26, Energy=    -286.7632234201
C        0.0737060000    0.0902800000   -0.0000000000
C       -0.2723720000   -0.0666530000   -0.0000000000
C       -0.1309790000    0.4675240000   -0.0000000000
C       -0.1601770000   -0.2171560000   -0.0000000000
C       -0.0603640000    0.0904270000   -0.0000000000
N       -0.3187200000    0.0094540000   -0.0000000000
H        0.1383690000    0.0013090000   -0.0000000000
H        0.1448070000    0.0178810000   -0.0000000000
H        0.2039360000   -0.0214190000   -0.0000000000
H        0.1516480000    0.0185310000   -0.0000000000
H        0.1648960000    0.0027240000   -0.0000000000
C       -0.0774570000    0.6036590000    0.0000000000
H        0.1427080000    0.0034380000    0.0000000000
13   
From optimize.out: Frame 5 / 26, Energy=    -286.7803670615
C        0.0762420000    0.0756200000   -0.0000000000
C       -0.2694700000   -0.0663100000   -0.0000000000
C       -0.1300060000    0.4897800000   -0.0000000000
C       -0.1534760000   -0.2208850000   -0.0000000000
C       -0.0511180000    0.0640720000   -0.0000000000
N       -0.3224910000    0.0153560000   -0.0000000000
H        0.1410020000    0.0017650000   -0.0000000000
H        0.1425650000    0.0181560000   -0.0000000000
H        0.1960890000   -0.0209070000   -0.0000000000
H        0.1518940000    0.0186160000   -0.0000000000
H        0.1612980000    0.0046170000   -0.0000000000
C       -0.0830070000    0.6170400000    0.0000000000
H        0.1404770000    0.0030800000    0.0000000000
13   
From optimize.out: Frame 6 / 26, Energy=    -286.7928728770
C        0.0798190000    0.0614160000   -0.0000000000
C       -0.2657180000   -0.0653860000   -0.0000000000
C       -0.1293680000    0.5179560000   -0.0000000000
C       -0.1468170000   -0.2266290000   -0.0000000000
C       -0.0449680000    0.0460990000   -0.0000000000
N       -0.3261160000    0.0195810000   -0.0000000000
H        0.1429390000    0.0020810000   -0.0000000000
H        0.1410100000    0.0178770000   -0.0000000000
H        0.1884180000   -0.0208770000   -0.0000000000
H        0.1517930000    0.0186970000   -0.0000000000
H        0.1582760000    0.0059690000   -0.0000000000
C       -0.0885040000    0.6204800000    0.0000000000
H        0.1392360000    0.0027370000    0.0000000000
13   
From optimize.out: Frame 7 / 26, Energy=    -286.8024337556
C        0.0832040000    0.0489200000   -0.0000000000
C       -0.2623040000   -0.0641030000   -0.0000000000
C       -0.1283650000    0.5554930000   -0.0000000000
C       -0.1405240000   -0.2337610000   -0.0000000000
C       -0.0412990000    0.0331560000   -0.0000000000
N       -0.3290050000    0.0224520000   -0.0000000000
H        0.1442810000    0.0022180000   -0.0000000000
H        0.1401760000    0.0171410000   -0.0000000000
H        0.1810730000   -0.0214630000   -0.0000000000
H        0.1514060000    0.0188660000   -0.0000000000
H        0.1556300000    0.0068650000   -0.0000000000
C       -0.0932400000    0.6119280000    0.0000000000
H        0.1389670000    0.0022890000    0.0000000000
13   
From optimize.out: Frame 8 / 26, Energy=    -286.8101099511
C        0.0860120000    0.0368950000   -0.0000000000
C       -0.2598140000   -0.0625560000   -0.0000000000
C       -0.1268640000    0.6084600000   -0.0000000000
C       -0.1337400000   -0.2406060000   -0.0000000000
C       -0.0398560000    0.0219990000   -0.0000000000
N       -0.3307960000    0.0246780000   -0.0000000000
H        0.1453300000    0.0021950000   -0.0000000000
H        0.1398140000    0.0158850000   -0.0000000000
H        0.1737110000   -0.0227020000   -0.0000000000
H        0.1507570000    0.0191000000   -0.0000000000
H        0.1530310000    0.0073540000   -0.0000000000
C       -0.0972570000    0.5877500000    0.0000000000
H        0.1396710000    0.0015490000    0.0000000000
13   
From optimize.out: Frame 9 / 26, Energy=    -286.8166642223
C        0.0887430000    0.0233830000   -0.0000000000
C       -0.2581250000   -0.0604220000   -0.0000000000
C       -0.1248440000    0.6836980000   -0.0000000000
C       -0.1250480000   -0.2401650000   -0.0000000000
C       -0.0412280000    0.0100800000   -0.0000000000
N       -0.3314790000    0.0262650000   -0.0000000000
H        0.1465070000    0.0020050000   -0.0000000000
H        0.1395210000    0.0139330000   -0.0000000000
H        0.1657300000   -0.0244650000   -0.0000000000
H        0.1498980000    0.0189930000   -0.0000000000
H        0.1501170000    0.0074370000   -0.0000000000
C       -0.1013180000    0.5388000000    0.0000000000
H        0.1415280000    0.0004560000    0.0000000000
13   
From optimize.out: Frame 10 / 26, Energy=    -286.8228651580
C        0.0918160000    0.0086180000   -0.0000000000
C       -0.2565040000   -0.0571620000   -0.0000000000
C       -0.1222140000    0.7727130000   -0.0000000000
C       -0.1146350000   -0.2164590000   -0.0000000000
C       -0.0459170000   -0.0031530000   -0.0000000000
N       -0.3312580000    0.0265460000   -0.0000000000
H        0.1480700000    0.0016300000   -0.0000000000
H        0.1390270000    0.0113710000   -0.0000000000
H        0.1572030000   -0.0261960000   -0.0000000000
H        0.1490370000    0.0174550000   -0.0000000000
H        0.1467570000    0.0071230000   -0.0000000000
C       -0.1057090000    0.4580260000    0.0000000000
H        0.1443260000   -0.0005130000    0.0000000000
13   
From optimize.out: Frame 11 / 26, Energy=    -286.8290227617
C        0.0947080000   -0.0036050000   -0.0000000000
C       -0.2543970000   -0.0531920000   -0.0000000000
C       -0.1187620000    0.8513680000   -0.0000000000
C       -0.1047140000   -0.1625500000   -0.0000000000
C       -0.0531590000   -0.0162130000   -0.0000000000
N       -0.3304880000    0.0254060000   -0.0000000000
H        0.1497010000    0.0011340000   -0.0000000000
H        0.1383810000    0.0087300000   -0.0000000000
H        0.1495580000   -0.0274480000   -0.0000000000
H        0.1484320000    0.0138600000   -0.0000000000
H        0.1432450000    0.0065180000   -0.0000000000
C       -0.1094140000    0.3567280000    0.0000000000
H        0.1469090000   -0.0007350000    0.0000000000
13   
From optimize.out: Frame 12 / 26, Energy=    -286.8348362135
C        0.0967730000   -0.0101160000   -0.0000000000
C       -0.2520750000   -0.0497610000   -0.0000000000
C       -0.1145090000    0.9070700000   -0.0000000000
C       -0.0969780000   -0.0959820000   -0.0000000000
C       -0.0618520000   -0.0274980000   -0.0000000000
N       -0.3295190000    0.0234070000   -0.0000000000
H        0.1508770000    0.0006580000   -0.0000000000
H        0.1376680000    0.0064850000   -0.0000000000
H        0.1442260000   -0.0283090000   -0.0000000000
H        0.1481540000    0.0092850000   -0.0000000000
H        0.1401990000    0.0057690000   -0.0000000000
C       -0.1112240000    0.2594140000    0.0000000000
H        0.1482590000   -0.0004220000    0.0000000000
13   
From optimize.out: Frame 13 / 26, Energy=    -286.8398060183
C        0.0976360000   -0.0116460000   -0.0000000000
C       -0.2499520000   -0.0477490000   -0.0000000000
C       -0.1099560000    0.9401650000   -0.0000000000
C       -0.0917110000   -0.0416930000   -0.0000000000
C       -0.0707530000   -0.0357320000   -0.0000000000
N       -0.3284910000    0.0217890000   -0.0000000000
H        0.1513920000    0.0003090000   -0.0000000000
H        0.1369920000    0.0048960000   -0.0000000000
H        0.1413610000   -0.0290150000   -0.0000000000
H        0.1480460000    0.0054480000    0.0000000000
H        0.1381950000    0.0050320000   -0.0000000000
C       -0.1109870000    0.1883150000    0.0000000000
H        0.1482280000   -0.0001190000    0.0000000000
13   
From optimize.out: Frame 14 / 26, Energy=    -286.8438052471
C        0.0976700000   -0.0108760000   -0.0000000000
C       -0.2481410000   -0.0468980000   -0.0000000000
C       -0.1057310000    0.9591670000   -0.0000000000
C       -0.0879330000   -0.0053760000   -0.0000000000
C       -0.0792810000   -0.0410720000   -0.0000000000
N       -0.3273890000    0.0212620000   -0.0000000000
H        0.1513670000    0.0000740000   -0.0000000000
H        0.1362850000    0.0038460000   -0.0000000000
H        0.1402100000   -0.0296740000   -0.0000000000
H        0.1477590000    0.0028100000    0.0000000000
H        0.1371700000    0.0043550000   -0.0000000000
C       -0.1093530000    0.1423820000    0.0000000000
H        0.1473670000    0.0000010000    0.0000000000
13   
From optimize.out: Frame 15 / 26, Energy=    -286.8469086510
C        0.0971100000   -0.0096280000   -0.0000000000
C       -0.2467460000   -0.0467110000   -0.0000000000
C       -0.1022030000    0.9707910000   -0.0000000000
C       -0.0850560000    0.0169040000   -0.0000000000
C       -0.0869100000   -0.0443410000   -0.0000000000
N       -0.3261940000    0.0219110000   -0.0000000000
H        0.1510390000   -0.0000770000   -0.0000000000
H        0.1355330000    0.0031610000   -0.0000000000
H        0.1399740000   -0.0302770000   -0.0000000000
H        0.1471270000    0.0011660000    0.0000000000
H        0.1369460000    0.0037430000   -0.0000000000
C       -0.1068850000    0.1133610000    0.0000000000
H        0.1462660000   -0.0000020000    0.0000000000
13   
From optimize.out: Frame 16 / 26, Energy=    -286.8491448485
C        0.0959180000   -0.0087700000   -0.0000000000
C       -0.2458430000   -0.0468380000   -0.0000000000
C       -0.0995560000    0.9784670000   -0.0000000000
C       -0.0834110000    0.0295510000   -0.0000000000
C       -0.0931300000   -0.0462760000   -0.0000000000
N       -0.3249300000    0.0235370000   -0.0000000000
H        0.1505360000   -0.0001540000   -0.0000000000
H        0.1347800000    0.0027290000   -0.0000000000
H        0.1400480000   -0.0308210000   -0.0000000000
H        0.1462800000    0.0002620000    0.0000000000
H        0.1374310000    0.0032070000   -0.0000000000
C       -0.1035670000    0.0952180000    0.0000000000
H        0.1454450000   -0.0001130000    0.0000000000
13   
From optimize.out: Frame 17 / 26, Energy=    -286.8504925930
C        0.0943580000   -0.0084620000   -0.0000000000
C       -0.2458600000   -0.0470770000   -0.0000000000
C       -0.0978250000    0.9835530000   -0.0000000000
C       -0.0833170000    0.0364130000   -0.0000000000
C       -0.0970650000   -0.0474560000   -0.0000000000
N       -0.3238900000    0.0255980000   -0.0000000000
H        0.1501160000   -0.0001750000   -0.0000000000
H        0.1340590000    0.0025040000   -0.0000000000
H        0.1402650000   -0.0312520000   -0.0000000000
H        0.1453960000   -0.0000680000    0.0000000000
H        0.1383820000    0.0028000000   -0.0000000000
C       -0.0996690000    0.0838600000    0.0000000000
H        0.1450510000   -0.0002390000    0.0000000000
13   
From optimize.out: Frame 18 / 26, Energy=    -286.8509481251
C        0.0929580000   -0.0088340000   -0.0000000000
C       -0.2455410000   -0.0470800000   -0.0000000000
C       -0.0974490000    0.9851450000   -0.0000000000
C       -0.0848320000    0.0367240000   -0.0000000000
C       -0.0981590000   -0.0476020000   -0.0000000000
N       -0.3235000000    0.0267980000   -0.0000000000
H        0.1496700000   -0.0001470000   -0.0000000000
H        0.1336980000    0.0024700000   -0.0000000000
H        0.1401030000   -0.0312200000   -0.0000000000
H        0.1452360000    0.0001100000    0.0000000000
H        0.1392240000    0.0026440000   -0.0000000000
C       -0.0966630000    0.0813990000    0.0000000000
H        0.1452550000   -0.0004070000    0.0000000000
13   
From optimize.out: Frame 19 / 26, Energy=    -286.8510741305
C        0.0929640000   -0.0088910000   -0.0000000000
C       -0.2486050000   -0.0470260000   -0.0000000000
C       -0.0970340000    0.9845960000   -0.0000000000
C       -0.0864780000    0.0399710000   -0.0000000000
C       -0.0955660000   -0.0480870000   -0.0000000000
N       -0.3241030000    0.0265440000   -0.0000000000
H        0.1502800000   -0.0001490000   -0.0000000000
H        0.1334960000    0.0026570000   -0.0000000000
H        0.1408770000   -0.0310370000   -0.0000000000
H        0.1447810000    0.0005710000    0.0000000000
H        0.1395270000    0.0027530000   -0.0000000000
C       -0.0950490000    0.0780940000    0.0000000000
H        0.1449090000    0.0000040000    0.0000000000
13   
From optimize.out: Frame 20 / 26, Energy=    -286.8514121087
C        0.0923110000   -0.0089600000   -0.0000000000
C       -0.2467330000   -0.0465810000   -0.0000000000
C       -0.0971910000    0.9834420000   -0.0000000000
C       -0.0872730000    0.0379090000   -0.0000000000
C       -0.0958240000   -0.0473470000   -0.0000000000
N       -0.3243230000    0.0258200000   -0.0000000000
H        0.1498600000   -0.0001410000   -0.0000000000
H        0.1334610000    0.0026940000   -0.0000000000
H        0.1401970000   -0.0302450000   -0.0000000000
H        0.1453320000    0.0007630000    0.0000000000
H        0.1397560000    0.0028010000   -0.0000000000
C       -0.0948150000    0.0798970000    0.0000000000
H        0.1452410000   -0.0000510000    0.0000000000
13   
From optimize.out: Frame 21 / 26, Energy=    -286.8515232469
C        0.0923880000   -0.0092100000   -0.0000000000
C       -0.2463950000   -0.0460170000   -0.0000000000
C       -0.0971730000    0.9815520000   -0.0000000000
C       -0.0874120000    0.0372830000   -0.0000000000
C       -0.0951920000   -0.0468070000   -0.0000000000
N       -0.3247090000    0.0252030000   -0.0000000000
H        0.1498000000   -0.0001370000   -0.0000000000
H        0.1335490000    0.0027280000   -0.0000000000
H        0.1398600000   -0.0292580000   -0.0000000000
H        0.1456540000    0.0008880000    0.0000000000
H        0.1396440000    0.0028990000   -0.0000000000
C       -0.0952420000    0.0808130000    0.0000000000
H        0.1452290000    0.0000620000    0.0000000000
13   
From optimize.out: Frame 22 / 26, Energy=    -286.8515808883
C        0.0924210000   -0.0082680000   -0.0000000000
C       -0.2459590000   -0.0450000000   -0.0000000000
C       -0.0962900000    0.9782590000   -0.0000000000
C       -0.0880500000    0.0397160000   -0.0000000000
C       -0.0943940000   -0.0459880000   -0.0000000000
N       -0.3251710000    0.0223340000   -0.0000000000
H        0.1498820000   -0.0001920000   -0.0000000000
H        0.1338310000    0.0028670000   -0.0000000000
H        0.1392730000   -0.0278080000   -0.0000000000
H        0.1461710000    0.0009610000    0.0000000000
H        0.1396220000    0.0030890000   -0.0000000000
C       -0.0968900000    0.0796640000    0.0000000000
H        0.1455540000    0.0003650000    0.0000000000
13   
From optimize.out: Frame 23 / 26, Energy=    -286.8516203310
C        0.0923720000   -0.0089010000   -0.0000000000
C       -0.2459200000   -0.0445170000   -0.0000000000
C       -0.0964820000    0.9771160000   -0.0000000000
C       -0.0876450000    0.0391050000   -0.0000000000
C       -0.0943660000   -0.0455630000   -0.0000000000
N       -0.3253440000    0.0227900000   -0.0000000000
H        0.1497970000   -0.0001690000   -0.0000000000
H        0.1336970000    0.0028470000   -0.0000000000
H        0.1390970000   -0.0270040000   -0.0000000000
H        0.1461450000    0.0009640000    0.0000000000
H        0.1396380000    0.0030590000   -0.0000000000
C       -0.0964070000    0.0798640000    0.0000000000
H        0.1454180000    0.0004080000    0.0000000000
13   
From optimize.out: Frame 24 / 26, Energy=    -286.8516374538
C        0.0922600000   -0.0089720000   -0.0000000000
C       -0.2461230000   -0.0443800000   -0.0000000000
C       -0.0962370000    0.9770430000   -0.0000000000
C       -0.0879390000    0.0394440000   -0.0000000000
C       -0.0946960000   -0.0455320000   -0.0000000000
N       -0.3251180000    0.0227310000   -0.0000000000
H        0.1497130000   -0.0001660000   -0.0000000000
H        0.1337780000    0.0028390000   -0.0000000000
H        0.1390900000   -0.0269740000   -0.0000000000
H        0.1460280000    0.0009380000    0.0000000000
H        0.1397670000    0.0030230000   -0.0000000000
C       -0.0960400000    0.0796640000    0.0000000000
H        0.1455190000    0.0003420000    0.0000000000
13   
From optimize.out: Frame 25 / 26, Energy=    -286.8516452122
C        0.0921610000   -0.0087730000   -0.0000000000
C       -0.2458640000   -0.0439780000   -0.0000000000
C       -0.0960900000    0.9759510000   -0.0000000000
C       -0.0876310000    0.0402570000   -0.0000000000
C       -0.0949650000   -0.0451070000   -0.0000000000
N       -0.3250700000    0.0220630000   -0.0000000000
H        0.1496930000   -0.0001790000   -0.0000000000
H        0.1337770000    0.0028600000   -0.0000000000
H        0.1388220000   -0.0264950000   -0.0000000000
H        0.1460620000    0.0008460000    0.0000000000
H        0.1398020000    0.0030040000   -0.0000000000
C       -0.0963330000    0.0792040000    0.0000000000
H        0.1456350000    0.0003470000    0.0000000000
