13   
From optimize.out: Frame 1 / 2, Energy=    -286.9243414232
C        0.0361640000   -0.1153580000   -0.0000000000
C       -0.1320940000    0.3517350000   -0.0000000000
C       -0.1107380000    0.0879640000    0.0000000000
C       -0.1307360000    0.3423220000    0.0000000000
C        0.0346250000   -0.1098150000    0.0000000000
N       -0.4231320000    0.3867970000   -0.0000000000
H        0.1425440000    0.0035360000   -0.0000000000
H        0.1343000000   -0.0185550000   -0.0000000000
H        0.1419710000   -0.0063610000    0.0000000000
H        0.1343710000   -0.0181190000    0.0000000000
H        0.1426620000    0.0032640000    0.0000000000
C       -0.1118320000    0.0995010000    0.0000000000
H        0.1418960000   -0.0069120000    0.0000000000
