13   
From optimize.out: Frame 1 / 2, Energy=    -286.9243414232
C        1.5034257173    0.4256102473   -0.6447129529
C        1.1643634563   -0.9055051779   -0.4849171573
C       -0.0585146875   -1.4553104375    0.0413118530
C       -1.2909145474    0.6710548828    0.5416954799
C       -0.3878826480    1.6387273045    0.1460774516
N        0.8577268377    1.5847531890   -0.3831864572
H        2.4955812681    0.5967987922   -1.0682627934
H        1.9190183945   -1.6234007098   -0.7970633715
H       -0.1123109288   -2.5415903839    0.0782713015
H       -2.2326901843    1.0421855550    0.9388982936
H       -0.7301979437    2.6672387110    0.2791917913
C       -1.1407860785   -0.7612644174    0.4932767293
H       -1.9868186557   -1.3392975553    0.8594198320
