
Running Job 1 of 1 optimize.in
qchem optimize.in_15971.0 ./optimize.d/ 1
/home/leeping/opt/qchem/5.0.2-openmp/exe/qcprog.exe_s optimize.in_15971.0 ./optimize.d/
Check license passed

                  Welcome to Q-Chem
     A Quantum Leap Into The Future Of Chemistry


 Q-Chem 5.0, Q-Chem, Inc., Pleasanton, CA (2017)

 Yihan Shao,  Zhengting Gan,  E. Epifanovsky,  A. T. B. Gilbert,  M. Wormit,  
 J. Kussmann,  A. W. Lange,  A. Behn,  Jia Deng,  Xintian Feng,  D. Ghosh,  
 M. Goldey,  P. R. Horn,  L. D. Jacobson,  I. Kaliman,  T. Kus,  A. Landau,  
 Jie Liu,  E. I. Proynov,  R. M. Richard,  R. P. Steele,  E. J. Sundstrom,  
 H. L. Woodcock III,  P. M. Zimmerman,  D. Zuev,  B. Albrecht,  E. Alguire,  
 S. A. Baeppler,  D. Barton,  Z. Benda,  Y. A. Bernard,  E. J. Berquist,  
 K. B. Bravaya,  H. Burton,  D. Casanova,  Chun-Min Chang,  Yunqing Chen,  
 A. Chien,  K. D. Closser,  M. P. Coons,  S. Dasgupta,  A. L. Dempwolff,  
 M. Diedenhofen,  Hainam Do,  R. G. Edgar,  Po-Tung Fang,  S. Fatehi,  
 Qingguo Feng,  J. Fosso-Tande,  Qinghui Ge,  A. Ghysels,  G. Gidofalvi,  
 J. Gomes,  J. Gonthier,  A. Gunina,  M. W. D. Hanson-Heine,  
 P. H. P. Harbach,  A. W. Hauser,  J. E. Herr,  E. G. Hohenstein,  
 Z. C. Holden,  Kerwin Hui,  T.-C. Jagau,  Hyunjun Ji,  B. Kaduk,  
 K. Khistyaev,  Jaehoon Kim,  P. Klunzinger,  K. Koh,  D. Kosenkov,  
 L. Koulias,  T. Kowalczyk,  C. M. Krauter,  A. Kunitsa,  Ka Un Lao,  
 A. Laurent,  K. V. Lawler,  Joonho Lee,  D. Lefrancois,  S. Lehtola,  
 D. S. Levine,  Yi-Pei Li,  You-Sheng Lin,  Fenglai Liu,  E. Livshits,  
 A. Luenser,  P. Manohar,  E. Mansoor,  S. F. Manzer,  Shan-Ping Mao,  
 Yuezhi Mao,  N. Mardirossian,  A. V. Marenich,  T. Markovich,  
 L. A. Martinez-Martinez,  S. A. Maurer,  N. J. Mayhall,  S. C. McKenzie,  
 J.-M. Mewes,  A. F. Morrison,  J. W. Mullinax,  K. Nanda,  
 T. S. Nguyen-Beck,  R. Olivares-Amaya,  J. A. Parkhill,  T. M. Perrine,  
 F. Plasser,  S. Prager,  A. Prociuk,  E. Ramos,  D. R. Rehn,  F. Rob,  
 M. Schneider,  N. Sergueev,  S. M. Sharada,  S. Sharma,  D. W. Small,  
 T. Stauch,  T. Stein,  Yu-Chuan Su,  A. J. W. Thom,  A. Tkatchenko,  
 T. Tsuchimochi,  L. Vogt,  O. Vydrov,  M. A. Watson,  J. Wenzel,  
 M. de Wergifosse,  T. A. Wesolowski,  A. White,  J. Witte,  A. Yamada,  
 Jun Yang,  K. Yao,  S. Yeganeh,  S. R. Yost,  Zhi-Qiang You,  A. Zech,  
 Igor Ying Zhang,  Xing Zhang,  Yan Zhao,  Ying Zhu,  B. R. Brooks,  
 G. K. L. Chan,  C. J. Cramer,  M. S. Gordon,  W. J. Hehre,  A. Klamt,  
 M. W. Schmidt,  C. D. Sherrill,  D. G. Truhlar,  A. Aspuru-Guzik,  R. Baer,  
 A. T. Bell,  N. A. Besley,  Jeng-Da Chai,  R. A. DiStasio Jr.,  A. Dreuw,  
 B. D. Dunietz,  T. R. Furlani,  Chao-Ping Hsu,  Yousung Jung,  Jing Kong,  
 D. S. Lambrecht,  WanZhen Liang,  C. Ochsenfeld,  V. A. Rassolov,  
 L. V. Slipchenko,  J. E. Subotnik,  T. Van Voorhis,  J. M. Herbert,  
 A. I. Krylov,  P. M. W. Gill,  M. Head-Gordon

 Contributors to earlier versions of Q-Chem not listed above: 
 R. D. Adamson,  B. Austin,  J. Baker,  G. J. O. Beran,  K. Brandhorst,  
 S. T. Brown,  E. F. C. Byrd,  A. K. Chakraborty,  C.-L. Cheng,  
 Siu Hung Chien,  D. M. Chipman,  D. L. Crittenden,  H. Dachsel,  
 R. J. Doerksen,  A. D. Dutoi,  L. Fusti-Molnar,  W. A. Goddard III,  
 A. Golubeva-Zadorozhnaya,  S. R. Gwaltney,  G. Hawkins,  A. Heyden,  
 S. Hirata,  G. Kedziora,  F. J. Keil,  C. Kelley,  Jihan Kim,  R. A. King,  
 R. Z. Khaliullin,  P. P. Korambath,  W. Kurlancheek,  A. M. Lee,  M. S. Lee,  
 S. V. Levchenko,  Ching Yeh Lin,  D. Liotard,  R. C. Lochan,  I. Lotan,  
 P. E. Maslen,  N. Nair,  D. P. O'Neill,  D. Neuhauser,  E. Neuscamman,  
 C. M. Oana,  R. Olson,  B. Peters,  R. Peverati,  P. A. Pieniazek,  
 Y. M. Rhee,  J. Ritchie,  M. A. Rohrdanz,  E. Rosta,  N. J. Russ,  
 H. F. Schaefer III,  N. E. Schultz,  N. Shenvi,  A. C. Simmonett,  A. Sodt,  
 D. Stuck,  K. S. Thanthiriwatte,  V. Vanovschi,  Tao Wang,  A. Warshel,  
 C. F. Williams,  Q. Wu,  X. Xu,  W. Zhang

 Please cite Q-Chem as follows:
 Y. Shao et al., Mol. Phys. 113, 184-215 (2015)
 DOI: 10.1080/00268976.2014.952696

 Q-Chem 5.0.2 for Intel X86 EM64T Linux

 Parts of Q-Chem use Armadillo 5.200.1 (Boston Tea Smuggler).
 http://arma.sourceforge.net/

 Q-Chem begins on Tue Mar  1 21:22:44 2022  

Host: 
0

     Scratch files written to ./optimize.d//
 Dec517 15110_ 26548  26544 5633   
Processing $rem in /home/leeping/opt/qchem/5.0.2-openmp/config/preferences.
 MEM_STATIC 2000
 MEM_TOTAL  8000
 SYMMETRY   OFF
 SYM_IGNORE TRUE 

Checking the input file for inconsistencies... 	...done.

--------------------------------------------------------------
User input:
--------------------------------------------------------------
$molecule
0 2
C        1.7037313021    0.3376744476   -2.5963676420
C        1.4263833421   -1.0110134929   -2.4149843397
C       -0.3045213724   -1.3505771149   -2.4921106554
C       -1.1831085885    0.3064907240   -1.2452000924
C       -0.6109920039    1.2828150125   -2.4206482907
N        0.5909958012    1.2294959622   -2.7475245744
H        2.5217196623    0.9622102064   -2.9340276900
H        2.1472090592   -1.8520331218   -2.5297160884
H       -0.5603431495   -1.0140777678   -3.4858200696
H       -1.0035098446    0.8342209051   -0.2713542088
H       -1.2667044546    1.9023573537   -3.0904406688
C       -1.7256986142   -0.9716230994   -1.2792542663
H       -2.0819452935   -1.7853199347   -0.5085027170
$end

$rem
method                b3lyp
basis                 6-31g(d)
unrestricted          true
symmetry              off
sym_ignore            true
incdft                false
incfock               0
scf_convergence       8
thresh                14
jobtype               opt
scf_guess             read
scf_algorithm         diis
max_scf_cycles        100
geom_opt_tol_gradient 600
geom_opt_tol_displacement 2400
geom_opt_tol_energy   200
geom_opt_max_cycles   100
$end

--------------------------------------------------------------
 ----------------------------------------------------------------
             Standard Nuclear Orientation (Angstroms)
    I     Atom           X                Y                Z
 ----------------------------------------------------------------
    1      C       1.7037313021     0.3376744476    -2.5963676420
    2      C       1.4263833421    -1.0110134929    -2.4149843397
    3      C      -0.3045213724    -1.3505771149    -2.4921106554
    4      C      -1.1831085885     0.3064907240    -1.2452000924
    5      C      -0.6109920039     1.2828150125    -2.4206482907
    6      N       0.5909958012     1.2294959622    -2.7475245744
    7      H       2.5217196623     0.9622102064    -2.9340276900
    8      H       2.1472090592    -1.8520331218    -2.5297160884
    9      H      -0.5603431495    -1.0140777678    -3.4858200696
   10      H      -1.0035098446     0.8342209051    -0.2713542088
   11      H      -1.2667044546     1.9023573537    -3.0904406688
   12      C      -1.7256986142    -0.9716230994    -1.2792542663
   13      H      -2.0819452935    -1.7853199347    -0.5085027170
 ----------------------------------------------------------------
 Nuclear Repulsion Energy =   250.5103333686 hartrees
 There are       25 alpha and       24 beta electrons
 Requested basis set is 6-31G(d)
 There are 40 shells and 117 basis functions

 Total QAlloc Memory Limit   8000 MB
 Mega-Array Size      1956 MB
 MEM_STATIC part      2000 MB
 A cutoff of  1.0D-14 yielded    796 shell pairs
 There are      7058 function pairs
 
 -------------------------------------------------------
 OpenMP Integral Computing Module                       
 Release: version 1.0, May 2013, Q-Chem Inc. Pittsburgh 
 -------------------------------------------------------
 Integral Job Info:
 Integral job number is                      11
 Integral operator is                         1
 short-range coefficients                     0
 long-range coefficients              100000000
 Omega coefficients                           0
 if combine SR and LR in K                    0
 Integral screening is                        0
 Integral computing path is                   2
 max size of driver memory is            800000
 size of driver memory is                593474
 size of scratch memory is              2361544
 max col of scratch BK array               1296
 max len of scratch array in speh3          155
 max len of scratch index in speh4           18
 max int batch size is                      520
 min int batch size is                       52
 fixed nKL is                                52
 max L of basis functions is                  2
 order of int derivative is                   0
 number of shells is                         40
 number of basis is                         117
 number of cartesian basis is               117
 number of contracted shell pairs           796
 number of primitive shell pairs           3364
 maxK2 (contraction) of shell pair           36
 max number of K2 of shell pair               1
 max number of CS2 of shell pair             90
 max number of PS2 of shell pair            450
 mem total for path MDJ                  534060
 -------------------------------------------------------
 Smallest overlap matrix eigenvalue = 3.40E-03

 Scale SEOQF with 1.000000e-01/1.000000e-01/1.000000e-01

 Standard Electronic Orientation quadrupole field applied
 Nucleus-field energy     =    -0.0000000206 hartrees
 Guess MOs from SCF MO coefficient file
 Reading MOs from coefficient file
 Reading MOs from coefficient file
 An unrestricted hybrid HF-DFT SCF calculation will be
 performed using Pulay DIIS extrapolation
 Exchange:     0.2000 Hartree-Fock + 0.0800 Slater + 0.7200 B88
 Correlation:  0.1900 VWN1RPA + 0.8100 LYP
 Using SG-1 standard quadrature grid
 SCF converges when DIIS error is below 1.0E-08
Using Q-Chem read-in guess as SCF_GUESS READ specified.

 using 4 threads for integral computing
 -------------------------------------------------------
 OpenMP Integral computing Module                
 Release: version 1.0, May 2013, Q-Chem Inc. Pittsburgh 
 -------------------------------------------------------
 -------------------------------------------------------
 OpenMP BLAS3 based DFT computing Module                
 Release: version 1.0, May 2013, Q-Chem Inc. Pittsburgh 
 -------------------------------------------------------
 ---------------------------------------
  Cycle       Energy         DIIS Error
 ---------------------------------------
    1    -286.6700099000      7.55E-10
    2    -286.6700099000      1.33E-09 Convergence criterion met
 ---------------------------------------
 <S^2> = 0.8062
 SCF time:  CPU 5.06 s  wall 3.60 s
 SCF   energy in the final basis set = -286.67000990
 Total energy in the final basis set = -286.67000990
 
 --------------------------------------------------------------
 
                    Orbital Energies (a.u.)
 --------------------------------------------------------------
 
 Alpha MOs
 -- Occupied --
-14.334 -10.256 -10.245 -10.239 -10.237 -10.229 -10.229  -0.930
 -0.771  -0.763  -0.658  -0.617  -0.563  -0.524  -0.475  -0.455
 -0.439  -0.429  -0.381  -0.347  -0.320  -0.280  -0.252  -0.226
 -0.193
 -- Virtual --
 -0.047  -0.032   0.024   0.045   0.093   0.119   0.124   0.141
  0.150   0.162   0.184   0.236   0.296   0.342   0.364   0.370
  0.492   0.506   0.522   0.529   0.553   0.558   0.574   0.590
  0.613   0.645   0.659   0.670   0.683   0.715   0.741   0.787
  0.802   0.814   0.827   0.841   0.851   0.860   0.883   0.907
  0.944   0.948   1.016   1.029   1.064   1.084   1.138   1.247
  1.305   1.363   1.445   1.471   1.497   1.513   1.593   1.630
  1.673   1.713   1.724   1.761   1.807   1.840   1.866   1.895
  1.960   1.981   2.027   2.035   2.092   2.182   2.189   2.257
  2.266   2.310   2.318   2.329   2.469   2.488   2.574   2.614
  2.651   2.708   2.781   2.940   3.120   3.894   4.016   4.091
  4.195   4.221   4.384   4.401
 
 Beta MOs
 -- Occupied --
-14.334 -10.255 -10.238 -10.233 -10.232 -10.231 -10.229  -0.930
 -0.769  -0.757  -0.650  -0.603  -0.554  -0.522  -0.471  -0.451
 -0.438  -0.426  -0.374  -0.343  -0.315  -0.276  -0.238  -0.210
 -- Virtual --
 -0.072  -0.042  -0.012   0.033   0.053   0.097   0.120   0.128
  0.146   0.151   0.170   0.188   0.238   0.298   0.345   0.368
  0.373   0.493   0.510   0.522   0.541   0.559   0.576   0.586
  0.600   0.618   0.647   0.662   0.673   0.685   0.726   0.748
  0.794   0.805   0.819   0.828   0.842   0.854   0.862   0.885
  0.912   0.946   0.953   1.019   1.031   1.069   1.090   1.142
  1.249   1.307   1.364   1.448   1.481   1.506   1.525   1.597
  1.644   1.689   1.723   1.739   1.778   1.813   1.844   1.890
  1.899   1.961   1.990   2.030   2.041   2.103   2.189   2.213
  2.259   2.272   2.316   2.331   2.335   2.474   2.497   2.577
  2.616   2.653   2.712   2.783   2.940   3.121   3.895   4.027
  4.095   4.202   4.234   4.385   4.405
 --------------------------------------------------------------
 
          Ground-State Mulliken Net Atomic Charges

     Atom                 Charge (a.u.)    Spin (a.u.)
  --------------------------------------------------------
      1 C                     0.040984       0.008718
      2 C                    -0.191125      -0.010705
      3 C                    -0.221859       0.826292
      4 C                    -0.152920      -0.235134
      5 C                     0.002641       0.024039
      6 N                    -0.318852       0.001057
      7 H                     0.169951       0.006621
      8 H                     0.160172       0.001266
      9 H                     0.183422      -0.036856
     10 H                     0.147980       0.049140
     11 H                     0.163484       0.005887
     12 C                    -0.147263       0.372062
     13 H                     0.163385      -0.012387
  --------------------------------------------------------
  Sum of atomic charges =    -0.000000
  Sum of spin   charges =     1.000000

 -----------------------------------------------------------------
                    Cartesian Multipole Moments
 -----------------------------------------------------------------
    Charge (ESU x 10^10)
                -0.0000
    Dipole Moment (Debye)
         X       0.1705      Y       0.0934      Z       0.4874
       Tot       0.5248
    Quadrupole Moments (Debye-Ang)
        XX     -38.7679     XY      -1.9323     YY     -42.0265
        XZ      -2.0475     YZ      -0.2518     ZZ     -42.3796
    Octopole Moments (Debye-Ang^2)
       XXX      15.7292    XXY       1.0715    XYY       0.1094
       YYY       5.2625    XXZ      82.8797    XYZ       9.4949
       YYZ      94.3622    XZZ       3.1843    YZZ       0.7330
       ZZZ     272.1305
    Hexadecapole Moments (Debye-Ang^3)
      XXXX    -430.3438   XXXY      -9.3891   XXYY    -110.1203
      XYYY     -24.0791   YYYY    -336.3566   XXXZ      25.6648
      XXYZ      -6.2957   XYYZ      18.7111   YYYZ       5.3529
      XXZZ    -271.1505   XYZZ     -31.3948   YYZZ    -287.9054
      XZZZ      77.1939   YZZZ      18.4837   ZZZZ   -1339.9931
 -----------------------------------------------------------------
 Calculating analytic gradient of the SCF energy
 Gradient of SCF Energy
            1           2           3           4           5           6
    1   0.0639038   0.0502165  -0.0195621   0.0128991   0.0271622  -0.0469439
    2   0.0074340  -0.0197857   0.0073479  -0.0120463   0.0509591  -0.0112675
    3  -0.0053751   0.0063366  -0.0342018  -0.0160490  -0.0187629   0.0276805
            7           8           9          10          11          12
    1  -0.0220849   0.0131878   0.0086363   0.0137433  -0.0014257  -0.0796123
    2   0.0201708  -0.0135898  -0.0032256   0.0022871   0.0053110   0.0082642
    3  -0.0103288  -0.0038368   0.0065372   0.0090341  -0.0243784   0.0386647
           13
    1  -0.0201201
    2  -0.0418593
    3   0.0246796
 Max gradient component =       7.961E-02
 RMS gradient           =       2.734E-02
 Gradient time:  CPU 7.24 s  wall 3.34 s
 Geometry Optimization Parameters
   NAtoms,    NIC,     NZ,  NCons,   NDum,   NFix, NCnnct, MaxDiis
       13      82       0       0       0       0       0       0


** GEOMETRY OPTIMIZATION IN DELOCALIZED INTERNAL COORDINATES **
   Searching for a Minimum

   Optimization Cycle:   1

                       Coordinates (Angstroms)
     ATOM                X               Y               Z
      1  C         1.7037313021    0.3376744476   -2.5963676420
      2  C         1.4263833421   -1.0110134929   -2.4149843397
      3  C        -0.3045213724   -1.3505771149   -2.4921106554
      4  C        -1.1831085885    0.3064907240   -1.2452000924
      5  C        -0.6109920039    1.2828150125   -2.4206482907
      6  N         0.5909958012    1.2294959622   -2.7475245744
      7  H         2.5217196623    0.9622102064   -2.9340276900
      8  H         2.1472090592   -1.8520331218   -2.5297160884
      9  H        -0.5603431495   -1.0140777678   -3.4858200696
     10  H        -1.0035098446    0.8342209051   -0.2713542088
     11  H        -1.2667044546    1.9023573537   -3.0904406688
     12  C        -1.7256986142   -0.9716230994   -1.2792542663
     13  H        -2.0819452935   -1.7853199347   -0.5085027170
   Point Group: c1    Number of degrees of freedom:    33


   Energy is   -286.670009900


 Attempting to Generate Delocalized Internal Coordinates

 33 Hessian modes will be used to form the next step
  Hessian Eigenvalues:
     0.005364    0.008560    0.013319    0.015617    0.016271    0.021532
     0.023048    0.025319    0.031840    0.045634    0.081721    0.110089
     0.135779    0.147637    0.151945    0.154484    0.158835    0.159800
     0.177631    0.206275    0.210661    0.220578    0.232265    0.265002
     0.312043    0.313508    0.322236    0.356191    0.360092    0.390905
     0.450800    0.474570    0.807850

 Minimum Search - Taking Simple RFO Step
 Searching for Lamda that Minimizes Along All modes
 Value Taken    Lamda =  -0.10657211
 Calculated Step too Large.  Step scaled by  0.479039
 Step Taken.  Stepsize is  0.300000

                             Maximum     Tolerance    Cnvgd?
         Gradient           0.090185      0.000600      NO
         Displacement       0.155507      0.002400      NO
         Energy change     *********      0.000002      NO


 New Cartesian Coordinates Obtained by Inverse Iteration

 Displacement from previous Coordinates is:  0.490181
 ----------------------------------------------------------------
             Standard Nuclear Orientation (Angstroms)
    I     Atom           X                Y                Z
 ----------------------------------------------------------------
    1      C       1.6519027225     0.3337085932    -2.5733040723
    2      C       1.3482041169    -0.9952645790    -2.4056784476
    3      C      -0.3027799535    -1.3554308010    -2.5101085548
    4      C      -1.1460568400     0.3151743412    -1.2605891687
    5      C      -0.6160820609     1.2769732295    -2.4207444083
    6      N       0.5889931929     1.2587174784    -2.7616184460
    7      H       2.5333295364     0.8901256360    -2.8713360166
    8      H       2.0654251335    -1.8280786998    -2.4889600279
    9      H      -0.5779461285    -1.0317733794    -3.5082737158
   10      H      -1.0043009649     0.8422877099    -0.2878740589
   11      H      -1.3058438581     1.8751295881    -3.0564148493
   12      C      -1.6315880785    -0.9657745660    -1.3206251022
   13      H      -1.9500409720    -1.7451744711    -0.5504244352
 ----------------------------------------------------------------
 Nuclear Repulsion Energy =   254.3676808542 hartrees
 There are       25 alpha and       24 beta electrons
 Applying Cartesian multipole field
    Component          Value
    ---------          -----
     (2,0,0)        1.00000E-11
     (0,2,0)        2.00000E-11
     (0,0,2)       -3.00000E-11
 Nucleus-field energy     =    -0.0000000208 hartrees
 Requested basis set is 6-31G(d)
 There are 40 shells and 117 basis functions
 A cutoff of  1.0D-14 yielded    798 shell pairs
 There are      7060 function pairs
 Smallest overlap matrix eigenvalue = 3.22E-03
 Guess MOs from SCF MO coefficient file
 Reading MOs from coefficient file
 Reading MOs from coefficient file
 An unrestricted hybrid HF-DFT SCF calculation will be
 performed using Pulay DIIS extrapolation
 Exchange:     0.2000 Hartree-Fock + 0.0800 Slater + 0.7200 B88
 Correlation:  0.1900 VWN1RPA + 0.8100 LYP
 Using SG-1 standard quadrature grid
 SCF converges when DIIS error is below 1.0E-08
 Geometry optimization detected.  Setting ReadMinima to 0
 Setting SaveMinima to 0
Using Q-Chem read-in guess as SCF_GUESS READ specified.

 using 4 threads for integral computing
 -------------------------------------------------------
 OpenMP Integral computing Module                
 Release: version 1.0, May 2013, Q-Chem Inc. Pittsburgh 
 -------------------------------------------------------
 -------------------------------------------------------
 OpenMP BLAS3 based DFT computing Module                
 Release: version 1.0, May 2013, Q-Chem Inc. Pittsburgh 
 -------------------------------------------------------
 ---------------------------------------
  Cycle       Energy         DIIS Error
 ---------------------------------------
    1    -286.8020817221      2.80E-03
    2    -286.7156094209      1.03E-03
    3    -286.7149428222      1.22E-03
    4    -286.7178857714      3.69E-04
    5    -286.7181567789      6.71E-05
    6    -286.7181760559      3.44E-05
    7    -286.7181859418      1.24E-05
    8    -286.7181919155      6.71E-06
    9    -286.7181969670      5.10E-06
   10    -286.7182000870      2.88E-06
   11    -286.7182016582      1.33E-06
   12    -286.7182023276      6.01E-07
   13    -286.7182024880      6.07E-07
   14    -286.7182025738      1.63E-07
   15    -286.7182026001      4.60E-08
   16    -286.7182026010      2.91E-08
   17    -286.7182026011      1.05E-08
   18    -286.7182026011      2.11E-09 Convergence criterion met
 ---------------------------------------
 <S^2> = 0.7843
 SCF time:  CPU 45.27 s  wall 27.06 s
 SCF   energy in the final basis set = -286.71820260
 Total energy in the final basis set = -286.71820260
 
 --------------------------------------------------------------
 
                    Orbital Energies (a.u.)
 --------------------------------------------------------------
 
 Alpha MOs
 -- Occupied --
-14.334 -10.252 -10.239 -10.232 -10.228 -10.224 -10.220  -0.933
 -0.779  -0.768  -0.661  -0.623  -0.563  -0.525  -0.479  -0.459
 -0.441  -0.433  -0.387  -0.348  -0.328  -0.282  -0.254  -0.229
 -0.196
 -- Virtual --
 -0.045  -0.029   0.037   0.068   0.110   0.124   0.130   0.151
  0.155   0.169   0.196   0.250   0.315   0.349   0.372   0.380
  0.495   0.506   0.523   0.533   0.557   0.563   0.575   0.592
  0.613   0.638   0.660   0.664   0.680   0.717   0.744   0.793
  0.799   0.819   0.835   0.844   0.858   0.866   0.887   0.911
  0.938   0.944   1.007   1.048   1.084   1.096   1.143   1.244
  1.316   1.362   1.449   1.463   1.506   1.534   1.601   1.640
  1.688   1.722   1.741   1.780   1.825   1.852   1.897   1.911
  1.980   2.018   2.031   2.078   2.110   2.192   2.213   2.271
  2.294   2.328   2.354   2.370   2.499   2.516   2.597   2.638
  2.670   2.735   2.804   2.948   3.124   3.914   4.016   4.120
  4.204   4.245   4.407   4.410
 
 Beta MOs
 -- Occupied --
-14.334 -10.251 -10.232 -10.227 -10.226 -10.224 -10.220  -0.933
 -0.775  -0.762  -0.653  -0.611  -0.554  -0.524  -0.473  -0.455
 -0.439  -0.430  -0.380  -0.344  -0.322  -0.279  -0.242  -0.215
 -- Virtual --
 -0.071  -0.040  -0.012   0.041   0.082   0.113   0.124   0.133
  0.154   0.158   0.177   0.202   0.252   0.318   0.352   0.375
  0.384   0.498   0.510   0.526   0.542   0.562   0.579   0.592
  0.601   0.618   0.641   0.662   0.669   0.682   0.726   0.752
  0.797   0.804   0.823   0.836   0.845   0.860   0.870   0.890
  0.915   0.943   0.947   1.011   1.050   1.089   1.100   1.147
  1.247   1.319   1.364   1.451   1.471   1.518   1.543   1.605
  1.667   1.699   1.732   1.757   1.790   1.830   1.855   1.913
  1.920   1.982   2.022   2.040   2.086   2.120   2.215   2.224
  2.272   2.297   2.333   2.358   2.386   2.503   2.528   2.599
  2.640   2.672   2.739   2.807   2.949   3.125   3.915   4.027
  4.123   4.211   4.255   4.406   4.419
 --------------------------------------------------------------
 
          Ground-State Mulliken Net Atomic Charges

     Atom                 Charge (a.u.)    Spin (a.u.)
  --------------------------------------------------------
      1 C                     0.034648       0.012670
      2 C                    -0.177789      -0.019883
      3 C                    -0.217928       0.887836
      4 C                    -0.148395      -0.186157
      5 C                     0.006965       0.016126
      6 N                    -0.324318       0.003691
      7 H                     0.163403       0.006497
      8 H                     0.156841       0.003980
      9 H                     0.176964      -0.038312
     10 H                     0.150043       0.044065
     11 H                     0.163929       0.003998
     12 C                    -0.144697       0.276388
     13 H                     0.160333      -0.010900
  --------------------------------------------------------
  Sum of atomic charges =    -0.000000
  Sum of spin   charges =     1.000000

 -----------------------------------------------------------------
                    Cartesian Multipole Moments
 -----------------------------------------------------------------
    Charge (ESU x 10^10)
                 0.0000
    Dipole Moment (Debye)
         X       0.0166      Y      -0.0634      Z       0.6285
       Tot       0.6319
    Quadrupole Moments (Debye-Ang)
        XX     -38.8433     XY      -2.1151     YY     -42.0902
        XZ      -1.2229     YZ       0.3468     ZZ     -43.0925
    Octopole Moments (Debye-Ang^2)
       XXX      14.9576    XXY       1.5137    XYY      -0.6406
       YYY       3.4982    XXZ      83.0463    XYZ       9.3927
       YYZ      95.3686    XZZ       0.5697    YZZ      -1.3895
       ZZZ     275.9207
    Hexadecapole Moments (Debye-Ang^3)
      XXXX    -401.2035   XXXY      -9.4015   XXYY    -107.7698
      XYYY     -23.7449   YYYY    -335.5546   XXXZ      24.7131
      XXYZ      -5.7254   XYYZ      20.2658   YYYZ       8.9367
      XXZZ    -267.4901   XYZZ     -31.1992   YYZZ    -292.1980
      XZZZ      78.5554   YZZZ      24.9768   ZZZZ   -1353.5874
 -----------------------------------------------------------------
 Calculating analytic gradient of the SCF energy
 Gradient of SCF Energy
            1           2           3           4           5           6
    1   0.0480305   0.0508019  -0.0111178   0.0154839   0.0201033  -0.0376443
    2  -0.0021469  -0.0065032  -0.0007591  -0.0195150   0.0499066  -0.0114004
    3  -0.0019991   0.0039442  -0.0302475  -0.0152761  -0.0211601   0.0276976
            7           8           9          10          11          12
    1  -0.0165491   0.0072103   0.0073916   0.0147092  -0.0015525  -0.0847293
    2   0.0179089  -0.0089358   0.0003302   0.0006131   0.0005438   0.0104582
    3  -0.0106945  -0.0026744   0.0049042   0.0061727  -0.0193414   0.0424369
           13
    1  -0.0121375
    2  -0.0305003
    3   0.0162375
 Max gradient component =       8.473E-02
 RMS gradient           =       2.506E-02
 Gradient time:  CPU 7.17 s  wall 2.13 s
 Geometry Optimization Parameters
   NAtoms,    NIC,     NZ,  NCons,   NDum,   NFix, NCnnct, MaxDiis
       13      82       0       0       0       0       0       0

 Cartesian Hessian Update
 Hessian Updated using BFGS Update


** GEOMETRY OPTIMIZATION IN DELOCALIZED INTERNAL COORDINATES **
   Searching for a Minimum

   Optimization Cycle:   2

                       Coordinates (Angstroms)
     ATOM                X               Y               Z
      1  C         1.6519027225    0.3337085932   -2.5733040723
      2  C         1.3482041169   -0.9952645790   -2.4056784476
      3  C        -0.3027799535   -1.3554308010   -2.5101085548
      4  C        -1.1460568400    0.3151743412   -1.2605891687
      5  C        -0.6160820609    1.2769732295   -2.4207444083
      6  N         0.5889931929    1.2587174784   -2.7616184460
      7  H         2.5333295364    0.8901256360   -2.8713360166
      8  H         2.0654251335   -1.8280786998   -2.4889600279
      9  H        -0.5779461285   -1.0317733794   -3.5082737158
     10  H        -1.0043009649    0.8422877099   -0.2878740589
     11  H        -1.3058438581    1.8751295881   -3.0564148493
     12  C        -1.6315880785   -0.9657745660   -1.3206251022
     13  H        -1.9500409720   -1.7451744711   -0.5504244352
   Point Group: c1    Number of degrees of freedom:    33


   Energy is   -286.718202601

 Hessian Updated using BFGS Update

 33 Hessian modes will be used to form the next step
  Hessian Eigenvalues:
     0.005366    0.007730    0.013354    0.015048    0.015663    0.020822
     0.022597    0.025160    0.029736    0.045323    0.066506    0.083344
     0.127793    0.136283    0.151304    0.154470    0.156275    0.160375
     0.162507    0.199371    0.212898    0.220693    0.227010    0.282094
     0.312972    0.315240    0.331419    0.356206    0.360700    0.396672
     0.450469    0.523532    0.801389

 Minimum Search - Taking Simple RFO Step
 Searching for Lamda that Minimizes Along All modes
 Value Taken    Lamda =  -0.12654382
 Calculated Step too Large.  Step scaled by  0.350493
 Step Taken.  Stepsize is  0.300000

                             Maximum     Tolerance    Cnvgd?
         Gradient           0.077974      0.000600      NO
         Displacement       0.159078      0.002400      NO
         Energy change     -0.048193      0.000002      NO


 New Cartesian Coordinates Obtained by Inverse Iteration

 Displacement from previous Coordinates is:  0.478906
 ----------------------------------------------------------------
             Standard Nuclear Orientation (Angstroms)
    I     Atom           X                Y                Z
 ----------------------------------------------------------------
    1      C       1.6022761350     0.3305850983    -2.5503577178
    2      C       1.2722156653    -0.9863287408    -2.3983741431
    3      C      -0.3022584120    -1.3591407544    -2.5333347676
    4      C      -1.1154386014     0.3334531804    -1.2683104889
    5      C      -0.6197300652     1.2750301828    -2.4141550959
    6      N       0.5889593111     1.2896981668    -2.7722915457
    7      H       2.5345846672     0.8213647414    -2.8091815290
    8      H       1.9917093877    -1.8116163066    -2.4561274392
    9      H      -0.5972303850    -1.0593612152    -3.5371919126
   10      H      -1.0199595211     0.8577447089    -0.2935540163
   11      H      -1.3347961667     1.8472694346    -3.0328595530
   12      C      -1.5286887038    -0.9566457429    -1.3614316862
   13      H      -1.8184274653    -1.7114326733    -0.5887814082
 ----------------------------------------------------------------
 Nuclear Repulsion Energy =   257.8846639347 hartrees
 There are       25 alpha and       24 beta electrons
 Applying Cartesian multipole field
    Component          Value
    ---------          -----
     (2,0,0)        1.00000E-11
     (0,2,0)        2.00000E-11
     (0,0,2)       -3.00000E-11
 Nucleus-field energy     =    -0.0000000211 hartrees
 Requested basis set is 6-31G(d)
 There are 40 shells and 117 basis functions
 A cutoff of  1.0D-14 yielded    802 shell pairs
 There are      7074 function pairs
 Smallest overlap matrix eigenvalue = 3.14E-03
 Guess MOs from SCF MO coefficient file
 Reading MOs from coefficient file
 Reading MOs from coefficient file
 An unrestricted hybrid HF-DFT SCF calculation will be
 performed using Pulay DIIS extrapolation
 Exchange:     0.2000 Hartree-Fock + 0.0800 Slater + 0.7200 B88
 Correlation:  0.1900 VWN1RPA + 0.8100 LYP
 Using SG-1 standard quadrature grid
 SCF converges when DIIS error is below 1.0E-08
 Geometry optimization detected.  Setting ReadMinima to 0
 Setting SaveMinima to 0
Using Q-Chem read-in guess as SCF_GUESS READ specified.

 using 4 threads for integral computing
 -------------------------------------------------------
 OpenMP Integral computing Module                
 Release: version 1.0, May 2013, Q-Chem Inc. Pittsburgh 
 -------------------------------------------------------
 -------------------------------------------------------
 OpenMP BLAS3 based DFT computing Module                
 Release: version 1.0, May 2013, Q-Chem Inc. Pittsburgh 
 -------------------------------------------------------
 ---------------------------------------
  Cycle       Energy         DIIS Error
 ---------------------------------------
    1    -286.8298314482      3.05E-03
    2    -286.7568504823      1.05E-03
    3    -286.7555225962      1.38E-03
    4    -286.7592531960      3.79E-04
    5    -286.7595261619      6.33E-05
    6    -286.7595496712      3.05E-05
    7    -286.7595616650      1.24E-05
    8    -286.7595696471      6.69E-06
    9    -286.7595756611      5.04E-06
   10    -286.7595801067      2.55E-06
   11    -286.7595823237      1.45E-06
   12    -286.7595832680      8.74E-07
   13    -286.7595838438      3.46E-07
   14    -286.7595840406      1.21E-07
   15    -286.7595840618      5.56E-08
   16    -286.7595840624      2.61E-08
   17    -286.7595840624      5.87E-09 Convergence criterion met
 ---------------------------------------
 <S^2> = 0.7659
 SCF time:  CPU 43.22 s  wall 33.53 s
 SCF   energy in the final basis set = -286.75958406
 Total energy in the final basis set = -286.75958406
 
 --------------------------------------------------------------
 
                    Orbital Energies (a.u.)
 --------------------------------------------------------------
 
 Alpha MOs
 -- Occupied --
-14.334 -10.248 -10.233 -10.227 -10.221 -10.219 -10.212  -0.935
 -0.787  -0.770  -0.664  -0.631  -0.561  -0.526  -0.483  -0.460
 -0.441  -0.437  -0.394  -0.350  -0.335  -0.284  -0.256  -0.230
 -0.202
 -- Virtual --
 -0.043  -0.028   0.041   0.099   0.122   0.126   0.135   0.157
  0.159   0.181   0.211   0.265   0.331   0.353   0.382   0.389
  0.498   0.507   0.525   0.538   0.562   0.567   0.578   0.596
  0.612   0.632   0.652   0.668   0.677   0.717   0.752   0.793
  0.801   0.821   0.841   0.847   0.860   0.872   0.891   0.911
  0.929   0.939   1.003   1.064   1.073   1.120   1.163   1.243
  1.321   1.358   1.445   1.455   1.522   1.572   1.611   1.639
  1.714   1.728   1.770   1.799   1.839   1.852   1.920   1.926
  1.996   2.021   2.075   2.117   2.135   2.201   2.237   2.278
  2.313   2.341   2.389   2.422   2.521   2.538   2.602   2.659
  2.687   2.762   2.829   2.949   3.126   3.929   4.025   4.143
  4.211   4.268   4.419   4.432
 
 Beta MOs
 -- Occupied --
-14.334 -10.248 -10.226 -10.220 -10.219 -10.218 -10.212  -0.934
 -0.781  -0.765  -0.655  -0.619  -0.553  -0.524  -0.476  -0.457
 -0.439  -0.434  -0.387  -0.345  -0.329  -0.282  -0.246  -0.219
 -- Virtual --
 -0.069  -0.039  -0.013   0.044   0.113   0.125   0.127   0.137
  0.159   0.163   0.189   0.218   0.268   0.334   0.357   0.385
  0.394   0.505   0.510   0.530   0.544   0.567   0.580   0.598
  0.605   0.617   0.635   0.656   0.671   0.680   0.725   0.759
  0.796   0.806   0.825   0.842   0.848   0.862   0.876   0.893
  0.916   0.932   0.943   1.007   1.066   1.078   1.123   1.168
  1.246   1.326   1.359   1.449   1.460   1.531   1.580   1.615
  1.665   1.735   1.738   1.783   1.806   1.844   1.855   1.924
  1.942   2.002   2.024   2.084   2.126   2.145   2.230   2.240
  2.281   2.317   2.346   2.394   2.435   2.526   2.550   2.604
  2.661   2.689   2.766   2.833   2.950   3.128   3.930   4.035
  4.145   4.218   4.276   4.420   4.443
 --------------------------------------------------------------
 
          Ground-State Mulliken Net Atomic Charges

     Atom                 Charge (a.u.)    Spin (a.u.)
  --------------------------------------------------------
      1 C                     0.026973       0.016514
      2 C                    -0.163974      -0.030262
      3 C                    -0.211860       0.949552
      4 C                    -0.147807      -0.119807
      5 C                     0.010517       0.006070
      6 N                    -0.330397       0.007541
      7 H                     0.157471       0.006085
      8 H                     0.153476       0.007566
      9 H                     0.170335      -0.040199
     10 H                     0.152608       0.036494
     11 H                     0.163532       0.002472
     12 C                    -0.137278       0.165745
     13 H                     0.156404      -0.007771
  --------------------------------------------------------
  Sum of atomic charges =     0.000000
  Sum of spin   charges =     1.000000

 -----------------------------------------------------------------
                    Cartesian Multipole Moments
 -----------------------------------------------------------------
    Charge (ESU x 10^10)
                 0.0000
    Dipole Moment (Debye)
         X      -0.1610      Y      -0.2525      Z       0.7367
       Tot       0.7952
    Quadrupole Moments (Debye-Ang)
        XX     -38.9333     XY      -2.1952     YY     -42.0934
        XZ      -0.3970     YZ       1.0216     ZZ     -43.6348
    Octopole Moments (Debye-Ang^2)
       XXX      13.8946    XXY       1.5369    XYY      -1.3849
       YYY       1.4021    XXZ      83.2473    XYZ       9.0805
       YYZ      96.1232    XZZ      -2.0766    YZZ      -3.6811
       ZZZ     278.8793
    Hexadecapole Moments (Debye-Ang^3)
      XXXX    -374.1989   XXXY      -8.6552   XXYY    -105.5708
      XYYY     -22.4681   YYYY    -336.0760   XXXZ      24.6416
      XXYZ      -4.5221   XYYZ      21.6333   YYYZ      12.6902
      XXZZ    -264.2151   XYZZ     -30.2559   YYZZ    -295.8557
      XZZZ      80.8795   YZZZ      31.3895   ZZZZ   -1364.4869
 -----------------------------------------------------------------
 Calculating analytic gradient of the SCF energy
 Gradient of SCF Energy
            1           2           3           4           5           6
    1   0.0334770   0.0436655  -0.0006554   0.0178326   0.0109149  -0.0260659
    2  -0.0065701   0.0007759  -0.0067118  -0.0224925   0.0437491  -0.0077772
    3   0.0000781   0.0043774  -0.0271398  -0.0154071  -0.0185014   0.0254599
            7           8           9          10          11          12
    1  -0.0123573   0.0030332   0.0060405   0.0161497  -0.0012069  -0.0852673
    2   0.0154015  -0.0064897   0.0033131   0.0001814  -0.0036211   0.0113154
    3  -0.0108241  -0.0020837   0.0042719   0.0050156  -0.0162495   0.0415289
           13
    1  -0.0055604
    2  -0.0210740
    3   0.0094738
 Max gradient component =       8.527E-02
 RMS gradient           =       2.241E-02
 Gradient time:  CPU 7.66 s  wall 5.59 s
 Geometry Optimization Parameters
   NAtoms,    NIC,     NZ,  NCons,   NDum,   NFix, NCnnct, MaxDiis
       13      82       0       0       0       0       0       0

 Cartesian Hessian Update
 Hessian Updated using BFGS Update


** GEOMETRY OPTIMIZATION IN DELOCALIZED INTERNAL COORDINATES **
   Searching for a Minimum

   Optimization Cycle:   3

                       Coordinates (Angstroms)
     ATOM                X               Y               Z
      1  C         1.6022761350    0.3305850983   -2.5503577178
      2  C         1.2722156653   -0.9863287408   -2.3983741431
      3  C        -0.3022584120   -1.3591407544   -2.5333347676
      4  C        -1.1154386014    0.3334531804   -1.2683104889
      5  C        -0.6197300652    1.2750301828   -2.4141550959
      6  N         0.5889593111    1.2896981668   -2.7722915457
      7  H         2.5345846672    0.8213647414   -2.8091815290
      8  H         1.9917093877   -1.8116163066   -2.4561274392
      9  H        -0.5972303850   -1.0593612152   -3.5371919126
     10  H        -1.0199595211    0.8577447089   -0.2935540163
     11  H        -1.3347961667    1.8472694346   -3.0328595530
     12  C        -1.5286887038   -0.9566457429   -1.3614316862
     13  H        -1.8184274653   -1.7114326733   -0.5887814082
   Point Group: c1    Number of degrees of freedom:    33


   Energy is   -286.759584062

 Hessian Updated using BFGS Update

 33 Hessian modes will be used to form the next step
  Hessian Eigenvalues:
     0.005356    0.007954    0.013354    0.015374    0.015749    0.021503
     0.022701    0.025333    0.030355    0.045641    0.077628    0.085292
     0.127217    0.136384    0.153372    0.155298    0.156620    0.160487
     0.164674    0.199217    0.214029    0.220737    0.230697    0.290265
     0.313269    0.315563    0.335850    0.356200    0.360694    0.400740
     0.450311    0.547320    0.796527

 Minimum Search - Taking Simple RFO Step
 Searching for Lamda that Minimizes Along All modes
 Value Taken    Lamda =  -0.09923047
 Calculated Step too Large.  Step scaled by  0.367409
 Step Taken.  Stepsize is  0.300000

                             Maximum     Tolerance    Cnvgd?
         Gradient           0.064890      0.000600      NO
         Displacement       0.158172      0.002400      NO
         Energy change     -0.041381      0.000002      NO


 New Cartesian Coordinates Obtained by Inverse Iteration

 Displacement from previous Coordinates is:  0.443941
 ----------------------------------------------------------------
             Standard Nuclear Orientation (Angstroms)
    I     Atom           X                Y                Z
 ----------------------------------------------------------------
    1      C       1.5611047753     0.3267708445    -2.5332725432
    2      C       1.2076856290    -0.9811538390    -2.3991659774
    3      C      -0.3042955085    -1.3627585047    -2.5546797323
    4      C      -1.0949104367     0.3551150374    -1.2716245645
    5      C      -0.6217017134     1.2752687212    -2.4061262527
    6      N       0.5903452686     1.3155399833    -2.7806270658
    7      H       2.5346342808     0.7563865104    -2.7489920795
    8      H       1.9338608157    -1.7970660133    -2.4327606108
    9      H      -0.6222564320    -1.0947857883    -3.5641233088
   10      H      -1.0567610552     0.8734293299    -0.2949788017
   11      H      -1.3544662586     1.8293175929    -3.0113935932
   12      C      -1.4253825210    -0.9462523864    -1.3994025455
   13      H      -1.6946409985    -1.6791914077    -0.6188042279
 ----------------------------------------------------------------
 Nuclear Repulsion Energy =   260.9209217491 hartrees
 There are       25 alpha and       24 beta electrons
 Applying Cartesian multipole field
    Component          Value
    ---------          -----
     (2,0,0)        1.00000E-11
     (0,2,0)        2.00000E-11
     (0,0,2)       -3.00000E-11
 Nucleus-field energy     =    -0.0000000213 hartrees
 Requested basis set is 6-31G(d)
 There are 40 shells and 117 basis functions
 A cutoff of  1.0D-14 yielded    803 shell pairs
 There are      7075 function pairs
 Smallest overlap matrix eigenvalue = 3.09E-03
 Guess MOs from SCF MO coefficient file
 Reading MOs from coefficient file
 Reading MOs from coefficient file
 An unrestricted hybrid HF-DFT SCF calculation will be
 performed using Pulay DIIS extrapolation
 Exchange:     0.2000 Hartree-Fock + 0.0800 Slater + 0.7200 B88
 Correlation:  0.1900 VWN1RPA + 0.8100 LYP
 Using SG-1 standard quadrature grid
 SCF converges when DIIS error is below 1.0E-08
 Geometry optimization detected.  Setting ReadMinima to 0
 Setting SaveMinima to 0
Using Q-Chem read-in guess as SCF_GUESS READ specified.

 using 4 threads for integral computing
 -------------------------------------------------------
 OpenMP Integral computing Module                
 Release: version 1.0, May 2013, Q-Chem Inc. Pittsburgh 
 -------------------------------------------------------
 -------------------------------------------------------
 OpenMP BLAS3 based DFT computing Module                
 Release: version 1.0, May 2013, Q-Chem Inc. Pittsburgh 
 -------------------------------------------------------
 ---------------------------------------
  Cycle       Energy         DIIS Error
 ---------------------------------------
    1    -286.8522423756      3.04E-03
    2    -286.7903090040      9.90E-04
    3    -286.7887008332      1.38E-03
    4    -286.7923865571      3.64E-04
    5    -286.7926334820      5.08E-05
    6    -286.7926508370      2.19E-05
    7    -286.7926588913      1.02E-05
    8    -286.7926641887      5.72E-06
    9    -286.7926673937      3.14E-06
   10    -286.7926704087      1.54E-06
   11    -286.7926719738      7.67E-07
   12    -286.7926729104      4.05E-07
   13    -286.7926732158      2.71E-07
   14    -286.7926733031      1.30E-07
   15    -286.7926733098      4.57E-08
   16    -286.7926733103      1.36E-08
   17    -286.7926733103      3.02E-09 Convergence criterion met
 ---------------------------------------
 <S^2> = 0.7567
 SCF time:  CPU 43.16 s  wall 36.08 s
 SCF   energy in the final basis set = -286.79267331
 Total energy in the final basis set = -286.79267331
 
 --------------------------------------------------------------
 
                    Orbital Energies (a.u.)
 --------------------------------------------------------------
 
 Alpha MOs
 -- Occupied --
-14.335 -10.244 -10.226 -10.222 -10.215 -10.214 -10.205  -0.936
 -0.796  -0.771  -0.665  -0.638  -0.559  -0.526  -0.487  -0.459
 -0.442  -0.441  -0.400  -0.354  -0.337  -0.285  -0.257  -0.229
 -0.208
 -- Virtual --
 -0.041  -0.025   0.044   0.117   0.127   0.134   0.140   0.162
  0.165   0.195   0.225   0.280   0.344   0.357   0.390   0.400
  0.501   0.510   0.527   0.542   0.565   0.569   0.583   0.601
  0.614   0.629   0.644   0.673   0.676   0.715   0.760   0.785
  0.808   0.826   0.842   0.851   0.862   0.874   0.892   0.909
  0.920   0.930   1.005   1.058   1.078   1.142   1.189   1.248
  1.320   1.352   1.435   1.451   1.534   1.608   1.627   1.650
  1.721   1.735   1.807   1.822   1.839   1.856   1.932   1.946
  2.014   2.017   2.112   2.123   2.180   2.223   2.253   2.288
  2.332   2.355   2.426   2.465   2.531   2.558   2.598   2.676
  2.707   2.784   2.855   2.949   3.128   3.938   4.044   4.157
  4.217   4.288   4.428   4.451
 
 Beta MOs
 -- Occupied --
-14.335 -10.244 -10.222 -10.214 -10.213 -10.212 -10.205  -0.935
 -0.788  -0.767  -0.656  -0.628  -0.552  -0.525  -0.478  -0.456
 -0.439  -0.437  -0.393  -0.347  -0.333  -0.284  -0.249  -0.220
 -- Virtual --
 -0.068  -0.037  -0.014   0.046   0.125   0.128   0.139   0.145
  0.164   0.169   0.204   0.232   0.285   0.346   0.362   0.394
  0.405   0.507   0.514   0.534   0.547   0.570   0.579   0.603
  0.610   0.618   0.633   0.648   0.677   0.678   0.722   0.768
  0.789   0.812   0.830   0.843   0.853   0.864   0.878   0.895
  0.915   0.924   0.936   1.008   1.063   1.079   1.145   1.194
  1.253   1.328   1.354   1.442   1.454   1.540   1.616   1.631
  1.670   1.735   1.757   1.815   1.832   1.842   1.867   1.934
  1.961   2.017   2.025   2.121   2.130   2.199   2.238   2.257
  2.295   2.337   2.361   2.430   2.474   2.536   2.569   2.602
  2.678   2.710   2.789   2.860   2.950   3.131   3.939   4.053
  4.158   4.224   4.294   4.431   4.464
 --------------------------------------------------------------
 
          Ground-State Mulliken Net Atomic Charges

     Atom                 Charge (a.u.)    Spin (a.u.)
  --------------------------------------------------------
      1 C                     0.021982       0.020081
      2 C                    -0.153668      -0.039370
      3 C                    -0.204823       0.992358
      4 C                    -0.149942      -0.057992
      5 C                     0.012799      -0.001553
      6 N                    -0.335814       0.010343
      7 H                     0.152448       0.005531
      8 H                     0.150350       0.011599
      9 H                     0.164733      -0.041797
     10 H                     0.155082       0.028760
     11 H                     0.161927       0.001562
     12 C                    -0.127273       0.073452
     13 H                     0.152198      -0.002973
  --------------------------------------------------------
  Sum of atomic charges =     0.000000
  Sum of spin   charges =     1.000000

 -----------------------------------------------------------------
                    Cartesian Multipole Moments
 -----------------------------------------------------------------
    Charge (ESU x 10^10)
                -0.0000
    Dipole Moment (Debye)
         X      -0.3216      Y      -0.4295      Z       0.8173
       Tot       0.9777
    Quadrupole Moments (Debye-Ang)
        XX     -38.9629     XY      -2.2369     YY     -42.0724
        XZ       0.2969     YZ       1.6732     ZZ     -44.0240
    Octopole Moments (Debye-Ang^2)
       XXX      12.8632    XXY       1.4089    XYY      -2.0397
       YYY      -0.4160    XXZ      83.4600    XYZ       8.6714
       YYZ      96.6863    XZZ      -4.4099    YZZ      -5.8979
       ZZZ     281.2370
    Hexadecapole Moments (Debye-Ang^3)
      XXXX    -351.4025   XXXY      -7.5642   XXYY    -103.8022
      XYYY     -20.8025   YYYY    -337.0888   XXXZ      24.9333
      XXYZ      -3.2039   XYYZ      22.8267   YYYZ      15.6775
      XXZZ    -261.7986   XYZZ     -28.7835   YYZZ    -298.7962
      XZZZ      83.7569   YZZZ      37.3851   ZZZZ   -1374.2717
 -----------------------------------------------------------------
 Calculating analytic gradient of the SCF energy
 Gradient of SCF Energy
            1           2           3           4           5           6
    1   0.0218518   0.0308495   0.0086115   0.0186246   0.0023648  -0.0153999
    2  -0.0085769   0.0044932  -0.0105440  -0.0210377   0.0337538  -0.0026692
    3   0.0008458   0.0054618  -0.0222395  -0.0136623  -0.0140572   0.0225269
            7           8           9          10          11          12
    1  -0.0085971   0.0001002   0.0044445   0.0167240  -0.0008434  -0.0780263
    2   0.0124637  -0.0045800   0.0057063   0.0003556  -0.0070731   0.0111299
    3  -0.0104041  -0.0016252   0.0035412   0.0044184  -0.0138059   0.0341093
           13
    1  -0.0007043
    2  -0.0134216
    3   0.0048909
 Max gradient component =       7.803E-02
 RMS gradient           =       1.885E-02
 Gradient time:  CPU 7.65 s  wall 4.21 s
 Geometry Optimization Parameters
   NAtoms,    NIC,     NZ,  NCons,   NDum,   NFix, NCnnct, MaxDiis
       13      82       0       0       0       0       0       0

 Cartesian Hessian Update
 Hessian Updated using BFGS Update


** GEOMETRY OPTIMIZATION IN DELOCALIZED INTERNAL COORDINATES **
   Searching for a Minimum

   Optimization Cycle:   4

                       Coordinates (Angstroms)
     ATOM                X               Y               Z
      1  C         1.5611047753    0.3267708445   -2.5332725432
      2  C         1.2076856290   -0.9811538390   -2.3991659774
      3  C        -0.3042955085   -1.3627585047   -2.5546797323
      4  C        -1.0949104367    0.3551150374   -1.2716245645
      5  C        -0.6217017134    1.2752687212   -2.4061262527
      6  N         0.5903452686    1.3155399833   -2.7806270658
      7  H         2.5346342808    0.7563865104   -2.7489920795
      8  H         1.9338608157   -1.7970660133   -2.4327606108
      9  H        -0.6222564320   -1.0947857883   -3.5641233088
     10  H        -1.0567610552    0.8734293299   -0.2949788017
     11  H        -1.3544662586    1.8293175929   -3.0113935932
     12  C        -1.4253825210   -0.9462523864   -1.3994025455
     13  H        -1.6946409985   -1.6791914077   -0.6188042279
   Point Group: c1    Number of degrees of freedom:    33


   Energy is   -286.792673310

 Hessian Updated using BFGS Update

 33 Hessian modes will be used to form the next step
  Hessian Eigenvalues:
     0.005362    0.008370    0.013354    0.015561    0.016079    0.021968
     0.022901    0.025610    0.031941    0.045834    0.081111    0.095768
     0.128045    0.136626    0.153014    0.155429    0.159338    0.161436
     0.171224    0.199432    0.215245    0.221064    0.234462    0.294384
     0.313509    0.315760    0.339138    0.356206    0.360758    0.402732
     0.450638    0.563398    0.794602

 Minimum Search - Taking Simple RFO Step
 Searching for Lamda that Minimizes Along All modes
 Value Taken    Lamda =  -0.06873943
 Calculated Step too Large.  Step scaled by  0.396139
 Step Taken.  Stepsize is  0.300000

                             Maximum     Tolerance    Cnvgd?
         Gradient           0.050106      0.000600      NO
         Displacement       0.155421      0.002400      NO
         Energy change     -0.033089      0.000002      NO


 New Cartesian Coordinates Obtained by Inverse Iteration

 Displacement from previous Coordinates is:  0.392417
 ----------------------------------------------------------------
             Standard Nuclear Orientation (Angstroms)
    I     Atom           X                Y                Z
 ----------------------------------------------------------------
    1      C       1.5308064811     0.3217785224    -2.5256899328
    2      C       1.1624602710    -0.9794257886    -2.4089670093
    3      C      -0.3067364335    -1.3675810932    -2.5695414671
    4      C      -1.0888588215     0.3759664254    -1.2738171448
    5      C      -0.6213525007     1.2801833662    -2.3972961670
    6      N       0.5932131856     1.3343952716    -2.7872174927
    7      H       2.5354025821     0.6978615792    -2.6977913685
    8      H       1.8983144789    -1.7841652264    -2.4203443980
    9      H      -0.6514951166    -1.1425287988    -3.5837477159
   10      H      -1.1174129806     0.8838172639    -0.2968964119
   11      H      -1.3632145383     1.8335450594    -2.9853906003
   12      C      -1.3299705260    -0.9368409531    -1.4309906742
   13      H      -1.5879402358    -1.6463855482    -0.6382609209
 ----------------------------------------------------------------
 Nuclear Repulsion Energy =   263.1935304487 hartrees
 There are       25 alpha and       24 beta electrons
 Applying Cartesian multipole field
    Component          Value
    ---------          -----
     (2,0,0)        1.00000E-11
     (0,2,0)        2.00000E-11
     (0,0,2)       -3.00000E-11
 Nucleus-field energy     =    -0.0000000214 hartrees
 Requested basis set is 6-31G(d)
 There are 40 shells and 117 basis functions
 A cutoff of  1.0D-14 yielded    803 shell pairs
 There are      7075 function pairs
 Smallest overlap matrix eigenvalue = 3.00E-03
 Guess MOs from SCF MO coefficient file
 Reading MOs from coefficient file
 Reading MOs from coefficient file
 An unrestricted hybrid HF-DFT SCF calculation will be
 performed using Pulay DIIS extrapolation
 Exchange:     0.2000 Hartree-Fock + 0.0800 Slater + 0.7200 B88
 Correlation:  0.1900 VWN1RPA + 0.8100 LYP
 Using SG-1 standard quadrature grid
 SCF converges when DIIS error is below 1.0E-08
 Geometry optimization detected.  Setting ReadMinima to 0
 Setting SaveMinima to 0
Using Q-Chem read-in guess as SCF_GUESS READ specified.

 using 4 threads for integral computing
 -------------------------------------------------------
 OpenMP Integral computing Module                
 Release: version 1.0, May 2013, Q-Chem Inc. Pittsburgh 
 -------------------------------------------------------
 -------------------------------------------------------
 OpenMP BLAS3 based DFT computing Module                
 Release: version 1.0, May 2013, Q-Chem Inc. Pittsburgh 
 -------------------------------------------------------
 ---------------------------------------
  Cycle       Energy         DIIS Error
 ---------------------------------------
    1    -286.8638179615      2.81E-03
    2    -286.8149882675      8.40E-04
    3    -286.8135194249      1.24E-03
    4    -286.8164706404      3.05E-04
    5    -286.8166424375      4.09E-05
    6    -286.8166518075      1.86E-05
    7    -286.8166554181      9.84E-06
    8    -286.8166577726      3.47E-06
    9    -286.8166589904      1.77E-06
   10    -286.8166599377      1.11E-06
   11    -286.8166604163      5.76E-07
   12    -286.8166607488      3.08E-07
   13    -286.8166609669      1.64E-07
   14    -286.8166610537      6.20E-08
   15    -286.8166610584      2.32E-08
   16    -286.8166610585      7.72E-09 Convergence criterion met
 ---------------------------------------
 <S^2> = 0.7539
 SCF time:  CPU 40.74 s  wall 33.62 s
 SCF   energy in the final basis set = -286.81666106
 Total energy in the final basis set = -286.81666106
 
 --------------------------------------------------------------
 
                    Orbital Energies (a.u.)
 --------------------------------------------------------------
 
 Alpha MOs
 -- Occupied --
-14.336 -10.242 -10.221 -10.219 -10.210 -10.208 -10.200  -0.936
 -0.804  -0.772  -0.666  -0.644  -0.558  -0.527  -0.491  -0.457
 -0.445  -0.443  -0.404  -0.361  -0.336  -0.286  -0.258  -0.227
 -0.214
 -- Virtual --
 -0.040  -0.021   0.047   0.121   0.128   0.140   0.145   0.166
  0.174   0.211   0.237   0.293   0.353   0.361   0.394   0.412
  0.502   0.517   0.529   0.544   0.563   0.572   0.587   0.605
  0.617   0.631   0.639   0.672   0.684   0.714   0.763   0.776
  0.816   0.833   0.843   0.855   0.864   0.873   0.892   0.906
  0.911   0.924   1.009   1.051   1.088   1.159   1.214   1.260
  1.318   1.347   1.428   1.447   1.540   1.604   1.667   1.676
  1.717   1.743   1.820   1.825   1.846   1.892   1.941   1.960
  2.012   2.034   2.098   2.157   2.192   2.253   2.261   2.307
  2.353   2.370   2.455   2.496   2.538   2.575   2.592   2.690
  2.729   2.799   2.882   2.951   3.133   3.944   4.069   4.164
  4.219   4.297   4.437   4.466
 
 Beta MOs
 -- Occupied --
-14.336 -10.242 -10.219 -10.209 -10.208 -10.206 -10.200  -0.934
 -0.795  -0.768  -0.656  -0.636  -0.550  -0.525  -0.481  -0.454
 -0.441  -0.440  -0.398  -0.354  -0.334  -0.285  -0.253  -0.220
 -- Virtual --
 -0.067  -0.036  -0.014   0.049   0.127   0.130   0.143   0.153
  0.167   0.177   0.220   0.244   0.300   0.355   0.368   0.398
  0.417   0.507   0.522   0.539   0.550   0.573   0.578   0.607
  0.613   0.621   0.635   0.644   0.675   0.688   0.720   0.768
  0.782   0.820   0.837   0.844   0.857   0.866   0.877   0.895
  0.913   0.915   0.931   1.011   1.054   1.090   1.161   1.218
  1.268   1.326   1.349   1.435   1.448   1.544   1.613   1.673
  1.690   1.729   1.766   1.823   1.832   1.855   1.912   1.944
  1.973   2.016   2.043   2.106   2.163   2.214   2.257   2.270
  2.314   2.362   2.376   2.460   2.501   2.541   2.581   2.603
  2.692   2.732   2.804   2.888   2.952   3.135   3.945   4.077
  4.165   4.228   4.301   4.441   4.479
 --------------------------------------------------------------
 
          Ground-State Mulliken Net Atomic Charges

     Atom                 Charge (a.u.)    Spin (a.u.)
  --------------------------------------------------------
      1 C                     0.020975       0.024072
      2 C                    -0.148568      -0.047607
      3 C                    -0.197826       1.015403
      4 C                    -0.151862      -0.015838
      5 C                     0.014077      -0.004114
      6 N                    -0.340617       0.010263
      7 H                     0.148491       0.005014
      8 H                     0.147898       0.015453
      9 H                     0.160869      -0.042798
     10 H                     0.156519       0.022685
     11 H                     0.159364       0.000941
     12 C                    -0.118216       0.012996
     13 H                     0.148897       0.003528
  --------------------------------------------------------
  Sum of atomic charges =     0.000000
  Sum of spin   charges =     1.000000

 -----------------------------------------------------------------
                    Cartesian Multipole Moments
 -----------------------------------------------------------------
    Charge (ESU x 10^10)
                 0.0000
    Dipole Moment (Debye)
         X      -0.4491      Y      -0.5801      Z       0.8754
       Tot       1.1421
    Quadrupole Moments (Debye-Ang)
        XX     -38.9251     XY      -2.2845     YY     -42.0366
        XZ       0.7925     YZ       2.2423     ZZ     -44.2875
    Octopole Moments (Debye-Ang^2)
       XXX      11.9154    XXY       1.2046    XYY      -2.6119
       YYY      -1.7384    XXZ      83.7223    XYZ       8.2986
       YYZ      97.0290    XZZ      -6.2141    YZZ      -7.8911
       ZZZ     283.0753
    Hexadecapole Moments (Debye-Ang^3)
      XXXX    -334.4867   XXXY      -6.2812   XXYY    -102.6771
      XYYY     -19.0182   YYYY    -338.8562   XXXZ      25.7167
      XXYZ      -1.9200   XYYZ      24.0166   YYYZ      17.6238
      XXZZ    -260.5839   XYZZ     -27.0817   YYZZ    -300.8594
      XZZZ      86.9131   YZZZ      42.8284   ZZZZ   -1382.9458
 -----------------------------------------------------------------
 Calculating analytic gradient of the SCF energy
 Gradient of SCF Energy
            1           2           3           4           5           6
    1   0.0130720   0.0176937   0.0124830   0.0167160  -0.0032316  -0.0067847
    2  -0.0094845   0.0064698  -0.0114351  -0.0163974   0.0231147   0.0024617
    3   0.0005929   0.0061682  -0.0138235  -0.0093010  -0.0101272   0.0193742
            7           8           9          10          11          12
    1  -0.0054986  -0.0015644   0.0027156   0.0163751  -0.0007508  -0.0636948
    2   0.0091157  -0.0029183   0.0073109   0.0005054  -0.0096026   0.0076856
    3  -0.0093272  -0.0011423   0.0025144   0.0039468  -0.0117311   0.0210810
           13
    1   0.0024696
    2  -0.0068258
    3   0.0017749
 Max gradient component =       6.369E-02
 RMS gradient           =       1.455E-02
 Gradient time:  CPU 7.71 s  wall 3.63 s
 Geometry Optimization Parameters
   NAtoms,    NIC,     NZ,  NCons,   NDum,   NFix, NCnnct, MaxDiis
       13      82       0       0       0       0       0       0

 Cartesian Hessian Update
 Hessian Updated using BFGS Update


** GEOMETRY OPTIMIZATION IN DELOCALIZED INTERNAL COORDINATES **
   Searching for a Minimum

   Optimization Cycle:   5

                       Coordinates (Angstroms)
     ATOM                X               Y               Z
      1  C         1.5308064811    0.3217785224   -2.5256899328
      2  C         1.1624602710   -0.9794257886   -2.4089670093
      3  C        -0.3067364335   -1.3675810932   -2.5695414671
      4  C        -1.0888588215    0.3759664254   -1.2738171448
      5  C        -0.6213525007    1.2801833662   -2.3972961670
      6  N         0.5932131856    1.3343952716   -2.7872174927
      7  H         2.5354025821    0.6978615792   -2.6977913685
      8  H         1.8983144789   -1.7841652264   -2.4203443980
      9  H        -0.6514951166   -1.1425287988   -3.5837477159
     10  H        -1.1174129806    0.8838172639   -0.2968964119
     11  H        -1.3632145383    1.8335450594   -2.9853906003
     12  C        -1.3299705260   -0.9368409531   -1.4309906742
     13  H        -1.5879402358   -1.6463855482   -0.6382609209
   Point Group: c1    Number of degrees of freedom:    33


   Energy is   -286.816661059

 Hessian Updated using BFGS Update

 33 Hessian modes will be used to form the next step
  Hessian Eigenvalues:
     0.005365    0.008654    0.013348    0.015605    0.016303    0.022087
     0.023142    0.025757    0.033291    0.045880    0.081706    0.113183
     0.125168    0.136497    0.152809    0.155477    0.159626    0.162146
     0.180780    0.198992    0.216329    0.221581    0.238427    0.298359
     0.313682    0.316222    0.343441    0.356209    0.361096    0.404088
     0.450678    0.578605    0.794016

 Minimum Search - Taking Simple RFO Step
 Searching for Lamda that Minimizes Along All modes
 Value Taken    Lamda =  -0.04411948
 Calculated Step too Large.  Step scaled by  0.408127
 Step Taken.  Stepsize is  0.300000

                             Maximum     Tolerance    Cnvgd?
         Gradient           0.034570      0.000600      NO
         Displacement       0.142946      0.002400      NO
         Energy change     -0.023988      0.000002      NO


 New Cartesian Coordinates Obtained by Inverse Iteration

 Displacement from previous Coordinates is:  0.345474
 ----------------------------------------------------------------
             Standard Nuclear Orientation (Angstroms)
    I     Atom           X                Y                Z
 ----------------------------------------------------------------
    1      C       1.5119607437     0.3148176677    -2.5295830694
    2      C       1.1413232411    -0.9832490035    -2.4290064499
    3      C      -0.3026527182    -1.3771872375    -2.5789635690
    4      C      -1.0980687538     0.3938861654    -1.2770837491
    5      C      -0.6201391930     1.2899397347    -2.3870253353
    6      N       0.5954895260     1.3439024183    -2.7917799589
    7      H       2.5367242926     0.6523852507    -2.6609782966
    8      H       1.8878869513    -1.7759982092    -2.4218909809
    9      H      -0.6748151231    -1.2063275811    -3.5960660499
   10      H      -1.1991617676     0.8907655904    -0.3041484773
   11      H      -1.3609062737     1.8689450346    -2.9469206895
   12      C      -1.2533862399    -0.9280262214    -1.4493425462
   13      H      -1.5110388396    -1.6132335292    -0.6431621315
 ----------------------------------------------------------------
 Nuclear Repulsion Energy =   264.3871790988 hartrees
 There are       25 alpha and       24 beta electrons
 Applying Cartesian multipole field
    Component          Value
    ---------          -----
     (2,0,0)        1.00000E-11
     (0,2,0)        2.00000E-11
     (0,0,2)       -3.00000E-11
 Nucleus-field energy     =    -0.0000000215 hartrees
 Requested basis set is 6-31G(d)
 There are 40 shells and 117 basis functions
 A cutoff of  1.0D-14 yielded    805 shell pairs
 There are      7077 function pairs
 Smallest overlap matrix eigenvalue = 2.75E-03
 Guess MOs from SCF MO coefficient file
 Reading MOs from coefficient file
 Reading MOs from coefficient file
 An unrestricted hybrid HF-DFT SCF calculation will be
 performed using Pulay DIIS extrapolation
 Exchange:     0.2000 Hartree-Fock + 0.0800 Slater + 0.7200 B88
 Correlation:  0.1900 VWN1RPA + 0.8100 LYP
 Using SG-1 standard quadrature grid
 SCF converges when DIIS error is below 1.0E-08
 Geometry optimization detected.  Setting ReadMinima to 0
 Setting SaveMinima to 0
Using Q-Chem read-in guess as SCF_GUESS READ specified.

 using 4 threads for integral computing
 -------------------------------------------------------
 OpenMP Integral computing Module                
 Release: version 1.0, May 2013, Q-Chem Inc. Pittsburgh 
 -------------------------------------------------------
 -------------------------------------------------------
 OpenMP BLAS3 based DFT computing Module                
 Release: version 1.0, May 2013, Q-Chem Inc. Pittsburgh 
 -------------------------------------------------------
 ---------------------------------------
  Cycle       Energy         DIIS Error
 ---------------------------------------
    1    -286.8633637749      2.23E-03
    2    -286.8317604031      5.72E-04
    3    -286.8310412681      8.70E-04
    4    -286.8324826371      2.11E-04
    5    -286.8325654887      3.01E-05
    6    -286.8325703985      1.48E-05
    7    -286.8325718900      8.03E-06
    8    -286.8325727205      1.91E-06
    9    -286.8325730819      1.03E-06
   10    -286.8325733125      4.34E-07
   11    -286.8325734200      2.42E-07
   12    -286.8325734854      1.62E-07
   13    -286.8325735324      8.44E-08
   14    -286.8325735652      3.15E-08
   15    -286.8325735686      9.32E-09 Convergence criterion met
 ---------------------------------------
 <S^2> = 0.7533
 SCF time:  CPU 38.11 s  wall 23.90 s
 SCF   energy in the final basis set = -286.83257357
 Total energy in the final basis set = -286.83257357
 
 --------------------------------------------------------------
 
                    Orbital Energies (a.u.)
 --------------------------------------------------------------
 
 Alpha MOs
 -- Occupied --
-14.336 -10.240 -10.217 -10.217 -10.207 -10.205 -10.196  -0.935
 -0.809  -0.774  -0.668  -0.647  -0.557  -0.526  -0.493  -0.455
 -0.449  -0.444  -0.406  -0.366  -0.335  -0.286  -0.260  -0.225
 -0.219
 -- Virtual --
 -0.038  -0.016   0.050   0.122   0.129   0.142   0.148   0.168
  0.180   0.222   0.245   0.303   0.358   0.366   0.395   0.422
  0.504   0.522   0.532   0.546   0.558   0.577   0.587   0.608
  0.618   0.635   0.642   0.670   0.695   0.714   0.748   0.778
  0.824   0.840   0.845   0.859   0.866   0.873   0.893   0.900
  0.910   0.920   1.014   1.048   1.095   1.173   1.231   1.260
  1.330   1.343   1.423   1.443   1.541   1.599   1.682   1.695
  1.718   1.749   1.807   1.828   1.855   1.929   1.945   1.970
  2.013   2.044   2.082   2.179   2.192   2.257   2.269   2.326
  2.368   2.388   2.475   2.510   2.543   2.579   2.597   2.704
  2.745   2.806   2.906   2.956   3.141   3.949   4.088   4.167
  4.215   4.297   4.444   4.475
 
 Beta MOs
 -- Occupied --
-14.336 -10.240 -10.217 -10.207 -10.204 -10.203 -10.197  -0.934
 -0.799  -0.770  -0.656  -0.641  -0.550  -0.524  -0.484  -0.452
 -0.443  -0.441  -0.401  -0.359  -0.333  -0.285  -0.256  -0.221
 -- Virtual --
 -0.067  -0.035  -0.012   0.052   0.128   0.131   0.145   0.155
  0.170   0.182   0.231   0.252   0.311   0.360   0.373   0.400
  0.427   0.507   0.525   0.543   0.552   0.573   0.579   0.610
  0.615   0.622   0.638   0.648   0.673   0.699   0.720   0.752
  0.785   0.827   0.844   0.846   0.860   0.868   0.876   0.896
  0.905   0.915   0.929   1.015   1.051   1.098   1.175   1.234
  1.271   1.338   1.345   1.429   1.444   1.544   1.607   1.698
  1.701   1.727   1.771   1.811   1.835   1.865   1.948   1.954
  1.980   2.018   2.053   2.090   2.184   2.211   2.262   2.279
  2.331   2.382   2.390   2.480   2.515   2.545   2.583   2.610
  2.707   2.749   2.811   2.912   2.958   3.144   3.949   4.094
  4.168   4.227   4.300   4.449   4.487
 --------------------------------------------------------------
 
          Ground-State Mulliken Net Atomic Charges

     Atom                 Charge (a.u.)    Spin (a.u.)
  --------------------------------------------------------
      1 C                     0.022702       0.028936
      2 C                    -0.146939      -0.055552
      3 C                    -0.192683       1.026209
      4 C                    -0.151204       0.007710
      5 C                     0.015220      -0.002383
      6 N                    -0.345029       0.007559
      7 H                     0.145816       0.004643
      8 H                     0.146444       0.018668
      9 H                     0.158919      -0.043158
     10 H                     0.156476       0.018377
     11 H                     0.156330       0.000425
     12 C                    -0.113354      -0.021900
     13 H                     0.147301       0.010467
  --------------------------------------------------------
  Sum of atomic charges =     0.000000
  Sum of spin   charges =     1.000000

 -----------------------------------------------------------------
                    Cartesian Multipole Moments
 -----------------------------------------------------------------
    Charge (ESU x 10^10)
                 0.0000
    Dipole Moment (Debye)
         X      -0.5358      Y      -0.6877      Z       0.9186
       Tot       1.2664
    Quadrupole Moments (Debye-Ang)
        XX     -38.8243     XY      -2.3575     YY     -41.9755
        XZ       1.0483     YZ       2.6667     ZZ     -44.4742
    Octopole Moments (Debye-Ang^2)
       XXX      11.0703    XXY       1.0347    XYY      -3.1149
       YYY      -2.3385    XXZ      84.0567    XYZ       8.0618
       YYZ      97.1170    XZZ      -7.2867    YZZ      -9.4721
       ZZZ     284.5375
    Hexadecapole Moments (Debye-Ang^3)
      XXXX    -324.3857   XXXY      -4.6238   XXYY    -102.2733
      XYYY     -17.1069   YYYY    -341.6883   XXXZ      27.3004
      XXYZ      -0.9980   XYYZ      25.3478   YYYZ      17.9044
      XXZZ    -260.8314   XYZZ     -25.3535   YYZZ    -302.0214
      XZZZ      89.9547   YZZZ      47.0547   ZZZZ   -1390.9562
 -----------------------------------------------------------------
 Calculating analytic gradient of the SCF energy
 Gradient of SCF Energy
            1           2           3           4           5           6
    1   0.0071638   0.0090418   0.0128577   0.0121485  -0.0054548  -0.0012153
    2  -0.0099447   0.0072593  -0.0102615  -0.0113410   0.0146508   0.0061105
    3  -0.0003656   0.0055375  -0.0055701  -0.0037164  -0.0081362   0.0166367
            7           8           9          10          11          12
    1  -0.0032440  -0.0023550   0.0015484   0.0154518  -0.0011112  -0.0487746
    2   0.0058790  -0.0015423   0.0081552   0.0004407  -0.0107412   0.0028350
    3  -0.0076721  -0.0005778   0.0011757   0.0036057  -0.0099094   0.0089384
           13
    1   0.0039430
    2  -0.0014996
    3   0.0000535
 Max gradient component =       4.877E-02
 RMS gradient           =       1.094E-02
 Gradient time:  CPU 7.78 s  wall 4.90 s
 Geometry Optimization Parameters
   NAtoms,    NIC,     NZ,  NCons,   NDum,   NFix, NCnnct, MaxDiis
       13      82       0       0       0       0       0       0

 Cartesian Hessian Update
 Hessian Updated using BFGS Update


** GEOMETRY OPTIMIZATION IN DELOCALIZED INTERNAL COORDINATES **
   Searching for a Minimum

   Optimization Cycle:   6

                       Coordinates (Angstroms)
     ATOM                X               Y               Z
      1  C         1.5119607437    0.3148176677   -2.5295830694
      2  C         1.1413232411   -0.9832490035   -2.4290064499
      3  C        -0.3026527182   -1.3771872375   -2.5789635690
      4  C        -1.0980687538    0.3938861654   -1.2770837491
      5  C        -0.6201391930    1.2899397347   -2.3870253353
      6  N         0.5954895260    1.3439024183   -2.7917799589
      7  H         2.5367242926    0.6523852507   -2.6609782966
      8  H         1.8878869513   -1.7759982092   -2.4218909809
      9  H        -0.6748151231   -1.2063275811   -3.5960660499
     10  H        -1.1991617676    0.8907655904   -0.3041484773
     11  H        -1.3609062737    1.8689450346   -2.9469206895
     12  C        -1.2533862399   -0.9280262214   -1.4493425462
     13  H        -1.5110388396   -1.6132335292   -0.6431621315
   Point Group: c1    Number of degrees of freedom:    33


   Energy is   -286.832573569

 Hessian Updated using BFGS Update

 33 Hessian modes will be used to form the next step
  Hessian Eigenvalues:
     0.005329    0.008919    0.013292    0.015676    0.016373    0.022094
     0.023218    0.025542    0.034150    0.045865    0.082472    0.121600
     0.123093    0.136297    0.152757    0.155547    0.159594    0.162250
     0.190636    0.199356    0.216374    0.222344    0.240601    0.301969
     0.313750    0.316996    0.349701    0.356213    0.362706    0.404669
     0.450583    0.597930    0.794548

 Minimum Search - Taking Simple RFO Step
 Searching for Lamda that Minimizes Along All modes
 Value Taken    Lamda =  -0.03073740
 Calculated Step too Large.  Step scaled by  0.397797
 Step Taken.  Stepsize is  0.300000

                             Maximum     Tolerance    Cnvgd?
         Gradient           0.022402      0.000600      NO
         Displacement       0.146072      0.002400      NO
         Energy change     -0.015913      0.000002      NO


 New Cartesian Coordinates Obtained by Inverse Iteration

 Displacement from previous Coordinates is:  0.328660
 ----------------------------------------------------------------
             Standard Nuclear Orientation (Angstroms)
    I     Atom           X                Y                Z
 ----------------------------------------------------------------
    1      C       1.4998247861     0.3081151303    -2.5401690381
    2      C       1.1350496211    -0.9902573225    -2.4521024794
    3      C      -0.2939608553    -1.3920241418    -2.5842813581
    4      C      -1.1117936798     0.4084153559    -1.2834020171
    5      C      -0.6178163857     1.3038030641    -2.3756594905
    6      N       0.5964739822     1.3474219422    -2.7960563303
    7      H       2.5361916691     0.6221431941    -2.6381613362
    8      H       1.8926010470    -1.7710290722    -2.4302880214
    9      H      -0.6914834575    -1.2835093573    -3.6010469531
   10      H      -1.2854518406     0.8953681246    -0.3191257456
   11      H      -1.3492555498     1.9269672465    -2.8968290623
   12      C      -1.1960686915    -0.9191178429    -1.4572973857
   13      H      -1.4610947997    -1.5856762410    -0.6415320857
 ----------------------------------------------------------------
 Nuclear Repulsion Energy =   264.8210019596 hartrees
 There are       25 alpha and       24 beta electrons
 Applying Cartesian multipole field
    Component          Value
    ---------          -----
     (2,0,0)        1.00000E-11
     (0,2,0)        2.00000E-11
     (0,0,2)       -3.00000E-11
 Nucleus-field energy     =    -0.0000000216 hartrees
 Requested basis set is 6-31G(d)
 There are 40 shells and 117 basis functions
 A cutoff of  1.0D-14 yielded    805 shell pairs
 There are      7077 function pairs
 Smallest overlap matrix eigenvalue = 2.56E-03
 Guess MOs from SCF MO coefficient file
 Reading MOs from coefficient file
 Reading MOs from coefficient file
 An unrestricted hybrid HF-DFT SCF calculation will be
 performed using Pulay DIIS extrapolation
 Exchange:     0.2000 Hartree-Fock + 0.0800 Slater + 0.7200 B88
 Correlation:  0.1900 VWN1RPA + 0.8100 LYP
 Using SG-1 standard quadrature grid
 SCF converges when DIIS error is below 1.0E-08
 Geometry optimization detected.  Setting ReadMinima to 0
 Setting SaveMinima to 0
Using Q-Chem read-in guess as SCF_GUESS READ specified.

 using 4 threads for integral computing
 -------------------------------------------------------
 OpenMP Integral computing Module                
 Release: version 1.0, May 2013, Q-Chem Inc. Pittsburgh 
 -------------------------------------------------------
 -------------------------------------------------------
 OpenMP BLAS3 based DFT computing Module                
 Release: version 1.0, May 2013, Q-Chem Inc. Pittsburgh 
 -------------------------------------------------------
 ---------------------------------------
  Cycle       Energy         DIIS Error
 ---------------------------------------
    1    -286.8617959351      1.70E-03
    2    -286.8433120055      3.52E-04
    3    -286.8431468964      5.12E-04
    4    -286.8436324857      1.42E-04
    5    -286.8436704797      2.42E-05
    6    -286.8436738548      9.98E-06
    7    -286.8436745145      6.15E-06
    8    -286.8436747943      1.48E-06
    9    -286.8436749074      1.09E-06
   10    -286.8436749644      4.45E-07
   11    -286.8436749911      1.44E-07
   12    -286.8436750131      6.91E-08
   13    -286.8436750256      3.72E-08
   14    -286.8436750361      1.62E-08
   15    -286.8436750383      5.57E-09 Convergence criterion met
 ---------------------------------------
 <S^2> = 0.7534
 SCF time:  CPU 38.34 s  wall 30.13 s
 SCF   energy in the final basis set = -286.84367504
 Total energy in the final basis set = -286.84367504
 
 --------------------------------------------------------------
 
                    Orbital Energies (a.u.)
 --------------------------------------------------------------
 
 Alpha MOs
 -- Occupied --
-14.337 -10.239 -10.216 -10.215 -10.205 -10.202 -10.195  -0.934
[...]
     0.319480    0.340272    0.356530    0.363626    0.457235    0.476432
     0.530282    0.613351    0.842590

 Minimum Search - Taking Simple RFO Step
 Searching for Lamda that Minimizes Along All modes
 Value Taken    Lamda =  -0.00000274
 Step Taken.  Stepsize is  0.014105

                             Maximum     Tolerance    Cnvgd?
         Gradient           0.000270      0.000600     YES
         Displacement       0.006088      0.002400      NO
         Energy change     -0.000002      0.000002      NO


 New Cartesian Coordinates Obtained by Inverse Iteration

 Displacement from previous Coordinates is:  0.015988
 ----------------------------------------------------------------
             Standard Nuclear Orientation (Angstroms)
    I     Atom           X                Y                Z
 ----------------------------------------------------------------
    1      C       1.4488167555     0.3815000904    -2.8355278053
    2      C       1.1227238816    -0.9584498603    -2.7304799033
    3      C      -0.0757712119    -1.5426456259    -2.1847659124
    4      C      -1.2998617916     0.5465944287    -1.5312103195
    5      C      -0.4175759533     1.5393080684    -1.9115180806
    6      N       0.8064865696     1.5214283335    -2.4920066480
    7      H       2.4226334608     0.5816563646    -3.2880683886
    8      H       1.8679528287    -1.6545743851    -3.1080832768
    9      H      -0.1225182793    -2.6296881579    -2.2001733220
   10      H      -2.2276197595     0.8906134485    -1.0802488246
   11      H      -0.7587193721     2.5573742816    -1.7115405590
   12      C      -1.1430994843    -0.8800680526    -1.6562903814
   13      H      -1.9702317985    -1.4824288540    -1.2860378821
 ----------------------------------------------------------------
 Nuclear Repulsion Energy =   260.7207462785 hartrees
 There are       25 alpha and       24 beta electrons
 Applying Cartesian multipole field
    Component          Value
    ---------          -----
     (2,0,0)        1.00000E-11
     (0,2,0)        2.00000E-11
     (0,0,2)       -3.00000E-11
 Nucleus-field energy     =    -0.0000000189 hartrees
 Requested basis set is 6-31G(d)
 There are 40 shells and 117 basis functions
 A cutoff of  1.0D-14 yielded    791 shell pairs
 There are      7063 function pairs
 Smallest overlap matrix eigenvalue = 1.33E-03
 Guess MOs from SCF MO coefficient file
 Reading MOs from coefficient file
 Reading MOs from coefficient file
 An unrestricted hybrid HF-DFT SCF calculation will be
 performed using Pulay DIIS extrapolation
 Exchange:     0.2000 Hartree-Fock + 0.0800 Slater + 0.7200 B88
 Correlation:  0.1900 VWN1RPA + 0.8100 LYP
 Using SG-1 standard quadrature grid
 SCF converges when DIIS error is below 1.0E-08
 Geometry optimization detected.  Setting ReadMinima to 0
 Setting SaveMinima to 0
Using Q-Chem read-in guess as SCF_GUESS READ specified.

 using 4 threads for integral computing
 -------------------------------------------------------
 OpenMP Integral computing Module                
 Release: version 1.0, May 2013, Q-Chem Inc. Pittsburgh 
 -------------------------------------------------------
 -------------------------------------------------------
 OpenMP BLAS3 based DFT computing Module                
 Release: version 1.0, May 2013, Q-Chem Inc. Pittsburgh 
 -------------------------------------------------------
 ---------------------------------------
  Cycle       Energy         DIIS Error
 ---------------------------------------
    1    -286.9245219277      9.72E-05
    2    -286.9243322187      8.47E-06
    3    -286.9243322565      1.16E-05
    4    -286.9243325321      2.91E-06
    5    -286.9243325571      9.99E-07
    6    -286.9243325633      5.46E-07
    7    -286.9243325664      2.87E-07
    8    -286.9243325685      1.89E-07
    9    -286.9243325701      1.37E-07
   10    -286.9243325711      6.77E-08
   11    -286.9243325715      4.00E-08
   12    -286.9243325716      1.40E-08
   13    -286.9243325716      7.96E-09 Convergence criterion met
 ---------------------------------------
 <S^2> = 0.7684
 SCF time:  CPU 32.52 s  wall 29.15 s
 SCF   energy in the final basis set = -286.92433257
 Total energy in the final basis set = -286.92433257
 
 --------------------------------------------------------------
 
                    Orbital Energies (a.u.)
 --------------------------------------------------------------
 
 Alpha MOs
 -- Occupied --
-14.322 -10.232 -10.232 -10.212 -10.211 -10.201 -10.200  -0.922
 -0.818  -0.784  -0.693  -0.667  -0.551  -0.537  -0.518  -0.449
 -0.439  -0.414  -0.394  -0.387  -0.349  -0.322  -0.299  -0.251
 -0.162
 -- Virtual --
 -0.072   0.077   0.097   0.101   0.117   0.142   0.181   0.184
  0.193   0.213   0.266   0.320   0.356   0.390   0.412   0.483
  0.497   0.521   0.547   0.576   0.584   0.587   0.591   0.610
  0.619   0.624   0.646   0.658   0.713   0.718   0.833   0.840
  0.847   0.854   0.868   0.872   0.885   0.922   0.965   0.975
  1.024   1.027   1.043   1.127   1.177   1.185   1.300   1.303
  1.326   1.401   1.429   1.480   1.482   1.546   1.574   1.586
  1.682   1.732   1.769   1.829   1.850   1.919   1.924   2.030
  2.046   2.048   2.100   2.141   2.142   2.191   2.247   2.391
  2.410   2.414   2.446   2.545   2.576   2.601   2.614   2.739
  2.748   2.807   3.052   3.249   3.251   4.018   4.046   4.102
  4.196   4.239   4.532   4.595
 
 Beta MOs
 -- Occupied --
-14.314 -10.234 -10.233 -10.210 -10.210 -10.196 -10.196  -0.911
 -0.809  -0.777  -0.681  -0.665  -0.546  -0.535  -0.514  -0.447
 -0.438  -0.411  -0.383  -0.373  -0.348  -0.295  -0.276  -0.241
 -- Virtual --
 -0.078  -0.070   0.078   0.118   0.124   0.125   0.142   0.182
  0.187   0.196   0.219   0.268   0.324   0.360   0.393   0.415
  0.486   0.505   0.525   0.551   0.587   0.588   0.592   0.596
  0.614   0.624   0.629   0.649   0.676   0.715   0.729   0.834
  0.843   0.846   0.869   0.875   0.880   0.887   0.925   0.967
  0.979   1.026   1.030   1.045   1.133   1.180   1.189   1.311
  1.315   1.333   1.411   1.429   1.489   1.492   1.560   1.582
  1.597   1.685   1.737   1.781   1.831   1.853   1.922   1.933
  2.036   2.058   2.061   2.110   2.141   2.147   2.203   2.259
  2.399   2.422   2.425   2.448   2.558   2.578   2.611   2.624
  2.742   2.761   2.810   3.054   3.252   3.254   4.030   4.053
  4.109   4.200   4.239   4.537   4.601
 --------------------------------------------------------------
 
          Ground-State Mulliken Net Atomic Charges

     Atom                 Charge (a.u.)    Spin (a.u.)
  --------------------------------------------------------
      1 C                     0.036055      -0.115247
      2 C                    -0.132138       0.351544
      3 C                    -0.110856       0.088416
      4 C                    -0.130797       0.342309
      5 C                     0.034821      -0.109995
      6 N                    -0.423350       0.387096
      7 H                     0.142669       0.003530
      8 H                     0.134326      -0.018546
      9 H                     0.141966      -0.006383
     10 H                     0.134429      -0.018118
     11 H                     0.142661       0.003274
     12 C                    -0.111660       0.099007
     13 H                     0.141876      -0.006887
  --------------------------------------------------------
  Sum of atomic charges =    -0.000000
  Sum of spin   charges =     1.000000

 -----------------------------------------------------------------
                    Cartesian Multipole Moments
 -----------------------------------------------------------------
    Charge (ESU x 10^10)
                -0.0000
    Dipole Moment (Debye)
         X      -1.0118      Y      -1.9590      Z       0.4122
       Tot       2.2431
    Quadrupole Moments (Debye-Ang)
        XX     -37.5302     XY      -2.9185     YY     -40.1092
        XZ      -0.6706     YZ       5.7413     ZZ     -43.7394
    Octopole Moments (Debye-Ang^2)
       XXX      -5.4756    XXY      -5.4123    XYY      -9.9786
       YYY     -18.8574    XXZ      82.1669    XYZ       7.8678
       YYZ      91.0011    XZZ       6.0242    YZZ     -17.7879
       ZZZ     280.3440
    Hexadecapole Moments (Debye-Ang^3)
      XXXX    -321.8573   XXXY      -4.0081   XXYY    -125.6774
      XYYY     -21.9813   YYYY    -398.7913   XXXZ      65.9044
      XXYZ      11.0278   XYYZ      42.1520   YYYZ      45.5653
      XXZZ    -250.1569   XYZZ     -21.8271   YYZZ    -296.0182
      XZZZ      52.6307   YZZZ      48.8620   ZZZZ   -1328.9979
 -----------------------------------------------------------------
 Calculating analytic gradient of the SCF energy
 Gradient of SCF Energy
            1           2           3           4           5           6
    1   0.0001887  -0.0000562  -0.0001233   0.0000865  -0.0004188   0.0002543
    2   0.0002678  -0.0001230   0.0000087  -0.0002060  -0.0000186  -0.0001261
    3   0.0001101  -0.0000508  -0.0000329  -0.0000554   0.0002002  -0.0003050
            7           8           9          10          11          12
    1  -0.0000094   0.0000181  -0.0000158  -0.0000158   0.0000485   0.0000416
    2   0.0000072  -0.0000071   0.0000238   0.0000511  -0.0000142   0.0001512
    3   0.0000041  -0.0000501   0.0000686  -0.0000219   0.0000442   0.0000704
           13
    1   0.0000016
    2  -0.0000149
    3   0.0000185
 Max gradient component =       4.188E-04
 RMS gradient           =       1.287E-04
 Gradient time:  CPU 7.21 s  wall 2.66 s
 Geometry Optimization Parameters
   NAtoms,    NIC,     NZ,  NCons,   NDum,   NFix, NCnnct, MaxDiis
       13      82       0       0       0       0       0       0

 Cartesian Hessian Update
 Hessian Updated using BFGS Update


** GEOMETRY OPTIMIZATION IN DELOCALIZED INTERNAL COORDINATES **
   Searching for a Minimum

   Optimization Cycle:  36

                       Coordinates (Angstroms)
     ATOM                X               Y               Z
      1  C         1.4488167555    0.3815000904   -2.8355278053
      2  C         1.1227238816   -0.9584498603   -2.7304799033
      3  C        -0.0757712119   -1.5426456259   -2.1847659124
      4  C        -1.2998617916    0.5465944287   -1.5312103195
      5  C        -0.4175759533    1.5393080684   -1.9115180806
      6  N         0.8064865696    1.5214283335   -2.4920066480
      7  H         2.4226334608    0.5816563646   -3.2880683886
      8  H         1.8679528287   -1.6545743851   -3.1080832768
      9  H        -0.1225182793   -2.6296881579   -2.2001733220
     10  H        -2.2276197595    0.8906134485   -1.0802488246
     11  H        -0.7587193721    2.5573742816   -1.7115405590
     12  C        -1.1430994843   -0.8800680526   -1.6562903814
     13  H        -1.9702317985   -1.4824288540   -1.2860378821
   Point Group: c1    Number of degrees of freedom:    33


   Energy is   -286.924332572

 Hessian Updated using BFGS Update

 33 Hessian modes will be used to form the next step
  Hessian Eigenvalues:
     0.006486    0.009439    0.015825    0.016498    0.017882    0.021633
     0.026671    0.028558    0.034165    0.041124    0.124224    0.145509
     0.154570    0.156878    0.161433    0.166365    0.198089    0.215166
     0.233213    0.260234    0.294940    0.300345    0.315737    0.318453
     0.338702    0.343554    0.356576    0.363717    0.444752    0.473053
     0.526421    0.614803    0.749555

 Minimum Search - Taking Simple RFO Step
 Searching for Lamda that Minimizes Along All modes
 Value Taken    Lamda =  -0.00000139
 Step Taken.  Stepsize is  0.009078

                             Maximum     Tolerance    Cnvgd?
         Gradient           0.000214      0.000600     YES
         Displacement       0.004076      0.002400      NO
         Energy change     -0.000002      0.000002     YES


                       Distance Matrix (Angstroms)
             C (  1)   C (  2)   C (  3)   C (  4)   C (  5)   N (  6)
   C (  2)  1.383054
   C (  3)  2.539724  1.440652
   C (  4)  3.046922  3.093918  2.508078
   C (  5)  2.382800  3.046640  3.112866  1.381500
   N (  6)  1.352786  2.511309  3.203330  2.511998  1.354849
   H (  7)  1.092325  2.091076  3.460052  4.116400  3.298299  2.031949
   H (  8)  2.096559  1.087446  2.154787  4.167340  4.105642  3.404887
   H (  9)  3.455434  2.150556  1.088156  3.452886  4.189381  4.263799
   H ( 10)  4.105653  4.167385  3.430912  1.087405  2.094773  3.405406
   H ( 11)  3.297119  4.115712  4.183363  2.090117  1.092167  2.032777
   C ( 12)  3.114512  2.508781  1.362896  1.440689  2.538682  3.204137
   H ( 13)  4.191067  3.453598  2.097694  2.150916  3.454397  4.264702
             H (  7)   H (  8)   H (  9)   H ( 10)   H ( 11)   C ( 12)
   H (  8)  2.311016
   H (  9)  4.239581  2.395229
   H ( 10)  5.157012  5.231043  4.251847
   H ( 11)  4.063239  5.156573  5.248727  2.309608
   C ( 12)  4.184948  3.431326  2.097276  2.154837  3.459308
   H ( 13)  5.250318  4.252193  2.359214  2.395815  4.238965  1.088151

 
 Final energy is   -286.924332571606     


 ******************************
 **  OPTIMIZATION CONVERGED  **
 ******************************

                       Coordinates (Angstroms)
     ATOM                X               Y               Z
      1  C         1.4488167555    0.3815000904   -2.8355278053
      2  C         1.1227238816   -0.9584498603   -2.7304799033
      3  C        -0.0757712119   -1.5426456259   -2.1847659124
      4  C        -1.2998617916    0.5465944287   -1.5312103195
      5  C        -0.4175759533    1.5393080684   -1.9115180806
      6  N         0.8064865696    1.5214283335   -2.4920066480
      7  H         2.4226334608    0.5816563646   -3.2880683886
      8  H         1.8679528287   -1.6545743851   -3.1080832768
      9  H        -0.1225182793   -2.6296881579   -2.2001733220
     10  H        -2.2276197595    0.8906134485   -1.0802488246
     11  H        -0.7587193721    2.5573742816   -1.7115405590
     12  C        -1.1430994843   -0.8800680526   -1.6562903814
     13  H        -1.9702317985   -1.4824288540   -1.2860378821

Z-matrix Print:
$molecule
0 2
N 
C  1 1.352786
H  2 1.092325 1 111.968873
C  1 1.354849 2 123.291895 3 -179.903153 0
H  4 1.092167 1 111.897928 2 179.829878 0
C  4 1.381500 1 133.271622 2 -0.179643 0
H  6 1.087405 4 115.576254 1 -179.919235 0
C  2 1.383054 1 133.247485 3 -179.926459 0
H  8 1.087446 2 115.609975 1 179.910563 0
C  8 1.440652 2 128.154697 1 -0.125533 0
H  10 1.088156 8 115.815086 2 -179.870722 0
C  10 1.362896 8 126.958725 2 0.048211 0
H  12 1.088151 10 117.264620 8 -179.957904 0
$end

 
 --------------------------------------------------------------
 
                    Orbital Energies (a.u.)
 --------------------------------------------------------------
 
 Alpha MOs
 -- Occupied --
-14.322 -10.232 -10.232 -10.212 -10.211 -10.201 -10.200  -0.922
 -0.818  -0.784  -0.693  -0.667  -0.551  -0.537  -0.518  -0.449
 -0.439  -0.414  -0.394  -0.387  -0.349  -0.322  -0.299  -0.251
 -0.162
 -- Virtual --
 -0.072   0.077   0.097   0.101   0.117   0.142   0.181   0.184
  0.193   0.213   0.266   0.320   0.356   0.390   0.412   0.483
  0.497   0.521   0.547   0.576   0.584   0.587   0.591   0.610
  0.619   0.624   0.646   0.658   0.713   0.718   0.833   0.840
  0.847   0.854   0.868   0.872   0.885   0.922   0.965   0.975
  1.024   1.027   1.043   1.127   1.177   1.185   1.300   1.303
  1.326   1.401   1.429   1.480   1.482   1.546   1.574   1.586
  1.682   1.732   1.769   1.829   1.850   1.919   1.924   2.030
  2.046   2.048   2.100   2.141   2.142   2.191   2.247   2.391
  2.410   2.414   2.446   2.545   2.576   2.601   2.614   2.739
  2.748   2.807   3.052   3.249   3.251   4.018   4.046   4.102
  4.196   4.239   4.532   4.595
 
 Beta MOs
 -- Occupied --
-14.314 -10.234 -10.233 -10.210 -10.210 -10.196 -10.196  -0.911
 -0.809  -0.777  -0.681  -0.665  -0.546  -0.535  -0.514  -0.447
 -0.438  -0.411  -0.383  -0.373  -0.348  -0.295  -0.276  -0.241
 -- Virtual --
 -0.078  -0.070   0.078   0.118   0.124   0.125   0.142   0.182
  0.187   0.196   0.219   0.268   0.324   0.360   0.393   0.415
  0.486   0.505   0.525   0.551   0.587   0.588   0.592   0.596
  0.614   0.624   0.629   0.649   0.676   0.715   0.729   0.834
  0.843   0.846   0.869   0.875   0.880   0.887   0.925   0.967
  0.979   1.026   1.030   1.045   1.133   1.180   1.189   1.311
  1.315   1.333   1.411   1.429   1.489   1.492   1.560   1.582
  1.597   1.685   1.737   1.781   1.831   1.853   1.922   1.933
  2.036   2.058   2.061   2.110   2.141   2.147   2.203   2.259
  2.399   2.422   2.425   2.448   2.558   2.578   2.611   2.624
  2.742   2.761   2.810   3.054   3.252   3.254   4.030   4.053
  4.109   4.200   4.239   4.537   4.601
 --------------------------------------------------------------
 
          Ground-State Mulliken Net Atomic Charges

     Atom                 Charge (a.u.)    Spin (a.u.)
  --------------------------------------------------------
      1 C                     0.036055      -0.115247
      2 C                    -0.132138       0.351544
      3 C                    -0.110856       0.088416
      4 C                    -0.130797       0.342309
      5 C                     0.034821      -0.109995
      6 N                    -0.423350       0.387096
      7 H                     0.142669       0.003530
      8 H                     0.134326      -0.018546
      9 H                     0.141966      -0.006383
     10 H                     0.134429      -0.018118
     11 H                     0.142661       0.003274
     12 C                    -0.111660       0.099007
     13 H                     0.141876      -0.006887
  --------------------------------------------------------
  Sum of atomic charges =    -0.000000
  Sum of spin   charges =     1.000000

 -----------------------------------------------------------------
                    Cartesian Multipole Moments
 -----------------------------------------------------------------
    Charge (ESU x 10^10)
                -0.0000
    Dipole Moment (Debye)
         X      -1.0118      Y      -1.9590      Z       0.4122
       Tot       2.2431
    Quadrupole Moments (Debye-Ang)
        XX     -37.5302     XY      -2.9185     YY     -40.1092
        XZ      -0.6706     YZ       5.7413     ZZ     -43.7394
    Octopole Moments (Debye-Ang^2)
       XXX      -5.4756    XXY      -5.4123    XYY      -9.9786
       YYY     -18.8574    XXZ      82.1669    XYZ       7.8678
       YYZ      91.0011    XZZ       6.0242    YZZ     -17.7879
       ZZZ     280.3440
    Hexadecapole Moments (Debye-Ang^3)
      XXXX    -321.8573   XXXY      -4.0081   XXYY    -125.6774
      XYYY     -21.9813   YYYY    -398.7913   XXXZ      65.9044
      XXYZ      11.0278   XYYZ      42.1520   YYYZ      45.5653
      XXZZ    -250.1569   XYZZ     -21.8271   YYZZ    -296.0182
      XZZZ      52.6307   YZZZ      48.8620   ZZZZ   -1328.9979
 -----------------------------------------------------------------
Archival summary:
1\1\c8-66\OPT\ProcedureUnspecified\6-31G*\166(2)\hpark21\TueMar121:43:312022TueMar121:43:312022\0\\#,OPT,ProcedureUnspecified,6-31G*,\\0,2\N\C,1,1.35279\H,2,1.09233,1,111.969\C,1,1.35485,2,123.292,3,-179.903,0\H,4,1.09217,1,111.898,2,179.83,0\C,4,1.3815,1,133.272,2,-0.179643,0\H,6,1.08741,4,115.576,1,-179.919,0\C,2,1.38305,1,133.247,3,-179.926,0\H,8,1.08745,2,115.61,1,179.911,0\C,8,1.44065,2,128.155,1,-0.125533,0\H,10,1.08816,8,115.815,2,-179.871,0\C,10,1.3629,8,126.959,2,0.048211,0\H,12,1.08815,10,117.265,8,-179.958,0\\\@

 Total job time:  1248.32s(wall), 1677.42s(cpu) 
 Tue Mar  1 21:43:32 2022

        *************************************************************
        *                                                           *
        *  Thank you very much for using Q-Chem.  Have a nice day.  *
        *                                                           *
        *************************************************************


