13   
From optimize.out: Frame 1 / 36, Energy=    -286.6700099000
C        0.0409840000    0.0087180000   -0.0000000000
C       -0.1911250000   -0.0107050000   -0.0000000000
C       -0.2218590000    0.8262920000   -0.0000000000
C       -0.1529200000   -0.2351340000   -0.0000000000
C        0.0026410000    0.0240390000   -0.0000000000
N       -0.3188520000    0.0010570000   -0.0000000000
H        0.1699510000    0.0066210000   -0.0000000000
H        0.1601720000    0.0012660000   -0.0000000000
H        0.1834220000   -0.0368560000   -0.0000000000
H        0.1479800000    0.0491400000   -0.0000000000
H        0.1634840000    0.0058870000   -0.0000000000
C       -0.1472630000    0.3720620000   -0.0000000000
H        0.1633850000   -0.0123870000   -0.0000000000
13   
From optimize.out: Frame 2 / 36, Energy=    -286.7182026011
C        0.0346480000    0.0126700000   -0.0000000000
C       -0.1777890000   -0.0198830000   -0.0000000000
C       -0.2179280000    0.8878360000   -0.0000000000
C       -0.1483950000   -0.1861570000   -0.0000000000
C        0.0069650000    0.0161260000   -0.0000000000
N       -0.3243180000    0.0036910000   -0.0000000000
H        0.1634030000    0.0064970000   -0.0000000000
H        0.1568410000    0.0039800000   -0.0000000000
H        0.1769640000   -0.0383120000   -0.0000000000
H        0.1500430000    0.0440650000   -0.0000000000
H        0.1639290000    0.0039980000   -0.0000000000
C       -0.1446970000    0.2763880000   -0.0000000000
H        0.1603330000   -0.0109000000   -0.0000000000
13   
From optimize.out: Frame 3 / 36, Energy=    -286.7595840624
C        0.0269730000    0.0165140000   -0.0000000000
C       -0.1639740000   -0.0302620000   -0.0000000000
C       -0.2118600000    0.9495520000   -0.0000000000
C       -0.1478070000   -0.1198070000   -0.0000000000
C        0.0105170000    0.0060700000   -0.0000000000
N       -0.3303970000    0.0075410000   -0.0000000000
H        0.1574710000    0.0060850000   -0.0000000000
H        0.1534760000    0.0075660000   -0.0000000000
H        0.1703350000   -0.0401990000   -0.0000000000
H        0.1526080000    0.0364940000   -0.0000000000
H        0.1635320000    0.0024720000   -0.0000000000
C       -0.1372780000    0.1657450000   -0.0000000000
H        0.1564040000   -0.0077710000   -0.0000000000
13   
From optimize.out: Frame 4 / 36, Energy=    -286.7926733103
C        0.0219820000    0.0200810000   -0.0000000000
C       -0.1536680000   -0.0393700000   -0.0000000000
C       -0.2048230000    0.9923580000   -0.0000000000
C       -0.1499420000   -0.0579920000   -0.0000000000
C        0.0127990000   -0.0015530000   -0.0000000000
N       -0.3358140000    0.0103430000   -0.0000000000
H        0.1524480000    0.0055310000   -0.0000000000
H        0.1503500000    0.0115990000   -0.0000000000
H        0.1647330000   -0.0417970000   -0.0000000000
H        0.1550820000    0.0287600000   -0.0000000000
H        0.1619270000    0.0015620000   -0.0000000000
C       -0.1272730000    0.0734520000   -0.0000000000
H        0.1521980000   -0.0029730000   -0.0000000000
13   
From optimize.out: Frame 5 / 36, Energy=    -286.8166610585
C        0.0209750000    0.0240720000   -0.0000000000
C       -0.1485680000   -0.0476070000   -0.0000000000
C       -0.1978260000    1.0154030000   -0.0000000000
C       -0.1518620000   -0.0158380000   -0.0000000000
C        0.0140770000   -0.0041140000   -0.0000000000
N       -0.3406170000    0.0102630000   -0.0000000000
H        0.1484910000    0.0050140000   -0.0000000000
H        0.1478980000    0.0154530000   -0.0000000000
H        0.1608690000   -0.0427980000   -0.0000000000
H        0.1565190000    0.0226850000   -0.0000000000
H        0.1593640000    0.0009410000   -0.0000000000
C       -0.1182160000    0.0129960000   -0.0000000000
H        0.1488970000    0.0035280000   -0.0000000000
13   
From optimize.out: Frame 6 / 36, Energy=    -286.8325735686
C        0.0227020000    0.0289360000   -0.0000000000
C       -0.1469390000   -0.0555520000   -0.0000000000
C       -0.1926830000    1.0262090000   -0.0000000000
C       -0.1512040000    0.0077100000   -0.0000000000
C        0.0152200000   -0.0023830000   -0.0000000000
N       -0.3450290000    0.0075590000   -0.0000000000
H        0.1458160000    0.0046430000   -0.0000000000
H        0.1464440000    0.0186680000   -0.0000000000
H        0.1589190000   -0.0431580000   -0.0000000000
H        0.1564760000    0.0183770000   -0.0000000000
H        0.1563300000    0.0004250000   -0.0000000000
C       -0.1133540000   -0.0219000000   -0.0000000000
H        0.1473010000    0.0104670000   -0.0000000000
13   
From optimize.out: Frame 7 / 36, Energy=    -286.8436750383
C        0.0248040000    0.0349790000   -0.0000000000
C       -0.1465090000   -0.0633310000   -0.0000000000
C       -0.1892300000    1.0308130000   -0.0000000000
C       -0.1480740000    0.0194630000   -0.0000000000
C        0.0164400000    0.0014260000   -0.0000000000
N       -0.3486590000    0.0036430000   -0.0000000000
H        0.1442320000    0.0043140000   -0.0000000000
H        0.1456080000    0.0211860000   -0.0000000000
H        0.1583360000   -0.0430370000   -0.0000000000
H        0.1552710000    0.0154530000   -0.0000000000
H        0.1533130000    0.0000050000   -0.0000000000
C       -0.1124920000   -0.0412110000   -0.0000000000
H        0.1469600000    0.0162990000   -0.0000000000
13   
From optimize.out: Frame 8 / 36, Energy=    -286.8523484540
C        0.0265610000    0.0426120000   -0.0000000000
C       -0.1466580000   -0.0714900000   -0.0000000000
C       -0.1866300000    1.0314940000   -0.0000000000
C       -0.1436440000    0.0261650000   -0.0000000000
C        0.0177000000    0.0058980000   -0.0000000000
N       -0.3518160000   -0.0005200000   -0.0000000000
H        0.1433270000    0.0038960000   -0.0000000000
H        0.1449490000    0.0231590000   -0.0000000000
H        0.1584250000   -0.0427630000   -0.0000000000
H        0.1532620000    0.0134050000   -0.0000000000
H        0.1506160000   -0.0003420000   -0.0000000000
C       -0.1133940000   -0.0528650000   -0.0000000000
H        0.1473020000    0.0213510000   -0.0000000000
13   
From optimize.out: Frame 9 / 36, Energy=    -286.8594830539
C        0.0276490000    0.0529160000   -0.0000000000
C       -0.1464650000   -0.0807420000   -0.0000000000
C       -0.1845040000    1.0287240000   -0.0000000000
C       -0.1381820000    0.0310420000   -0.0000000000
C        0.0191230000    0.0108170000   -0.0000000000
N       -0.3549740000   -0.0044270000   -0.0000000000
H        0.1427450000    0.0032940000   -0.0000000000
H        0.1444130000    0.0249570000   -0.0000000000
H        0.1588130000   -0.0424420000   -0.0000000000
H        0.1510290000    0.0117160000   -0.0000000000
H        0.1482730000   -0.0006620000   -0.0000000000
C       -0.1158100000   -0.0604250000   -0.0000000000
H        0.1478910000    0.0252330000   -0.0000000000
13   
From optimize.out: Frame 10 / 36, Energy=    -286.8655335179
C        0.0281160000    0.0665310000   -0.0000000000
C       -0.1461150000   -0.0912320000   -0.0000000000
C       -0.1828650000    1.0211010000   -0.0000000000
C       -0.1329960000    0.0373360000   -0.0000000000
C        0.0206110000    0.0161300000   -0.0000000000
N       -0.3578420000   -0.0077880000   -0.0000000000
H        0.1423640000    0.0023860000   -0.0000000000
H        0.1437990000    0.0263100000   -0.0000000000
H        0.1590920000   -0.0422140000   -0.0000000000
H        0.1486980000    0.0102160000   -0.0000000000
H        0.1463660000   -0.0009770000   -0.0000000000
C       -0.1177870000   -0.0665280000   -0.0000000000
H        0.1485590000    0.0287280000   -0.0000000000
13   
From optimize.out: Frame 11 / 36, Energy=    -286.8707584324
C        0.0273150000    0.0860290000   -0.0000000000
C       -0.1439400000   -0.1042730000   -0.0000000000
C       -0.1820300000    1.0075920000   -0.0000000000
C       -0.1280960000    0.0462750000   -0.0000000000
C        0.0224870000    0.0222600000   -0.0000000000
N       -0.3604630000   -0.0101400000   -0.0000000000
H        0.1419140000    0.0010620000   -0.0000000000
H        0.1432000000    0.0276650000   -0.0000000000
H        0.1592050000   -0.0420860000   -0.0000000000
H        0.1467460000    0.0084980000   -0.0000000000
H        0.1448690000   -0.0013380000   -0.0000000000
C       -0.1200500000   -0.0723160000   -0.0000000000
H        0.1488430000    0.0307720000   -0.0000000000
13   
From optimize.out: Frame 12 / 36, Energy=    -286.8754525048
C        0.0257610000    0.1091340000   -0.0000000000
C       -0.1409980000   -0.1173710000   -0.0000000000
C       -0.1824000000    0.9864560000   -0.0000000000
C       -0.1251570000    0.0617370000   -0.0000000000
C        0.0243490000    0.0275140000   -0.0000000000
N       -0.3623000000   -0.0102920000   -0.0000000000
H        0.1415500000   -0.0006150000   -0.0000000000
H        0.1424010000    0.0282250000   -0.0000000000
H        0.1588410000   -0.0421170000   -0.0000000000
H        0.1448960000    0.0066320000   -0.0000000000
H        0.1437940000   -0.0016580000   -0.0000000000
C       -0.1197600000   -0.0804850000   -0.0000000000
H        0.1490220000    0.0328400000   -0.0000000000
13   
From optimize.out: Frame 13 / 36, Energy=    -286.8798741742
C        0.0226990000    0.1382800000   -0.0000000000
C       -0.1356690000   -0.1317210000   -0.0000000000
C       -0.1833270000    0.9580280000   -0.0000000000
C       -0.1230230000    0.0807150000   -0.0000000000
C        0.0266570000    0.0329680000   -0.0000000000
N       -0.3640460000   -0.0085240000   -0.0000000000
H        0.1410570000   -0.0026640000   -0.0000000000
H        0.1417600000    0.0287510000   -0.0000000000
H        0.1581890000   -0.0420350000   -0.0000000000
H        0.1434410000    0.0044310000   -0.0000000000
H        0.1430040000   -0.0020100000   -0.0000000000
C       -0.1193560000   -0.0892400000   -0.0000000000
H        0.1486170000    0.0330200000   -0.0000000000
13   
From optimize.out: Frame 14 / 36, Energy=    -286.8842117379
C        0.0188950000    0.1689910000   -0.0000000000
C       -0.1298270000   -0.1436910000   -0.0000000000
C       -0.1845520000    0.9221810000   -0.0000000000
C       -0.1226920000    0.1068770000   -0.0000000000
C        0.0288000000    0.0359810000   -0.0000000000
N       -0.3652060000   -0.0035230000   -0.0000000000
H        0.1406180000   -0.0048740000   -0.0000000000
H        0.1410700000    0.0284780000   -0.0000000000
H        0.1571480000   -0.0418110000   -0.0000000000
H        0.1421230000    0.0019470000   -0.0000000000
H        0.1423920000   -0.0022480000   -0.0000000000
C       -0.1169850000   -0.1010840000   -0.0000000000
H        0.1482170000    0.0327750000   -0.0000000000
13   
From optimize.out: Frame 15 / 36, Energy=    -286.8885462275
C        0.0141490000    0.2011120000   -0.0000000000
C       -0.1231790000   -0.1531440000   -0.0000000000
C       -0.1853800000    0.8799500000   -0.0000000000
C       -0.1235710000    0.1379050000   -0.0000000000
C        0.0312260000    0.0365100000   -0.0000000000
N       -0.3664820000    0.0046110000   -0.0000000000
H        0.1402070000   -0.0071710000   -0.0000000000
H        0.1405790000    0.0277050000   -0.0000000000
H        0.1557630000   -0.0412460000   -0.0000000000
H        0.1408690000   -0.0008100000   -0.0000000000
H        0.1419840000   -0.0023830000   -0.0000000000
C       -0.1138060000   -0.1146060000   -0.0000000000
H        0.1476410000    0.0315670000   -0.0000000000
13   
From optimize.out: Frame 16 / 36, Energy=    -286.8929061741
C        0.0088170000    0.2319310000   -0.0000000000
C       -0.1164730000   -0.1585780000   -0.0000000000
C       -0.1853660000    0.8326810000   -0.0000000000
C       -0.1257070000    0.1742970000   -0.0000000000
C        0.0338270000    0.0331710000   -0.0000000000
N       -0.3678580000    0.0164380000   -0.0000000000
H        0.1399350000   -0.0093940000   -0.0000000000
H        0.1402510000    0.0263480000   -0.0000000000
H        0.1539680000   -0.0402600000   -0.0000000000
H        0.1396990000   -0.0038180000   -0.0000000000
H        0.1416690000   -0.0023350000   -0.0000000000
C       -0.1099730000   -0.1300260000   -0.0000000000
H        0.1472130000    0.0295450000   -0.0000000000
13   
From optimize.out: Frame 17 / 36, Energy=    -286.8972408263
C        0.0033360000    0.2584450000   -0.0000000000
C       -0.1102970000   -0.1584830000   -0.0000000000
C       -0.1841550000    0.7819130000   -0.0000000000
C       -0.1289220000    0.2153180000   -0.0000000000
C        0.0368950000    0.0243550000   -0.0000000000
N       -0.3697880000    0.0332680000   -0.0000000000
H        0.1398080000   -0.0113610000   -0.0000000000
H        0.1400940000    0.0242770000   -0.0000000000
H        0.1518910000   -0.0388150000   -0.0000000000
H        0.1385490000   -0.0070930000   -0.0000000000
H        0.1414660000   -0.0020260000   -0.0000000000
C       -0.1055580000   -0.1468500000   -0.0000000000
H        0.1466820000    0.0270520000   -0.0000000000
13   
From optimize.out: Frame 18 / 36, Energy=    -286.9015323560
C       -0.0016550000    0.2772480000   -0.0000000000
C       -0.1051000000   -0.1518510000   -0.0000000000
C       -0.1816530000    0.7284910000   -0.0000000000
C       -0.1336020000    0.2626220000   -0.0000000000
C        0.0405000000    0.0085520000   -0.0000000000
N       -0.3725110000    0.0562090000   -0.0000000000
H        0.1399880000   -0.0128420000   -0.0000000000
H        0.1401130000    0.0215990000   -0.0000000000
H        0.1493440000   -0.0369660000   -0.0000000000
H        0.1374540000   -0.0106190000   -0.0000000000
H        0.1413710000   -0.0013640000   -0.0000000000
C       -0.1007220000   -0.1652340000   -0.0000000000
H        0.1464750000    0.0241530000   -0.0000000000
13   
From optimize.out: Frame 19 / 36, Energy=    -286.9056453037
C       -0.0054280000    0.2830720000   -0.0000000000
C       -0.1015440000   -0.1361780000   -0.0000000000
C       -0.1773760000    0.6755240000   -0.0000000000
C       -0.1383210000    0.3090850000   -0.0000000000
C        0.0445000000   -0.0143680000   -0.0000000000
N       -0.3762430000    0.0868230000   -0.0000000000
H        0.1401680000   -0.0135970000   -0.0000000000
H        0.1399610000    0.0181970000   -0.0000000000
H        0.1473220000   -0.0348000000   -0.0000000000
H        0.1365200000   -0.0141020000   -0.0000000000
H        0.1412430000   -0.0003290000   -0.0000000000
C       -0.0962590000   -0.1806470000   -0.0000000000
H        0.1454560000    0.0213190000   -0.0000000000
13   
From optimize.out: Frame 20 / 36, Energy=    -286.9096212140
C       -0.0070150000    0.2708780000   -0.0000000000
C       -0.0998450000   -0.1096260000   -0.0000000000
C       -0.1721340000    0.6154710000   -0.0000000000
C       -0.1450670000    0.3678180000   -0.0000000000
C        0.0493190000   -0.0477620000   -0.0000000000
N       -0.3822680000    0.1281960000   -0.0000000000
H        0.1413890000   -0.0132590000   -0.0000000000
H        0.1405230000    0.0142250000   -0.0000000000
H        0.1438900000   -0.0321280000   -0.0000000000
H        0.1349700000   -0.0178140000   -0.0000000000
H        0.1415060000    0.0012430000   -0.0000000000
C       -0.0911450000   -0.1955900000   -0.0000000000
H        0.1458770000    0.0183480000   -0.0000000000
13   
From optimize.out: Frame 21 / 36, Energy=    -286.9132963059
C       -0.0066720000    0.2409020000   -0.0000000000
C       -0.1001910000   -0.0715560000   -0.0000000000
C       -0.1644210000    0.5577550000   -0.0000000000
C       -0.1491550000    0.4110950000   -0.0000000000
C        0.0528020000   -0.0805870000   -0.0000000000
N       -0.3878920000    0.1734830000   -0.0000000000
H        0.1421730000   -0.0120200000   -0.0000000000
H        0.1398560000    0.0098540000   -0.0000000000
H        0.1424650000   -0.0292690000   -0.0000000000
H        0.1347240000   -0.0206390000   -0.0000000000
H        0.1410070000    0.0028760000   -0.0000000000
C       -0.0892270000   -0.1971220000   -0.0000000000
H        0.1445310000    0.0152270000   -0.0000000000
13   
From optimize.out: Frame 22 / 36, Energy=    -286.9165534532
C       -0.0033920000    0.1875150000   -0.0000000000
C       -0.1024650000   -0.0162430000   -0.0000000000
C       -0.1556100000    0.4867390000   -0.0000000000
C       -0.1521710000    0.4503120000   -0.0000000000
C        0.0557810000   -0.1166060000   -0.0000000000
N       -0.3966650000    0.2299700000   -0.0000000000
H        0.1433730000   -0.0095250000   -0.0000000000
H        0.1401660000    0.0047380000   -0.0000000000
H        0.1404910000   -0.0256750000   -0.0000000000
H        0.1329870000   -0.0229040000   -0.0000000000
H        0.1413660000    0.0046050000   -0.0000000000
C       -0.0877280000   -0.1850530000   -0.0000000000
H        0.1438660000    0.0121270000   -0.0000000000
13   
From optimize.out: Frame 23 / 36, Energy=    -286.9192346348
C        0.0013890000    0.1231720000   -0.0000000000
C       -0.1057370000    0.0478410000   -0.0000000000
C       -0.1463660000    0.4147240000   -0.0000000000
C       -0.1524410000    0.4739120000   -0.0000000000
C        0.0558580000   -0.1425050000   -0.0000000000
N       -0.4033360000    0.2794490000   -0.0000000000
H        0.1443530000   -0.0065510000   -0.0000000000
H        0.1389270000   -0.0003400000   -0.0000000000
H        0.1396640000   -0.0220340000   -0.0000000000
H        0.1337760000   -0.0241200000   -0.0000000000
H        0.1404420000    0.0059110000   -0.0000000000
C       -0.0897500000   -0.1579560000   -0.0000000000
H        0.1432210000    0.0084970000   -0.0000000000
13   
From optimize.out: Frame 24 / 36, Energy=    -286.9212535515
C        0.0072130000    0.0572010000   -0.0000000000
C       -0.1092500000    0.1190830000   -0.0000000000
C       -0.1365870000    0.3352180000   -0.0000000000
C       -0.1497710000    0.4718860000   -0.0000000000
C        0.0542260000   -0.1574350000   -0.0000000000
N       -0.4113890000    0.3279910000   -0.0000000000
H        0.1443280000   -0.0036630000   -0.0000000000
H        0.1384020000   -0.0054700000   -0.0000000000
H        0.1394250000   -0.0180740000   -0.0000000000
H        0.1331030000   -0.0240680000   -0.0000000000
H        0.1408440000    0.0064610000   -0.0000000000
C       -0.0932500000   -0.1140800000   -0.0000000000
H        0.1427040000    0.0049510000   -0.0000000000
13   
From optimize.out: Frame 25 / 36, Energy=    -286.9226474304
C        0.0144200000   -0.0050990000   -0.0000000000
C       -0.1140910000    0.1912950000   -0.0000000000
C       -0.1286470000    0.2615340000   -0.0000000000
C       -0.1459700000    0.4534390000   -0.0000000000
C        0.0504710000   -0.1597890000   -0.0000000000
N       -0.4172170000    0.3611150000   -0.0000000000
H        0.1440790000   -0.0011160000   -0.0000000000
H        0.1371470000   -0.0101560000   -0.0000000000
H        0.1399220000   -0.0145630000   -0.0000000000
H        0.1338100000   -0.0232260000   -0.0000000000
H        0.1409490000    0.0062930000   -0.0000000000
C       -0.0976010000   -0.0611330000   -0.0000000000
H        0.1427300000    0.0014070000   -0.0000000000
13   
From optimize.out: Frame 26 / 36, Energy=    -286.9236393060
C        0.0229450000   -0.0618060000   -0.0000000000
C       -0.1205250000    0.2657890000   -0.0000000000
C       -0.1197670000    0.1809350000   -0.0000000000
C       -0.1395530000    0.4113280000   -0.0000000000
C        0.0444560000   -0.1457980000   -0.0000000000
N       -0.4217740000    0.3840230000   -0.0000000000
H        0.1431720000    0.0011830000   -0.0000000000
H        0.1358600000   -0.0143740000   -0.0000000000
H        0.1409160000   -0.0107340000   -0.0000000000
H        0.1341840000   -0.0213150000   -0.0000000000
H        0.1415090000    0.0052110000   -0.0000000000
C       -0.1038290000    0.0080010000   -0.0000000000
H        0.1424080000   -0.0024440000   -0.0000000000
13   
From optimize.out: Frame 27 / 36, Energy=    -286.9240924059
C        0.0317500000   -0.0996350000   -0.0000000000
C       -0.1277910000    0.3245320000   -0.0000000000
C       -0.1146980000    0.1211760000   -0.0000000000
C       -0.1342910000    0.3680170000   -0.0000000000
C        0.0378680000   -0.1254530000   -0.0000000000
N       -0.4230290000    0.3886660000   -0.0000000000
H        0.1424650000    0.0027790000   -0.0000000000
H        0.1349870000   -0.0172760000   -0.0000000000
H        0.1418380000   -0.0079440000   -0.0000000000
H        0.1345690000   -0.0192900000   -0.0000000000
H        0.1423640000    0.0040580000   -0.0000000000
C       -0.1085310000    0.0656380000   -0.0000000000
H        0.1424980000   -0.0052670000   -0.0000000000
13   
From optimize.out: Frame 28 / 36, Energy=    -286.9242215771
C        0.0343380000   -0.1079330000   -0.0000000000
C       -0.1310070000    0.3399890000   -0.0000000000
C       -0.1120060000    0.1037490000   -0.0000000000
C       -0.1328210000    0.3536060000   -0.0000000000
C        0.0363700000   -0.1168080000   -0.0000000000
N       -0.4226480000    0.3862580000   -0.0000000000
H        0.1426510000    0.0031780000   -0.0000000000
H        0.1342320000   -0.0180120000   -0.0000000000
H        0.1421470000   -0.0071190000   -0.0000000000
H        0.1343720000   -0.0186140000   -0.0000000000
H        0.1427320000    0.0036320000   -0.0000000000
C       -0.1102200000    0.0842350000   -0.0000000000
H        0.1418590000   -0.0061630000   -0.0000000000
13   
From optimize.out: Frame 29 / 36, Energy=    -286.9242770192
C        0.0339310000   -0.1062420000   -0.0000000000
C       -0.1300740000    0.3365030000   -0.0000000000
C       -0.1124280000    0.1061800000   -0.0000000000
C       -0.1325330000    0.3552460000   -0.0000000000
C        0.0371340000   -0.1174760000   -0.0000000000
N       -0.4235260000    0.3867800000   -0.0000000000
H        0.1428260000    0.0030840000   -0.0000000000
H        0.1343460000   -0.0178570000   -0.0000000000
H        0.1420110000   -0.0072180000   -0.0000000000
H        0.1340140000   -0.0187110000   -0.0000000000
H        0.1428240000    0.0036420000   -0.0000000000
C       -0.1104050000    0.0821550000   -0.0000000000
H        0.1418790000   -0.0060860000   -0.0000000000
13   
From optimize.out: Frame 30 / 36, Energy=    -286.9242986986
C        0.0342480000   -0.1076880000   -0.0000000000
C       -0.1305510000    0.3392790000   -0.0000000000
C       -0.1125700000    0.1051920000   -0.0000000000
C       -0.1327810000    0.3564560000   -0.0000000000
C        0.0366990000   -0.1182090000   -0.0000000000
N       -0.4230230000    0.3863810000   -0.0000000000
H        0.1427410000    0.0031580000   -0.0000000000
H        0.1344910000   -0.0179770000   -0.0000000000
H        0.1417870000   -0.0071910000   -0.0000000000
H        0.1342030000   -0.0187690000   -0.0000000000
H        0.1426520000    0.0036880000   -0.0000000000
C       -0.1099080000    0.0817410000   -0.0000000000
H        0.1420100000   -0.0060610000   -0.0000000000
13   
From optimize.out: Frame 31 / 36, Energy=    -286.9243102094
C        0.0348330000   -0.1098470000   -0.0000000000
C       -0.1310080000    0.3428430000   -0.0000000000
C       -0.1121340000    0.1001510000   -0.0000000000
C       -0.1321680000    0.3521520000   -0.0000000000
C        0.0361890000   -0.1157150000   -0.0000000000
N       -0.4230480000    0.3862680000   -0.0000000000
H        0.1426510000    0.0032660000   -0.0000000000
H        0.1344270000   -0.0181450000   -0.0000000000
H        0.1419770000   -0.0069450000   -0.0000000000
H        0.1344050000   -0.0185720000   -0.0000000000
H        0.1425480000    0.0035700000   -0.0000000000
C       -0.1106720000    0.0872990000   -0.0000000000
H        0.1420000000   -0.0063230000   -0.0000000000
13   
From optimize.out: Frame 32 / 36, Energy=    -286.9243200810
C        0.0356800000   -0.1142910000   -0.0000000000
C       -0.1318460000    0.3497880000   -0.0000000000
C       -0.1107720000    0.0899270000   -0.0000000000
C       -0.1311250000    0.3446310000   -0.0000000000
C        0.0351310000   -0.1111600000   -0.0000000000
N       -0.4231130000    0.3868650000   -0.0000000000
H        0.1425250000    0.0034870000   -0.0000000000
H        0.1343360000   -0.0184640000   -0.0000000000
H        0.1420380000   -0.0064480000   -0.0000000000
H        0.1344870000   -0.0182200000   -0.0000000000
H        0.1425620000    0.0033450000   -0.0000000000
C       -0.1117230000    0.0973520000   -0.0000000000
H        0.1418190000   -0.0068110000   -0.0000000000
13   
From optimize.out: Frame 33 / 36, Energy=    -286.9243249140
C        0.0358780000   -0.1149350000   -0.0000000000
C       -0.1320530000    0.3508260000   -0.0000000000
C       -0.1107150000    0.0886980000   -0.0000000000
C       -0.1309890000    0.3431770000   -0.0000000000
C        0.0349900000   -0.1103670000   -0.0000000000
N       -0.4232100000    0.3869390000   -0.0000000000
H        0.1425980000    0.0035180000   -0.0000000000
H        0.1343110000   -0.0185140000   -0.0000000000
H        0.1420550000   -0.0063890000   -0.0000000000
H        0.1344540000   -0.0181540000   -0.0000000000
H        0.1426170000    0.0032990000   -0.0000000000
C       -0.1117980000    0.0987790000   -0.0000000000
H        0.1418600000   -0.0068780000   -0.0000000000
13   
From optimize.out: Frame 34 / 36, Energy=    -286.9243287026
C        0.0361270000   -0.1158640000   -0.0000000000
C       -0.1322810000    0.3524510000   -0.0000000000
C       -0.1106200000    0.0869020000   -0.0000000000
C       -0.1306930000    0.3412900000   -0.0000000000
C        0.0346960000   -0.1093520000   -0.0000000000
N       -0.4232900000    0.3871350000   -0.0000000000
H        0.1426590000    0.0035630000   -0.0000000000
H        0.1342820000   -0.0185890000   -0.0000000000
H        0.1420360000   -0.0063060000   -0.0000000000
H        0.1344360000   -0.0180690000   -0.0000000000
H        0.1426440000    0.0032440000   -0.0000000000
C       -0.1118690000    0.1005570000   -0.0000000000
H        0.1418740000   -0.0069610000   -0.0000000000
13   
From optimize.out: Frame 35 / 36, Energy=    -286.9243309222
C        0.0361910000   -0.1156240000   -0.0000000000
C       -0.1322510000    0.3520990000   -0.0000000000
C       -0.1106920000    0.0873830000   -0.0000000000
C       -0.1308120000    0.3415140000   -0.0000000000
C        0.0347310000   -0.1094760000   -0.0000000000
N       -0.4233510000    0.3870350000   -0.0000000000
H        0.1426630000    0.0035490000   -0.0000000000
H        0.1342950000   -0.0185730000   -0.0000000000
H        0.1419790000   -0.0063320000   -0.0000000000
H        0.1344230000   -0.0180810000   -0.0000000000
H        0.1427140000    0.0032480000   -0.0000000000
C       -0.1117830000    0.1002010000   -0.0000000000
H        0.1418910000   -0.0069450000   -0.0000000000
