13
image # 1 Energy = -286.85167
C 1.10305   0.25276   0.49851   
C 0.89648   -0.97587  -0.40125  
C -0.41771  -1.04258  -0.66971  
C -1.08045  0.14262   0.06146   
C -0.45272  1.41134   -0.55024  
N 0.79974   1.49681   -0.32159  
H 2.06040   0.33342   1.01126   
H 1.68695   -1.62632  -0.75916  
H -0.94115  -1.75281  -1.30046  
H -2.16504  0.11646   0.16736   
H -0.99219  2.15289   -1.13704  
C -0.18319  0.11216   1.30320   
H -0.31418  -0.62088  2.09766   
13
image # 2 Energy = -286.84804
C 1.08978   0.24636   0.48938   
C 0.90361   -0.98767  -0.41160  
C -0.40793  -1.09448  -0.66748  
C -1.09658  0.17591   0.07825   
C -0.45661  1.43103   -0.54247  
N 0.80588   1.48340   -0.33761  
H 2.03896   0.32639   1.01019   
H 1.71904   -1.59936  -0.78933  
H -0.89491  -1.85280  -1.30226  
H -2.19059  0.19312   0.21071   
H -0.98125  2.19112   -1.12409  
C -0.19579  0.11096   1.29626   
H -0.33615  -0.62763  2.08536   
13
image # 3 Energy = -286.84049
C 1.07715   0.23946   0.47903   
C 0.90868   -0.99528  -0.41962  
C -0.40747  -1.14533  -0.67132  
C -1.12022  0.20141   0.09101   
C -0.45381  1.44664   -0.53727  
N 0.80555   1.47111   -0.35213  
H 2.02038   0.31936   1.00958   
H 1.74587   -1.57139  -0.81859  
H -0.84419  -1.93903  -1.29288  
H -2.20437  0.26511   0.25093   
H -0.96963  2.22658   -1.10968  
C -0.20613  0.10827   1.28941   
H -0.35828  -0.63365  2.07175   
13
image # 4 Energy = -286.82966
C 1.06347   0.22863   0.46585   
C 0.89227   -1.00130  -0.43156  
C -0.40079  -1.18667  -0.67319  
C -1.14119  0.21423   0.09696   
C -0.46436  1.45552   -0.54194  
N 0.81426   1.45725   -0.36401  
H 2.00149   0.30997   1.00989   
H 1.77066   -1.52918  -0.85345  
H -0.77692  -2.03876  -1.26510  
H -2.21232  0.35176   0.29880   
H -0.94957  2.26598   -1.08403  
C -0.22043  0.10393   1.27481   
H -0.38664  -0.64032  2.05207   
13
image # 5 Energy = -286.81625
C 1.04951   0.22196   0.45620   
C 0.90329   -1.00990  -0.44656  
C -0.38979  -1.24373  -0.67847  
C -1.15323  0.25667   0.11609   
C -0.46182  1.46061   -0.53930  
N 0.80886   1.44387   -0.37711  
H 1.98067   0.29929   1.00681   
H 1.78157   -1.48718  -0.88277  
H -0.71818  -2.13581  -1.24561  
H -2.22779  0.42884   0.34377   
H -0.93410  2.30368   -1.06420  
C -0.23771  0.09894   1.25778   
H -0.41340  -0.64745  2.03393   
13
image # 6 Energy = -286.80410
C 1.03967   0.22535   0.45000   
C 0.91180   -1.01769  -0.45490  
C -0.35350  -1.32664  -0.69325  
C -1.18232  0.34300   0.17344   
C -0.46131  1.48320   -0.52927  
N 0.80845   1.42870   -0.39067  
H 1.96122   0.29166   1.00118   
H 1.80213   -1.47064  -0.90769  
H -0.68293  -2.21449  -1.25319  
H -2.24474  0.48067   0.37470   
H -0.92835  2.32661   -1.05937  
C -0.25284  0.09216   1.24445   
H -0.43219  -0.65257  2.02097   
13
image # 7 Energy = -286.81495
C 1.02044   0.23749   0.44364   
C 0.93036   -1.02782  -0.46105  
C -0.30313  -1.43023  -0.72859  
C -1.20174  0.48083   0.27590   
C -0.47048  1.51225   -0.51191  
N 0.81729   1.41478   -0.40446  
H 1.95630   0.28799   0.99896   
H 1.82453   -1.47313  -0.91778  
H -0.67202  -2.27197  -1.28409  
H -2.27675  0.50281   0.39175   
H -0.93045  2.32958   -1.06970  
C -0.26912  0.08030   1.22901   
H -0.44149  -0.65342  2.01140   
13
image # 8 Energy = -286.82147
C 1.00680   0.23711   0.44368   
C 0.95243   -1.04534  -0.46946  
C -0.22611  -1.54773  -0.77268  
C -1.22702  0.67120   0.43126   
C -0.47639  1.55410   -0.47936  
N 0.81405   1.40331   -0.43357  
H 1.95430   0.29185   0.99714   
H 1.85351   -1.48376  -0.90192  
H -0.68990  -2.31969  -1.35332  
H -2.30574  0.50320   0.40221   
H -0.94067  2.31286   -1.10214  
C -0.29427  0.06475   1.20352   
H -0.44067  -0.65240  2.00440   
13
image # 9 Energy = -286.82628
C 0.98762   0.21928   0.42928   
C 0.95391   -1.05568  -0.47743  
C -0.19677  -1.61249  -0.76828  
C -1.23581  0.72718   0.46420   
C -0.47633  1.57673   -0.46611  
N 0.80011   1.38453   -0.45431  
H 1.93199   0.28724   0.99466   
H 1.87653   -1.45115  -0.92170  
H -0.64384  -2.39337  -1.35600  
H -2.31432  0.57142   0.44705   
H -0.93249  2.33696   -1.09910  
C -0.31160  0.05839   1.18980   
H -0.46223  -0.65918  1.98489   
13
image # 10 Energy = -286.83045
C 0.97522   0.19710   0.41992   
C 0.96149   -1.06807  -0.48617  
C -0.17115  -1.67562  -0.76412  
C -1.24407  0.77661   0.49849   
C -0.48277  1.60447   -0.45512  
N 0.78639   1.35983   -0.47959  
H 1.90322   0.28325   0.98807   
H 1.89998   -1.41199  -0.93082  
H -0.59952  -2.45989  -1.36276  
H -2.31761  0.64306   0.49812   
H -0.92383  2.35439   -1.09921  
C -0.32951  0.05720   1.17337   
H -0.48355  -0.66928  1.96484   
13
image # 11 Energy = -286.83422
C 0.95166   0.18355   0.40749   
C 0.96845   -1.08640  -0.49499  
C -0.14579  -1.72227  -0.75594  
C -1.25170  0.81141   0.51557   
C -0.48239  1.61409   -0.45164  
N 0.77236   1.33355   -0.50507  
H 1.87628   0.27815   0.98177   
H 1.92261   -1.36548  -0.93734  
H -0.54996  -2.52249  -1.36399  
H -2.32238  0.72631   0.56094   
H -0.91614  2.37322   -1.09896  
C -0.34142  0.04910   1.16677   
H -0.50873  -0.67978  1.93951   
13
image # 12 Energy = -286.83665
C 0.93387   0.16811   0.39640   
C 0.97421   -1.09487  -0.49220  
C -0.12960  -1.75304  -0.75502  
C -1.25054  0.82779   0.52553   
C -0.48397  1.61546   -0.44929  
N 0.76171   1.31147   -0.52737  
H 1.85749   0.27772   0.97643   
H 1.94542   -1.33606  -0.93384  
H -0.51911  -2.55223  -1.37272  
H -2.32566  0.78865   0.61472   
H -0.91341  2.38140   -1.10494  
C -0.35200  0.05322   1.15777   
H -0.52593  -0.69304  1.92859   
13
image # 13 Energy = -286.83841
C 0.92556   0.16429   0.38733   
C 0.98233   -1.10091  -0.50501  
C -0.11275  -1.79346  -0.73470  
C -1.25475  0.84200   0.52583   
C -0.48280  1.63333   -0.45151  
N 0.76092   1.31099   -0.52600  
H 1.84225   0.27009   0.97606   
H 1.93679   -1.31725  -0.98056  
H -0.47316  -2.60849  -1.34188  
H -2.33279  0.83523   0.62839   
H -0.90374  2.40973   -1.08493  
C -0.36704  0.04581   1.15335   
H -0.54813  -0.69497  1.91781   
13
image # 14 Energy = -286.84046
C 0.90809   0.14608   0.36932   
C 0.98078   -1.10221  -0.51277  
C -0.08121  -1.84990  -0.71530  
C -1.26423  0.87966   0.54319   
C -0.48361  1.65215   -0.43492  
N 0.76064   1.30611   -0.53272  
H 1.82553   0.25978   0.97712   
H 1.93436   -1.28857  -1.03220  
H -0.41338  -2.69324  -1.30980  
H -2.33727  0.89358   0.64924   
H -0.89333  2.44917   -1.06659  
C -0.38857  0.04513   1.13281   
H -0.57386  -0.69843  1.89788   
13
image # 15 Energy = -286.84257
C 0.88874   0.13974   0.35656   
C 0.97934   -1.10896  -0.53213  
C -0.05509  -1.90252  -0.69431  
C -1.26959  0.89658   0.53785   
C -0.47819  1.67346   -0.43161  
N 0.75545   1.30853   -0.53501  
H 1.80156   0.24595   0.97270   
H 1.90763   -1.26575  -1.08849  
H -0.32779  -2.77879  -1.26343  
H -2.34091  0.95611   0.67512   
H -0.87244  2.49732   -1.02527  
C -0.40856  0.03990   1.11311   
H -0.60364  -0.69927  1.88222   
13
image # 16 Energy = -286.84429
C 0.86838   0.12785   0.33977   
C 0.97917   -1.11512  -0.54519  
C -0.02751  -1.95417  -0.67802  
C -1.26831  0.91675   0.53551   
C -0.47438  1.68288   -0.42439  
N 0.74561   1.30383   -0.54413  
H 1.77559   0.23474   0.96674   
H 1.89009   -1.23881  -1.13083  
H -0.24452  -2.85603  -1.22784  
H -2.34282  1.02803   0.71687   
H -0.85395  2.54219   -0.99426  
C -0.43399  0.03311   1.09437   
H -0.63303  -0.70030  1.86145   
13
image # 17 Energy = -286.84526
C 0.85077   0.11287   0.32644   
C 0.97665   -1.12260  -0.55524  
C 0.00326   -2.00661  -0.66445  
C -1.27896  0.93918   0.54037   
C -0.47285  1.70328   -0.42468  
N 0.73101   1.29257   -0.55415  
H 1.74465   0.22478   0.95708   
H 1.87721   -1.21200  -1.16544  
H -0.16322  -2.92564  -1.19913  
H -2.33259  1.10164   0.76385   
H -0.83425  2.57658   -0.96379  
C -0.45170  0.03134   1.06552   
H -0.66537  -0.70870  1.84680   
13
image # 18 Energy = -286.84663
C 0.82220   0.10006   0.30687   
C 0.96879   -1.14001  -0.56987  
C 0.04742   -2.05482  -0.64918  
C -1.27637  0.96975   0.55214   
C -0.48177  1.72428   -0.41397  
N 0.72559   1.28124   -0.56888  
H 1.71401   0.21682   0.94805   
H 1.86891   -1.19041  -1.19352  
H -0.08726  -2.99280  -1.18357  
H -2.32389  1.16866   0.80996   
H -0.81796  2.61068   -0.94250  
C -0.47624  0.02490   1.05581   
H -0.69663  -0.71124  1.82508   
13
image # 19 Energy = -286.84791
C 0.79860   0.08461   0.28442   
C 0.97336   -1.14547  -0.58397  
C 0.08346   -2.12276  -0.63797  
C -1.28532  1.00044   0.57388   
C -0.48337  1.74629   -0.40389  
N 0.71657   1.27056   -0.58501  
H 1.67745   0.20797   0.93572   
H 1.85901   -1.17006  -1.22027  
H -0.00742  -3.05415  -1.16484  
H -2.30361  1.23437   0.85509   
H -0.80281  2.64683   -0.92244  
C -0.50597  0.02319   1.04705   
H -0.73160  -0.71537  1.80251   
13
image # 20 Energy = -286.84914
C 0.77044   0.06956   0.26321   
C 0.96468   -1.16307  -0.59862  
C 0.13154   -2.17346  -0.62274  
C -1.29114  1.03383   0.59000   
C -0.47090  1.76435   -0.39504  
N 0.69269   1.26468   -0.60020  
H 1.63963   0.19862   0.92334   
H 1.84925   -1.15032  -1.24696  
H 0.07429   -3.11815  -1.14712  
H -2.28551  1.29970   0.90209   
H -0.78732  2.68193   -0.90168  
C -0.52664  0.02208   1.03486   
H -0.77079  -0.72425  1.78348   
13
image # 21 Energy = -286.84991
C 0.74001   0.05629   0.24408   
C 0.96411   -1.17583  -0.61133  
C 0.17675   -2.22673  -0.61393  
C -1.28669  1.07420   0.60898   
C -0.47312  1.78662   -0.38382  
N 0.67823   1.25261   -0.61541  
H 1.60731   0.18901   0.91276   
H 1.83744   -1.13209  -1.26908  
H 0.14934   -3.17679  -1.12796  
H -2.27445  1.35935   0.94570   
H -0.77178  2.70811   -0.88170  
C -0.54745  0.01799   1.02144   
H -0.80625  -0.72883  1.75966   
13
image # 22 Energy = -286.84940
C 0.71485   0.04395   0.22579   
C 0.96186   -1.18893  -0.62127  
C 0.21910   -2.27269  -0.60714  
C -1.29290  1.11184   0.62959   
C -0.46701  1.80176   -0.37222  
N 0.65999   1.24380   -0.62959  
H 1.57622   0.17969   0.90213   
H 1.82692   -1.11641  -1.28880  
H 0.21810   -3.22878  -1.10953  
H -2.25655  1.41029   0.98263   
H -0.75841  2.73358   -0.86477  
C -0.56763  0.01399   1.01353   
H -0.83839  -0.73001  1.73416   
13
image # 23 Energy = -286.85059
C 0.68503   0.02956   0.20587   
C 0.95844   -1.20525  -0.63315  
C 0.26607   -2.31920  -0.59845  
C -1.28054  1.13443   0.65205   
C -0.46576  1.82470   -0.35874  
N 0.64333   1.23174   -0.64618  
H 1.54084   0.16925   0.88975   
H 1.81482   -1.10077  -1.30953  
H 0.29531   -3.28388  -1.08923  
H -2.24217  1.46768   1.02582   
H -0.74200  2.75960   -0.84510  
C -0.59645  0.02858   0.99650   
H -0.87692  -0.73644  1.71037   
