13   
From optimize.out: Frame 1 / 17, Energy=    -286.7157761222
C        0.1012510000   -0.1091860000   -0.0000000000
C       -0.2264080000    0.4265230000   -0.0000000000
C       -0.1290410000    0.0460420000   -0.0000000000
C       -0.1187220000    0.7849340000   -0.0000000000
C       -0.0806820000   -0.0441190000   -0.0000000000
N       -0.3555990000    0.2012850000   -0.0000000000
H        0.1639890000    0.0115790000   -0.0000000000
H        0.1445930000   -0.0176320000   -0.0000000000
H        0.1638620000    0.0192790000   -0.0000000000
H        0.1626090000   -0.0430700000   -0.0000000000
H        0.1434320000    0.0068270000   -0.0000000000
C       -0.1237920000   -0.2885600000   -0.0000000000
H        0.1545080000    0.0060980000   -0.0000000000
13   
From optimize.out: Frame 2 / 17, Energy=    -286.7574040054
C        0.1044480000   -0.0986320000   -0.0000000000
C       -0.2202730000    0.3471600000   -0.0000000000
C       -0.1302150000    0.0524680000   -0.0000000000
C       -0.1085210000    0.7987220000   -0.0000000000
C       -0.0809220000   -0.0411720000   -0.0000000000
N       -0.3610470000    0.1910050000   -0.0000000000
H        0.1559670000    0.0108110000   -0.0000000000
H        0.1493040000   -0.0142250000   -0.0000000000
H        0.1619570000    0.0214930000   -0.0000000000
H        0.1599740000   -0.0412200000   -0.0000000000
H        0.1454310000    0.0079920000   -0.0000000000
C       -0.1328200000   -0.2388120000   -0.0000000000
H        0.1567180000    0.0044100000   -0.0000000000
13   
From optimize.out: Frame 3 / 17, Energy=    -286.7889980948
C        0.1048490000   -0.0704900000   -0.0000000000
C       -0.2127430000    0.2317700000   -0.0000000000
C       -0.1243940000    0.0624080000   -0.0000000000
C       -0.0952430000    0.8423890000   -0.0000000000
C       -0.0833240000   -0.0360420000   -0.0000000000
N       -0.3610550000    0.1403700000   -0.0000000000
H        0.1499350000    0.0086700000   -0.0000000000
H        0.1521520000   -0.0088800000   -0.0000000000
H        0.1569450000    0.0229610000   -0.0000000000
H        0.1554420000   -0.0392140000   -0.0000000000
H        0.1451370000    0.0083030000   -0.0000000000
C       -0.1457920000   -0.1640120000   -0.0000000000
H        0.1580920000    0.0017670000   -0.0000000000
13   
From optimize.out: Frame 4 / 17, Energy=    -286.8103184649
C        0.1020560000   -0.0371540000   -0.0000000000
C       -0.2036800000    0.1305670000   -0.0000000000
C       -0.1169790000    0.0714960000   -0.0000000000
C       -0.0832890000    0.8943860000   -0.0000000000
C       -0.0879240000   -0.0325610000   -0.0000000000
N       -0.3553820000    0.0747590000   -0.0000000000
H        0.1463320000    0.0061020000   -0.0000000000
H        0.1537900000   -0.0040390000   -0.0000000000
H        0.1521720000    0.0222330000   -0.0000000000
H        0.1494350000   -0.0370500000   -0.0000000000
H        0.1438750000    0.0072620000   -0.0000000000
C       -0.1579380000   -0.0956650000   -0.0000000000
H        0.1575320000   -0.0003380000   -0.0000000000
13   
From optimize.out: Frame 5 / 17, Energy=    -286.8234886508
C        0.0994090000   -0.0144700000   -0.0000000000
C       -0.1956010000    0.0725880000   -0.0000000000
C       -0.1112260000    0.0800000000   -0.0000000000
C       -0.0760510000    0.9302740000   -0.0000000000
C       -0.0932300000   -0.0327010000   -0.0000000000
N       -0.3492130000    0.0343460000   -0.0000000000
H        0.1444660000    0.0045010000   -0.0000000000
H        0.1530780000   -0.0011160000   -0.0000000000
H        0.1492870000    0.0194700000   -0.0000000000
H        0.1440980000   -0.0356800000   -0.0000000000
H        0.1431390000    0.0056130000   -0.0000000000
C       -0.1633060000   -0.0619790000   -0.0000000000
H        0.1551480000   -0.0008460000   -0.0000000000
13   
From optimize.out: Frame 6 / 17, Energy=    -286.8308169607
C        0.0986620000   -0.0040550000   -0.0000000000
C       -0.1932510000    0.0527350000   -0.0000000000
C       -0.1087060000    0.0869640000   -0.0000000000
C       -0.0732200000    0.9449940000   -0.0000000000
C       -0.0955370000   -0.0353220000   -0.0000000000
N       -0.3450900000    0.0204170000   -0.0000000000
H        0.1436390000    0.0038680000   -0.0000000000
H        0.1510120000    0.0000930000   -0.0000000000
H        0.1480910000    0.0164300000   -0.0000000000
H        0.1417260000   -0.0355170000   -0.0000000000
H        0.1428070000    0.0049130000   -0.0000000000
C       -0.1626340000   -0.0549820000   -0.0000000000
H        0.1525010000   -0.0005370000   -0.0000000000
13   
From optimize.out: Frame 7 / 17, Energy=    -286.8348247887
C        0.0981550000    0.0018330000   -0.0000000000
C       -0.1935750000    0.0417870000   -0.0000000000
C       -0.1080040000    0.0942400000   -0.0000000000
C       -0.0734740000    0.9519800000   -0.0000000000
C       -0.0964190000   -0.0382780000   -0.0000000000
N       -0.3415920000    0.0143410000   -0.0000000000
H        0.1434990000    0.0037400000   -0.0000000000
H        0.1492730000    0.0008170000   -0.0000000000
H        0.1478230000    0.0135560000   -0.0000000000
H        0.1399540000   -0.0361830000   -0.0000000000
H        0.1427020000    0.0046770000   -0.0000000000
C       -0.1589640000   -0.0523550000   -0.0000000000
H        0.1506230000   -0.0001550000   -0.0000000000
13   
From optimize.out: Frame 8 / 17, Energy=    -286.8355571031
C        0.0956800000    0.0045960000   -0.0000000000
C       -0.1903910000    0.0422110000   -0.0000000000
C       -0.1057640000    0.1003610000   -0.0000000000
C       -0.0704520000    0.9512700000   -0.0000000000
C       -0.0986550000   -0.0406050000   -0.0000000000
N       -0.3382310000    0.0135440000   -0.0000000000
H        0.1428810000    0.0034620000   -0.0000000000
H        0.1499190000    0.0010030000   -0.0000000000
H        0.1483950000    0.0108020000   -0.0000000000
H        0.1409630000   -0.0376410000   -0.0000000000
H        0.1416290000    0.0048870000   -0.0000000000
C       -0.1659190000   -0.0539490000   -0.0000000000
H        0.1499450000    0.0000590000   -0.0000000000
13   
From optimize.out: Frame 9 / 17, Energy=    -286.8356440959
C        0.0981190000    0.0088120000   -0.0000000000
C       -0.1923350000    0.0307730000   -0.0000000000
C       -0.1064660000    0.1108470000   -0.0000000000
C       -0.0723650000    0.9548100000   -0.0000000000
C       -0.1007330000   -0.0438300000   -0.0000000000
N       -0.3367920000    0.0108610000   -0.0000000000
H        0.1441260000    0.0038790000   -0.0000000000
H        0.1482980000    0.0013340000   -0.0000000000
H        0.1493680000    0.0078320000   -0.0000000000
H        0.1379440000   -0.0389620000   -0.0000000000
H        0.1423090000    0.0047770000   -0.0000000000
C       -0.1601550000   -0.0516250000   -0.0000000000
H        0.1486830000    0.0004930000   -0.0000000000
13   
From optimize.out: Frame 10 / 17, Energy=    -286.8359926413
C        0.0944580000    0.0050330000   -0.0000000000
C       -0.1949280000    0.0392280000   -0.0000000000
C       -0.1088700000    0.1038890000   -0.0000000000
C       -0.0741000000    0.9513920000   -0.0000000000
C       -0.0958510000   -0.0419240000   -0.0000000000
N       -0.3363770000    0.0129990000   -0.0000000000
H        0.1435530000    0.0041640000   -0.0000000000
H        0.1482240000    0.0016510000   -0.0000000000
H        0.1490380000    0.0094280000   -0.0000000000
H        0.1396770000   -0.0387550000   -0.0000000000
H        0.1420130000    0.0055460000   -0.0000000000
C       -0.1569590000   -0.0528700000   -0.0000000000
H        0.1501210000    0.0002190000   -0.0000000000
13   
From optimize.out: Frame 12 / 17, Energy=    -286.8364750842
C        0.0969940000    0.0064410000   -0.0000000000
C       -0.1923630000    0.0371920000   -0.0000000000
C       -0.1064980000    0.1062300000   -0.0000000000
C       -0.0712950000    0.9521640000   -0.0000000000
C       -0.0999600000   -0.0427270000   -0.0000000000
N       -0.3373960000    0.0126180000   -0.0000000000
H        0.1437430000    0.0038810000   -0.0000000000
H        0.1486660000    0.0013560000   -0.0000000000
H        0.1493110000    0.0089330000   -0.0000000000
H        0.1393210000   -0.0389690000   -0.0000000000
H        0.1419320000    0.0052620000   -0.0000000000
C       -0.1620790000   -0.0526650000   -0.0000000000
H        0.1496220000    0.0002840000   -0.0000000000
13   
From optimize.out: Frame 14 / 17, Energy=    -286.8364997532
C        0.0964610000    0.0061970000   -0.0000000000
C       -0.1921930000    0.0367370000   -0.0000000000
C       -0.1072750000    0.1071580000   -0.0000000000
C       -0.0716220000    0.9521220000   -0.0000000000
C       -0.0993790000   -0.0429580000   -0.0000000000
N       -0.3373800000    0.0127290000   -0.0000000000
H        0.1437850000    0.0039550000   -0.0000000000
H        0.1486680000    0.0014330000   -0.0000000000
H        0.1494250000    0.0087290000   -0.0000000000
H        0.1394500000   -0.0392510000   -0.0000000000
H        0.1419800000    0.0053390000   -0.0000000000
C       -0.1615660000   -0.0525190000   -0.0000000000
H        0.1496470000    0.0003290000   -0.0000000000
13   
From optimize.out: Frame 15 / 17, Energy=    -286.8365024097
C        0.0963430000    0.0066460000   -0.0000000000
C       -0.1920720000    0.0365540000   -0.0000000000
C       -0.1069970000    0.1074360000   -0.0000000000
C       -0.0713810000    0.9522870000   -0.0000000000
C       -0.0998380000   -0.0431400000   -0.0000000000
N       -0.3370060000    0.0125190000   -0.0000000000
H        0.1436830000    0.0039480000   -0.0000000000
H        0.1486800000    0.0014310000   -0.0000000000
H        0.1495030000    0.0086300000   -0.0000000000
H        0.1394530000   -0.0393030000   -0.0000000000
H        0.1418390000    0.0053710000   -0.0000000000
C       -0.1618470000   -0.0527130000   -0.0000000000
H        0.1496410000    0.0003350000   -0.0000000000
13   
From optimize.out: Frame 16 / 17, Energy=    -286.8365048754
C        0.0964040000    0.0066290000   -0.0000000000
C       -0.1921260000    0.0365840000   -0.0000000000
C       -0.1071160000    0.1076310000   -0.0000000000
C       -0.0713910000    0.9523660000   -0.0000000000
C       -0.0997980000   -0.0433100000   -0.0000000000
N       -0.3371250000    0.0125740000   -0.0000000000
H        0.1437450000    0.0039510000   -0.0000000000
H        0.1486510000    0.0014410000   -0.0000000000
H        0.1495460000    0.0085700000   -0.0000000000
H        0.1394520000   -0.0394060000   -0.0000000000
H        0.1418960000    0.0054070000   -0.0000000000
C       -0.1617670000   -0.0527980000   -0.0000000000
H        0.1496290000    0.0003610000   -0.0000000000
