13   
From optimize.out: Frame 1 / 35, Energy=    -286.6050347009
C        0.0586340000   -0.1691560000   -0.0000000000
C       -0.1937700000    0.3415610000   -0.0000000000
C       -0.2040600000    0.7930870000   -0.0000000000
C       -0.1634050000   -0.2864040000   -0.0000000000
C       -0.0196140000   -0.4542140000   -0.0000000000
N       -0.3841360000    0.2741540000   -0.0000000000
H        0.1670510000    0.0119630000   -0.0000000000
H        0.1689930000   -0.0100640000   -0.0000000000
H        0.1726860000   -0.0397870000   -0.0000000000
H        0.1683690000    0.0473780000   -0.0000000000
H        0.1903960000    0.0263170000   -0.0000000000
C       -0.1385770000    0.4815160000   -0.0000000000
H        0.1774340000   -0.0163520000   -0.0000000000
13   
From optimize.out: Frame 2 / 35, Energy=    -286.6696999362
C        0.0501560000   -0.0870450000   -0.0000000000
C       -0.1831760000    0.1668080000   -0.0000000000
C       -0.2079010000    0.8529880000   -0.0000000000
C       -0.1562140000   -0.2094770000   -0.0000000000
C       -0.0073580000   -0.2403130000   -0.0000000000
N       -0.3771030000    0.1681180000   -0.0000000000
H        0.1575820000    0.0079970000   -0.0000000000
H        0.1646060000   -0.0019200000   -0.0000000000
H        0.1721490000   -0.0391210000   -0.0000000000
H        0.1680110000    0.0433290000   -0.0000000000
H        0.1863170000    0.0161880000   -0.0000000000
C       -0.1385710000    0.3352950000   -0.0000000000
H        0.1715020000   -0.0128460000   -0.0000000000
13   
From optimize.out: Frame 3 / 35, Energy=    -286.7267328039
C        0.0378490000   -0.0186520000   -0.0000000000
C       -0.1699230000    0.0317140000   -0.0000000000
C       -0.2109660000    0.9210180000   -0.0000000000
C       -0.1536800000   -0.1416270000   -0.0000000000
C        0.0075490000   -0.0839200000   -0.0000000000
N       -0.3651650000    0.0788920000   -0.0000000000
H        0.1507550000    0.0050820000   -0.0000000000
H        0.1600850000    0.0063180000   -0.0000000000
H        0.1684240000   -0.0419390000   -0.0000000000
H        0.1664340000    0.0380750000   -0.0000000000
H        0.1782640000    0.0077740000   -0.0000000000
C       -0.1351900000    0.2064100000   -0.0000000000
H        0.1655640000   -0.0091460000   -0.0000000000
13   
From optimize.out: Frame 4 / 35, Energy=    -286.7699066942
C        0.0262340000    0.0066530000   -0.0000000000
C       -0.1583110000   -0.0162280000   -0.0000000000
C       -0.2099220000    0.9703510000   -0.0000000000
C       -0.1545670000   -0.0808760000   -0.0000000000
C        0.0163490000   -0.0364890000   -0.0000000000
N       -0.3507210000    0.0458830000   -0.0000000000
H        0.1467490000    0.0043110000   -0.0000000000
H        0.1558790000    0.0117360000   -0.0000000000
H        0.1646860000   -0.0441240000   -0.0000000000
H        0.1641640000    0.0315240000   -0.0000000000
H        0.1687890000    0.0046330000   -0.0000000000
C       -0.1285490000    0.1077150000   -0.0000000000
H        0.1592210000   -0.0050890000   -0.0000000000
13   
From optimize.out: Frame 5 / 35, Energy=    -286.7998354944
C        0.0210070000    0.0167980000   -0.0000000000
C       -0.1510530000   -0.0355220000   -0.0000000000
C       -0.2051210000    0.9984690000   -0.0000000000
C       -0.1551720000   -0.0330990000   -0.0000000000
C        0.0171440000   -0.0229520000   -0.0000000000
N       -0.3447350000    0.0333990000   -0.0000000000
H        0.1446220000    0.0038630000   -0.0000000000
H        0.1520100000    0.0156530000   -0.0000000000
H        0.1623840000   -0.0455470000   -0.0000000000
H        0.1626060000    0.0259710000   -0.0000000000
H        0.1626200000    0.0031300000   -0.0000000000
C       -0.1196260000    0.0390750000   -0.0000000000
H        0.1533130000    0.0007620000   -0.0000000000
13   
From optimize.out: Frame 6 / 35, Energy=    -286.8199200278
C        0.0201200000    0.0241090000   -0.0000000000
C       -0.1481120000   -0.0492020000   -0.0000000000
C       -0.1992900000    1.0154770000   -0.0000000000
C       -0.1540340000   -0.0000480000   -0.0000000000
C        0.0158940000   -0.0141070000   -0.0000000000
N       -0.3440360000    0.0234470000   -0.0000000000
H        0.1431620000    0.0035200000   -0.0000000000
H        0.1492600000    0.0190380000   -0.0000000000
H        0.1610530000   -0.0466220000   -0.0000000000
H        0.1613740000    0.0213280000   -0.0000000000
H        0.1582630000    0.0019000000   -0.0000000000
C       -0.1131320000   -0.0074750000   -0.0000000000
H        0.1494760000    0.0086350000   -0.0000000000
13   
From optimize.out: Frame 7 / 35, Energy=    -286.8332250146
C        0.0205670000    0.0315750000   -0.0000000000
C       -0.1469060000   -0.0610180000   -0.0000000000
C       -0.1948210000    1.0268930000   -0.0000000000
C       -0.1508460000    0.0188450000   -0.0000000000
C        0.0159400000   -0.0056240000   -0.0000000000
N       -0.3441130000    0.0139830000   -0.0000000000
H        0.1424410000    0.0032160000   -0.0000000000
H        0.1476350000    0.0219010000   -0.0000000000
H        0.1605070000   -0.0470180000   -0.0000000000
H        0.1597370000    0.0173700000   -0.0000000000
H        0.1541890000    0.0009130000   -0.0000000000
C       -0.1120190000   -0.0364740000   -0.0000000000
H        0.1476890000    0.0154370000   -0.0000000000
13   
From optimize.out: Frame 8 / 35, Energy=    -286.8433595581
C        0.0216980000    0.0392640000   -0.0000000000
C       -0.1460210000   -0.0706270000   -0.0000000000
C       -0.1916340000    1.0316070000   -0.0000000000
C       -0.1473270000    0.0291560000   -0.0000000000
C        0.0163430000    0.0012100000   -0.0000000000
N       -0.3457450000    0.0064740000   -0.0000000000
H        0.1422180000    0.0029180000   -0.0000000000
H        0.1464850000    0.0241290000   -0.0000000000
H        0.1601570000   -0.0468390000   -0.0000000000
H        0.1574870000    0.0146770000   -0.0000000000
H        0.1513890000    0.0002420000   -0.0000000000
C       -0.1121620000   -0.0531690000   -0.0000000000
H        0.1471120000    0.0209560000   -0.0000000000
13   
From optimize.out: Frame 9 / 35, Energy=    -286.8517835581
C        0.0227870000    0.0488010000   -0.0000000000
C       -0.1453500000   -0.0799740000   -0.0000000000
C       -0.1890720000    1.0316440000   -0.0000000000
C       -0.1431620000    0.0361020000   -0.0000000000
C        0.0175040000    0.0073780000   -0.0000000000
N       -0.3479350000    0.0005490000   -0.0000000000
H        0.1420940000    0.0024800000   -0.0000000000
H        0.1456500000    0.0258940000   -0.0000000000
H        0.1599820000   -0.0463200000   -0.0000000000
H        0.1550560000    0.0125540000   -0.0000000000
H        0.1490070000   -0.0002710000   -0.0000000000
C       -0.1136420000   -0.0640850000   -0.0000000000
H        0.1470810000    0.0252500000   -0.0000000000
13   
From optimize.out: Frame 10 / 35, Energy=    -286.8590100699
C        0.0239270000    0.0605110000   -0.0000000000
C       -0.1446150000   -0.0895260000   -0.0000000000
C       -0.1872010000    1.0264930000   -0.0000000000
C       -0.1389680000    0.0429070000   -0.0000000000
C        0.0186160000    0.0127740000   -0.0000000000
N       -0.3508500000   -0.0037680000   -0.0000000000
H        0.1420710000    0.0018340000   -0.0000000000
H        0.1448550000    0.0272910000   -0.0000000000
H        0.1597320000   -0.0458390000   -0.0000000000
H        0.1524080000    0.0109050000   -0.0000000000
H        0.1472830000   -0.0006530000   -0.0000000000
C       -0.1146880000   -0.0720250000   -0.0000000000
H        0.1474290000    0.0290950000   -0.0000000000
13   
From optimize.out: Frame 11 / 35, Energy=    -286.8653295732
C        0.0241340000    0.0773390000   -0.0000000000
C       -0.1431380000   -0.1012980000   -0.0000000000
C       -0.1856660000    1.0160530000   -0.0000000000
C       -0.1344420000    0.0510660000   -0.0000000000
C        0.0205900000    0.0187580000   -0.0000000000
N       -0.3535820000   -0.0068860000   -0.0000000000
H        0.1418780000    0.0008120000   -0.0000000000
H        0.1441580000    0.0284120000   -0.0000000000
H        0.1595800000   -0.0451460000   -0.0000000000
H        0.1500340000    0.0090490000   -0.0000000000
H        0.1456770000   -0.0010580000   -0.0000000000
C       -0.1168460000   -0.0787090000   -0.0000000000
H        0.1476230000    0.0316090000   -0.0000000000
13   
From optimize.out: Frame 12 / 35, Energy=    -286.8709101458
C        0.0239090000    0.0969310000   -0.0000000000
C       -0.1410160000   -0.1129520000   -0.0000000000
C       -0.1852600000    0.9987980000   -0.0000000000
C       -0.1311520000    0.0639200000   -0.0000000000
C        0.0220810000    0.0237280000   -0.0000000000
N       -0.3561790000   -0.0081010000   -0.0000000000
H        0.1417800000   -0.0004920000   -0.0000000000
H        0.1433020000    0.0290710000   -0.0000000000
H        0.1589570000   -0.0447670000   -0.0000000000
H        0.1476460000    0.0073610000   -0.0000000000
H        0.1445880000   -0.0013510000   -0.0000000000
C       -0.1167280000   -0.0862580000   -0.0000000000
H        0.1480710000    0.0341120000   -0.0000000000
13   
From optimize.out: Frame 13 / 35, Energy=    -286.8760189169
C        0.0222760000    0.1234720000   -0.0000000000
C       -0.1370670000   -0.1269400000   -0.0000000000
C       -0.1852870000    0.9737990000   -0.0000000000
C       -0.1283300000    0.0797420000   -0.0000000000
C        0.0246350000    0.0295950000   -0.0000000000
N       -0.3587750000   -0.0075350000   -0.0000000000
H        0.1413900000   -0.0022240000   -0.0000000000
H        0.1425680000    0.0294380000   -0.0000000000
H        0.1583400000   -0.0440350000   -0.0000000000
H        0.1457250000    0.0051580000   -0.0000000000
H        0.1438200000   -0.0017590000   -0.0000000000
C       -0.1170650000   -0.0936400000   -0.0000000000
H        0.1477690000    0.0349290000   -0.0000000000
13   
From optimize.out: Frame 14 / 35, Energy=    -286.8808383662
C        0.0196090000    0.1520820000   -0.0000000000
C       -0.1324950000   -0.1392290000   -0.0000000000
C       -0.1859310000    0.9422030000   -0.0000000000
C       -0.1270060000    0.1018120000   -0.0000000000
C        0.0266540000    0.0336870000   -0.0000000000
N       -0.3600470000   -0.0045820000   -0.0000000000
H        0.1411680000   -0.0042240000   -0.0000000000
H        0.1417160000    0.0291950000   -0.0000000000
H        0.1573050000   -0.0434100000   -0.0000000000
H        0.1440920000    0.0028820000   -0.0000000000
H        0.1428620000   -0.0020140000   -0.0000000000
C       -0.1156660000   -0.1033790000   -0.0000000000
H        0.1477390000    0.0349770000   -0.0000000000
13   
From optimize.out: Frame 15 / 35, Energy=    -286.8855427075
C        0.0161950000    0.1839370000   -0.0000000000
C       -0.1266740000   -0.1500240000   -0.0000000000
C       -0.1865290000    0.9011820000   -0.0000000000
C       -0.1271840000    0.1298490000   -0.0000000000
C        0.0290070000    0.0361420000   -0.0000000000
N       -0.3622570000    0.0015550000   -0.0000000000
H        0.1407140000   -0.0063390000   -0.0000000000
H        0.1410430000    0.0284680000   -0.0000000000
H        0.1558800000   -0.0425170000   -0.0000000000
H        0.1423850000    0.0002280000   -0.0000000000
H        0.1428040000   -0.0022370000   -0.0000000000
C       -0.1127020000   -0.1148330000   -0.0000000000
H        0.1473170000    0.0345890000   -0.0000000000
13   
From optimize.out: Frame 16 / 35, Energy=    -286.8902066357
C        0.0115870000    0.2166600000   -0.0000000000
C       -0.1203050000   -0.1582470000   -0.0000000000
C       -0.1865200000    0.8559640000   -0.0000000000
C       -0.1281200000    0.1607720000   -0.0000000000
C        0.0315310000    0.0366260000   -0.0000000000
N       -0.3636590000    0.0099820000   -0.0000000000
H        0.1403950000   -0.0086180000   -0.0000000000
H        0.1404640000    0.0272250000   -0.0000000000
H        0.1542520000   -0.0412520000   -0.0000000000
H        0.1410980000   -0.0025960000   -0.0000000000
H        0.1423140000   -0.0023590000   -0.0000000000
C       -0.1099480000   -0.1267720000   -0.0000000000
H        0.1469120000    0.0326140000   -0.0000000000
13   
From optimize.out: Frame 17 / 35, Energy=    -286.8948492558
C        0.0064930000    0.2474190000   -0.0000000000
C       -0.1139560000   -0.1618280000   -0.0000000000
C       -0.1856020000    0.8048860000   -0.0000000000
C       -0.1306240000    0.1979820000   -0.0000000000
C        0.0342240000    0.0327450000   -0.0000000000
N       -0.3652670000    0.0225250000   -0.0000000000
H        0.1400570000   -0.0107560000   -0.0000000000
H        0.1399890000    0.0252950000   -0.0000000000
H        0.1522390000   -0.0396640000   -0.0000000000
H        0.1398120000   -0.0057280000   -0.0000000000
H        0.1421160000   -0.0022620000   -0.0000000000
C       -0.1060500000   -0.1407910000   -0.0000000000
H        0.1465700000    0.0301770000   -0.0000000000
13   
From optimize.out: Frame 18 / 35, Energy=    -286.8994639842
C        0.0012290000    0.2740530000   -0.0000000000
C       -0.1077520000   -0.1605050000   -0.0000000000
C       -0.1836380000    0.7508060000   -0.0000000000
C       -0.1342410000    0.2388140000   -0.0000000000
C        0.0374320000    0.0242070000   -0.0000000000
N       -0.3676700000    0.0391910000   -0.0000000000
H        0.1398920000   -0.0126670000   -0.0000000000
H        0.1398290000    0.0229210000   -0.0000000000
H        0.1497510000   -0.0376990000   -0.0000000000
H        0.1385130000   -0.0089790000   -0.0000000000
H        0.1421020000   -0.0019480000   -0.0000000000
C       -0.1017300000   -0.1554030000   -0.0000000000
H        0.1462820000    0.0272090000   -0.0000000000
13   
From optimize.out: Frame 19 / 35, Energy=    -286.9039623634
C       -0.0034710000    0.2902340000   -0.0000000000
C       -0.1030630000   -0.1518260000   -0.0000000000
C       -0.1801870000    0.6973630000   -0.0000000000
C       -0.1389100000    0.2841090000   -0.0000000000
C        0.0409780000    0.0081940000   -0.0000000000
N       -0.3700870000    0.0619310000   -0.0000000000
H        0.1399440000   -0.0139890000   -0.0000000000
H        0.1394870000    0.0197970000   -0.0000000000
H        0.1474530000   -0.0355410000   -0.0000000000
H        0.1375240000   -0.0124340000   -0.0000000000
H        0.1418460000   -0.0012220000   -0.0000000000
C       -0.0973460000   -0.1706010000   -0.0000000000
H        0.1458330000    0.0239860000   -0.0000000000
13   
From optimize.out: Frame 20 / 35, Energy=    -286.9083049884
C       -0.0068440000    0.2946550000   -0.0000000000
C       -0.0989930000   -0.1352040000   -0.0000000000
C       -0.1758210000    0.6406200000   -0.0000000000
C       -0.1446030000    0.3342900000   -0.0000000000
C        0.0453560000   -0.0159460000   -0.0000000000
N       -0.3751130000    0.0928900000   -0.0000000000
H        0.1403060000   -0.0145990000   -0.0000000000
H        0.1397970000    0.0164460000   -0.0000000000
H        0.1442060000   -0.0330450000   -0.0000000000
H        0.1359710000   -0.0158650000   -0.0000000000
H        0.1422560000   -0.0000920000   -0.0000000000
C       -0.0924390000   -0.1850200000   -0.0000000000
H        0.1459220000    0.0208710000   -0.0000000000
13   
From optimize.out: Frame 21 / 35, Energy=    -286.9122994408
C       -0.0081560000    0.2779620000   -0.0000000000
C       -0.0981670000   -0.1074560000   -0.0000000000
C       -0.1691340000    0.5890720000   -0.0000000000
C       -0.1494580000    0.3817070000   -0.0000000000
C        0.0492790000   -0.0466710000   -0.0000000000
N       -0.3795750000    0.1308850000   -0.0000000000
H        0.1410510000   -0.0140680000   -0.0000000000
H        0.1392000000    0.0123970000   -0.0000000000
H        0.1425400000   -0.0305980000   -0.0000000000
H        0.1351830000   -0.0190090000   -0.0000000000
H        0.1418650000    0.0014680000   -0.0000000000
C       -0.0894330000   -0.1934770000   -0.0000000000
H        0.1448060000    0.0177900000   -0.0000000000
13   
From optimize.out: Frame 22 / 35, Energy=    -286.9159186483
C       -0.0066530000    0.2392790000   -0.0000000000
C       -0.0984270000   -0.0642920000   -0.0000000000
C       -0.1616730000    0.5263690000   -0.0000000000
C       -0.1543310000    0.4317560000   -0.0000000000
C        0.0532890000   -0.0847390000   -0.0000000000
N       -0.3875780000    0.1810200000   -0.0000000000
H        0.1421530000   -0.0123260000   -0.0000000000
H        0.1392830000    0.0079560000   -0.0000000000
H        0.1399020000   -0.0275120000   -0.0000000000
H        0.1338440000   -0.0218810000   -0.0000000000
H        0.1421220000    0.0034000000   -0.0000000000
C       -0.0868530000   -0.1935750000   -0.0000000000
H        0.1449220000    0.0145460000   -0.0000000000
13   
From optimize.out: Frame 23 / 35, Energy=    -286.9189157220
C       -0.0032470000    0.1836140000   -0.0000000000
C       -0.1009400000   -0.0092080000   -0.0000000000
C       -0.1524110000    0.4624960000   -0.0000000000
C       -0.1555870000    0.4640250000   -0.0000000000
C        0.0552840000   -0.1180800000   -0.0000000000
N       -0.3953930000    0.2333780000   -0.0000000000
H        0.1431660000   -0.0097360000   -0.0000000000
H        0.1386870000    0.0031970000   -0.0000000000
H        0.1392230000   -0.0243030000   -0.0000000000
H        0.1329400000   -0.0236100000   -0.0000000000
H        0.1419500000    0.0051360000   -0.0000000000
C       -0.0872580000   -0.1783190000   -0.0000000000
H        0.1435870000    0.0114100000   -0.0000000000
13   
From optimize.out: Frame 24 / 35, Energy=    -286.9211154305
C        0.0022920000    0.1152970000   -0.0000000000
C       -0.1045630000    0.0580290000   -0.0000000000
C       -0.1432750000    0.3888490000   -0.0000000000
C       -0.1552600000    0.4844150000   -0.0000000000
C        0.0553640000   -0.1449700000   -0.0000000000
N       -0.4037640000    0.2848390000   -0.0000000000
H        0.1441280000   -0.0065800000   -0.0000000000
H        0.1378940000   -0.0017730000   -0.0000000000
H        0.1383420000   -0.0206610000   -0.0000000000
H        0.1330220000   -0.0245300000   -0.0000000000
H        0.1416540000    0.0064630000   -0.0000000000
C       -0.0895850000   -0.1470570000   -0.0000000000
H        0.1437510000    0.0076780000   -0.0000000000
13   
From optimize.out: Frame 25 / 35, Energy=    -286.9225068408
C        0.0078880000    0.0514210000   -0.0000000000
C       -0.1080690000    0.1266920000   -0.0000000000
C       -0.1343950000    0.3174340000   -0.0000000000
C       -0.1510330000    0.4761870000   -0.0000000000
C        0.0538290000   -0.1578030000   -0.0000000000
N       -0.4123010000    0.3309260000   -0.0000000000
H        0.1441930000   -0.0039160000   -0.0000000000
H        0.1376640000   -0.0064890000   -0.0000000000
H        0.1388830000   -0.0172160000   -0.0000000000
H        0.1323520000   -0.0241930000   -0.0000000000
H        0.1417460000    0.0068500000   -0.0000000000
C       -0.0938120000   -0.1042870000   -0.0000000000
H        0.1430550000    0.0043930000   -0.0000000000
13   
From optimize.out: Frame 26 / 35, Energy=    -286.9233351388
C        0.0150710000   -0.0085600000   -0.0000000000
C       -0.1137250000    0.1962810000   -0.0000000000
C       -0.1268870000    0.2502980000   -0.0000000000
C       -0.1465290000    0.4548980000   -0.0000000000
C        0.0502060000   -0.1592410000   -0.0000000000
N       -0.4179310000    0.3610460000   -0.0000000000
H        0.1441160000   -0.0013370000   -0.0000000000
H        0.1362190000   -0.0107310000   -0.0000000000
H        0.1398250000   -0.0140280000   -0.0000000000
H        0.1336860000   -0.0231820000   -0.0000000000
H        0.1414760000    0.0065130000   -0.0000000000
C       -0.0986210000   -0.0528590000   -0.0000000000
H        0.1430930000    0.0009010000   -0.0000000000
13   
From optimize.out: Frame 27 / 35, Energy=    -286.9238236102
C        0.0219410000   -0.0526750000   -0.0000000000
C       -0.1190730000    0.2534630000   -0.0000000000
C       -0.1214350000    0.1937300000   -0.0000000000
C       -0.1416690000    0.4217960000   -0.0000000000
C        0.0462650000   -0.1494880000   -0.0000000000
N       -0.4222320000    0.3787340000   -0.0000000000
H        0.1435910000    0.0004990000   -0.0000000000
H        0.1361000000   -0.0138920000   -0.0000000000
H        0.1404480000   -0.0113420000   -0.0000000000
H        0.1338330000   -0.0217820000   -0.0000000000
H        0.1417990000    0.0055230000   -0.0000000000
C       -0.1027880000   -0.0026500000   -0.0000000000
H        0.1432200000   -0.0019150000   -0.0000000000
13   
From optimize.out: Frame 28 / 35, Energy=    -286.9240405461
C        0.0283680000   -0.0819220000   -0.0000000000
C       -0.1252140000    0.2978100000   -0.0000000000
C       -0.1169040000    0.1519160000   -0.0000000000
C       -0.1376400000    0.3901180000   -0.0000000000
C        0.0416270000   -0.1358450000   -0.0000000000
N       -0.4227020000    0.3836220000   -0.0000000000
H        0.1429010000    0.0018940000   -0.0000000000
H        0.1351470000   -0.0160400000   -0.0000000000
H        0.1413620000   -0.0094130000   -0.0000000000
H        0.1338040000   -0.0203460000   -0.0000000000
H        0.1423280000    0.0045880000   -0.0000000000
C       -0.1055050000    0.0375440000   -0.0000000000
H        0.1424300000   -0.0039250000   -0.0000000000
13   
From optimize.out: Frame 29 / 35, Energy=    -286.9241191555
C        0.0303080000   -0.0858090000   -0.0000000000
C       -0.1269030000    0.3062110000   -0.0000000000
C       -0.1165730000    0.1449180000   -0.0000000000
C       -0.1368520000    0.3819790000   -0.0000000000
C        0.0410030000   -0.1319190000   -0.0000000000
N       -0.4225810000    0.3814260000   -0.0000000000
H        0.1430600000    0.0020770000   -0.0000000000
H        0.1345450000   -0.0164490000   -0.0000000000
H        0.1415470000   -0.0090360000   -0.0000000000
H        0.1338510000   -0.0199730000   -0.0000000000
H        0.1423840000    0.0043870000   -0.0000000000
C       -0.1063060000    0.0465600000   -0.0000000000
H        0.1425160000   -0.0043720000   -0.0000000000
13   
From optimize.out: Frame 30 / 35, Energy=    -286.9241893702
C        0.0308550000   -0.0910550000   -0.0000000000
C       -0.1268540000    0.3122500000   -0.0000000000
C       -0.1157010000    0.1355060000   -0.0000000000
C       -0.1362010000    0.3797260000   -0.0000000000
C        0.0401130000   -0.1303920000   -0.0000000000
N       -0.4229640000    0.3843070000   -0.0000000000
H        0.1428810000    0.0023420000   -0.0000000000
H        0.1348240000   -0.0167140000   -0.0000000000
H        0.1411080000   -0.0086070000   -0.0000000000
H        0.1339910000   -0.0198760000   -0.0000000000
H        0.1423240000    0.0042890000   -0.0000000000
C       -0.1068920000    0.0529020000   -0.0000000000
H        0.1425140000   -0.0046780000   -0.0000000000
13   
From optimize.out: Frame 31 / 35, Energy=    -286.9242491760
C        0.0320850000   -0.0973720000   -0.0000000000
C       -0.1279400000    0.3213860000   -0.0000000000
C       -0.1143620000    0.1232530000   -0.0000000000
C       -0.1346840000    0.3712500000   -0.0000000000
C        0.0388250000   -0.1257030000   -0.0000000000
N       -0.4232200000    0.3859290000   -0.0000000000
H        0.1426930000    0.0026440000   -0.0000000000
H        0.1348440000   -0.0171270000   -0.0000000000
H        0.1412600000   -0.0080270000   -0.0000000000
H        0.1340230000   -0.0194790000   -0.0000000000
H        0.1423100000    0.0040650000   -0.0000000000
C       -0.1082290000    0.0643920000   -0.0000000000
H        0.1423970000   -0.0052120000   -0.0000000000
13   
From optimize.out: Frame 32 / 35, Energy=    -286.9243041917
C        0.0352710000   -0.1125790000   -0.0000000000
C       -0.1313330000    0.3466890000   -0.0000000000
C       -0.1111610000    0.0936140000   -0.0000000000
C       -0.1312260000    0.3482180000   -0.0000000000
C        0.0352550000   -0.1131900000   -0.0000000000
N       -0.4230280000    0.3873840000   -0.0000000000
H        0.1423860000    0.0033950000   -0.0000000000
H        0.1344600000   -0.0183050000   -0.0000000000
H        0.1418400000   -0.0066280000   -0.0000000000
H        0.1344630000   -0.0183920000   -0.0000000000
H        0.1422940000    0.0034470000   -0.0000000000
C       -0.1110980000    0.0929280000   -0.0000000000
H        0.1418770000   -0.0065820000   -0.0000000000
13   
From optimize.out: Frame 33 / 35, Energy=    -286.9243233105
C        0.0367540000   -0.1173110000   -0.0000000000
C       -0.1325130000    0.3546770000   -0.0000000000
C       -0.1101980000    0.0829420000   -0.0000000000
C       -0.1302640000    0.3382210000   -0.0000000000
C        0.0341980000   -0.1072950000   -0.0000000000
N       -0.4233530000    0.3869880000   -0.0000000000
H        0.1424090000    0.0036320000   -0.0000000000
H        0.1343410000   -0.0186850000   -0.0000000000
H        0.1420200000   -0.0061150000   -0.0000000000
H        0.1345030000   -0.0179280000   -0.0000000000
H        0.1426580000    0.0031470000   -0.0000000000
C       -0.1124600000    0.1048830000   -0.0000000000
H        0.1419050000   -0.0071560000   -0.0000000000
13   
From optimize.out: Frame 34 / 35, Energy=    -286.9243294795
C        0.0369990000   -0.1193010000   -0.0000000000
C       -0.1330770000    0.3582110000   -0.0000000000
C       -0.1097890000    0.0792590000   -0.0000000000
C       -0.1298850000    0.3352930000   -0.0000000000
C        0.0338530000   -0.1055360000   -0.0000000000
N       -0.4232940000    0.3869600000   -0.0000000000
H        0.1425390000    0.0037330000   -0.0000000000
H        0.1343220000   -0.0188530000   -0.0000000000
H        0.1419820000   -0.0059390000   -0.0000000000
H        0.1344460000   -0.0177890000   -0.0000000000
H        0.1426820000    0.0030550000   -0.0000000000
C       -0.1126320000    0.1082360000   -0.0000000000
H        0.1418540000   -0.0073280000   -0.0000000000
