
Running Job 1 of 1 irc_reactant.in
qchem irc_reactant.in_17644.0 ./irc_reactant.d/ 1
/home/leeping/opt/qchem/5.0.2-openmp/exe/qcprog.exe_s irc_reactant.in_17644.0 ./irc_reactant.d/
Check license passed

                  Welcome to Q-Chem
     A Quantum Leap Into The Future Of Chemistry


 Q-Chem 5.0, Q-Chem, Inc., Pleasanton, CA (2017)

 Yihan Shao,  Zhengting Gan,  E. Epifanovsky,  A. T. B. Gilbert,  M. Wormit,  
 J. Kussmann,  A. W. Lange,  A. Behn,  Jia Deng,  Xintian Feng,  D. Ghosh,  
 M. Goldey,  P. R. Horn,  L. D. Jacobson,  I. Kaliman,  T. Kus,  A. Landau,  
 Jie Liu,  E. I. Proynov,  R. M. Richard,  R. P. Steele,  E. J. Sundstrom,  
 H. L. Woodcock III,  P. M. Zimmerman,  D. Zuev,  B. Albrecht,  E. Alguire,  
 S. A. Baeppler,  D. Barton,  Z. Benda,  Y. A. Bernard,  E. J. Berquist,  
 K. B. Bravaya,  H. Burton,  D. Casanova,  Chun-Min Chang,  Yunqing Chen,  
 A. Chien,  K. D. Closser,  M. P. Coons,  S. Dasgupta,  A. L. Dempwolff,  
 M. Diedenhofen,  Hainam Do,  R. G. Edgar,  Po-Tung Fang,  S. Fatehi,  
 Qingguo Feng,  J. Fosso-Tande,  Qinghui Ge,  A. Ghysels,  G. Gidofalvi,  
 J. Gomes,  J. Gonthier,  A. Gunina,  M. W. D. Hanson-Heine,  
 P. H. P. Harbach,  A. W. Hauser,  J. E. Herr,  E. G. Hohenstein,  
 Z. C. Holden,  Kerwin Hui,  T.-C. Jagau,  Hyunjun Ji,  B. Kaduk,  
 K. Khistyaev,  Jaehoon Kim,  P. Klunzinger,  K. Koh,  D. Kosenkov,  
 L. Koulias,  T. Kowalczyk,  C. M. Krauter,  A. Kunitsa,  Ka Un Lao,  
 A. Laurent,  K. V. Lawler,  Joonho Lee,  D. Lefrancois,  S. Lehtola,  
 D. S. Levine,  Yi-Pei Li,  You-Sheng Lin,  Fenglai Liu,  E. Livshits,  
 A. Luenser,  P. Manohar,  E. Mansoor,  S. F. Manzer,  Shan-Ping Mao,  
 Yuezhi Mao,  N. Mardirossian,  A. V. Marenich,  T. Markovich,  
 L. A. Martinez-Martinez,  S. A. Maurer,  N. J. Mayhall,  S. C. McKenzie,  
 J.-M. Mewes,  A. F. Morrison,  J. W. Mullinax,  K. Nanda,  
 T. S. Nguyen-Beck,  R. Olivares-Amaya,  J. A. Parkhill,  T. M. Perrine,  
 F. Plasser,  S. Prager,  A. Prociuk,  E. Ramos,  D. R. Rehn,  F. Rob,  
 M. Schneider,  N. Sergueev,  S. M. Sharada,  S. Sharma,  D. W. Small,  
 T. Stauch,  T. Stein,  Yu-Chuan Su,  A. J. W. Thom,  A. Tkatchenko,  
 T. Tsuchimochi,  L. Vogt,  O. Vydrov,  M. A. Watson,  J. Wenzel,  
 M. de Wergifosse,  T. A. Wesolowski,  A. White,  J. Witte,  A. Yamada,  
 Jun Yang,  K. Yao,  S. Yeganeh,  S. R. Yost,  Zhi-Qiang You,  A. Zech,  
 Igor Ying Zhang,  Xing Zhang,  Yan Zhao,  Ying Zhu,  B. R. Brooks,  
 G. K. L. Chan,  C. J. Cramer,  M. S. Gordon,  W. J. Hehre,  A. Klamt,  
 M. W. Schmidt,  C. D. Sherrill,  D. G. Truhlar,  A. Aspuru-Guzik,  R. Baer,  
 A. T. Bell,  N. A. Besley,  Jeng-Da Chai,  R. A. DiStasio Jr.,  A. Dreuw,  
 B. D. Dunietz,  T. R. Furlani,  Chao-Ping Hsu,  Yousung Jung,  Jing Kong,  
 D. S. Lambrecht,  WanZhen Liang,  C. Ochsenfeld,  V. A. Rassolov,  
 L. V. Slipchenko,  J. E. Subotnik,  T. Van Voorhis,  J. M. Herbert,  
 A. I. Krylov,  P. M. W. Gill,  M. Head-Gordon

 Contributors to earlier versions of Q-Chem not listed above: 
 R. D. Adamson,  B. Austin,  J. Baker,  G. J. O. Beran,  K. Brandhorst,  
 S. T. Brown,  E. F. C. Byrd,  A. K. Chakraborty,  C.-L. Cheng,  
 Siu Hung Chien,  D. M. Chipman,  D. L. Crittenden,  H. Dachsel,  
 R. J. Doerksen,  A. D. Dutoi,  L. Fusti-Molnar,  W. A. Goddard III,  
 A. Golubeva-Zadorozhnaya,  S. R. Gwaltney,  G. Hawkins,  A. Heyden,  
 S. Hirata,  G. Kedziora,  F. J. Keil,  C. Kelley,  Jihan Kim,  R. A. King,  
 R. Z. Khaliullin,  P. P. Korambath,  W. Kurlancheek,  A. M. Lee,  M. S. Lee,  
 S. V. Levchenko,  Ching Yeh Lin,  D. Liotard,  R. C. Lochan,  I. Lotan,  
 P. E. Maslen,  N. Nair,  D. P. O'Neill,  D. Neuhauser,  E. Neuscamman,  
 C. M. Oana,  R. Olson,  B. Peters,  R. Peverati,  P. A. Pieniazek,  
 Y. M. Rhee,  J. Ritchie,  M. A. Rohrdanz,  E. Rosta,  N. J. Russ,  
 H. F. Schaefer III,  N. E. Schultz,  N. Shenvi,  A. C. Simmonett,  A. Sodt,  
 D. Stuck,  K. S. Thanthiriwatte,  V. Vanovschi,  Tao Wang,  A. Warshel,  
 C. F. Williams,  Q. Wu,  X. Xu,  W. Zhang

 Please cite Q-Chem as follows:
 Y. Shao et al., Mol. Phys. 113, 184-215 (2015)
 DOI: 10.1080/00268976.2014.952696

 Q-Chem 5.0.2 for Intel X86 EM64T Linux

 Parts of Q-Chem use Armadillo 5.200.1 (Boston Tea Smuggler).
 http://arma.sourceforge.net/

 Q-Chem begins on Thu Mar  3 08:43:57 2022  

Host: 
0

     Scratch files written to ./irc_reactant.d//
 Dec517 15110_ 26548  26544 5633   
Processing $rem in /home/leeping/opt/qchem/5.0.2-openmp/config/preferences.
 MEM_STATIC 2000
 MEM_TOTAL  8000
 SYMMETRY   OFF
 SYM_IGNORE TRUE 

Checking the input file for inconsistencies... 	...done.

--------------------------------------------------------------
User input:
--------------------------------------------------------------
$molecule
0 2
C        1.5758624978    0.4527193644   -0.0524852427
C        0.8243225195   -0.8156766714    0.1049358752
C       -0.5142214665   -0.9607802064   -0.5986270279
C       -1.1207515238    0.3151218051   -0.0314326887
C       -0.3743500131    1.5783697681   -0.2436122342
N        0.9579280578    1.6192493267   -0.2360078737
H        2.6620976006    0.4571557914    0.0011031635
H        1.4104144824   -1.7254489639    0.2208635463
H       -0.9157871709   -1.7293673214   -1.2431378866
H       -2.2071341972    0.3783825191   -0.0254864027
H       -0.9090022993    2.5063868469   -0.4328187474
C       -0.5020998447   -0.7568194346    0.8492679420
H       -0.8872786424   -1.3192928234    1.6874375763
$end

$rem
method                b3lyp
basis                 6-31+g(d,p)
unrestricted          true
symmetry              off
sym_ignore            true
incdft                false
incfock               0
scf_convergence       6
thresh                14
jobtype               sp
scf_guess             read
scf_algorithm         diis
max_scf_cycles        100
stability_analysis    true
max_cis_cycles        100
cis_n_roots           4
$end

--------------------------------------------------------------
 ----------------------------------------------------------------
             Standard Nuclear Orientation (Angstroms)
    I     Atom           X                Y                Z
 ----------------------------------------------------------------
    1      C       1.5758624978     0.4527193644    -0.0524852427
    2      C       0.8243225195    -0.8156766714     0.1049358752
    3      C      -0.5142214665    -0.9607802064    -0.5986270279
    4      C      -1.1207515238     0.3151218051    -0.0314326887
    5      C      -0.3743500131     1.5783697681    -0.2436122342
    6      N       0.9579280578     1.6192493267    -0.2360078737
    7      H       2.6620976006     0.4571557914     0.0011031635
    8      H       1.4104144824    -1.7254489639     0.2208635463
    9      H      -0.9157871709    -1.7293673214    -1.2431378866
   10      H      -2.2071341972     0.3783825191    -0.0254864027
   11      H      -0.9090022993     2.5063868469    -0.4328187474
   12      C      -0.5020998447    -0.7568194346     0.8492679420
   13      H      -0.8872786424    -1.3192928234     1.6874375763
 ----------------------------------------------------------------
 Nuclear Repulsion Energy =   277.1182295511 hartrees
 There are       25 alpha and       24 beta electrons
 Requested basis set is 6-31+G(d,p)
 There are 53 shells and 163 basis functions

 Total QAlloc Memory Limit   8000 MB
 Mega-Array Size      1956 MB
 MEM_STATIC part      2000 MB

                       Distance Matrix (Angstroms)
             C (  1)   C (  2)   C (  3)   C (  4)   C (  5)   N (  6)
   C (  2)  1.482708
   C (  3)  2.581609  1.519130
   C (  4)  2.700204  2.254022  1.522338
   C (  5)  2.259856  2.699956  2.567661  1.482542
   N (  6)  1.332785  2.462307  2.992536  2.462419  1.332927
   H (  7)  1.087565  2.237923  3.529762  3.785654  3.246078  2.076265
   H (  8)  2.201479  1.088406  2.227219  3.261040  3.783694  3.405948
   H (  9)  3.519584  2.383299  1.080451  2.385409  3.497618  3.967159
   H ( 10)  3.783823  3.260754  2.233338  1.088239  2.201510  3.406125
   H ( 11)  3.246037  3.785459  3.493507  2.237765  1.087597  2.076337
   C ( 12)  2.567892  1.522134  1.462240  1.519020  2.581437  2.992525
   H ( 13)  3.497774  2.384852  2.343884  2.383345  3.519730  3.967299
             H (  7)   H (  8)   H (  9)   H ( 10)   H ( 11)   C ( 12)
   H (  8)  2.525622
   H (  9)  4.373817  2.748550
   H ( 10)  4.869942  4.192070  2.755515
   H ( 11)  4.140095  4.869849  4.312572  2.525761
   C ( 12)  3.493603  2.234020  2.344173  2.227335  3.529565
   H ( 13)  4.312489  2.755938  2.959264  2.749223  4.373989  1.080401

 
 A cutoff of  1.0D-14 yielded   1391 shell pairs
 There are     13471 function pairs
 Smallest overlap matrix eigenvalue = 4.90E-05

 Scale SEOQF with 1.000000e-01/1.000000e-01/1.000000e-01

 Standard Electronic Orientation quadrupole field applied
 Nucleus-field energy     =     0.0000000051 hartrees
 Guess MOs from SCF MO coefficient file
 Reading MOs from coefficient file
 Reading MOs from coefficient file
 An unrestricted hybrid HF-DFT SCF calculation will be
 performed using Pulay DIIS extrapolation
 Exchange:     0.2000 Hartree-Fock + 0.0800 Slater + 0.7200 B88
 Correlation:  0.1900 VWN1RPA + 0.8100 LYP
 Using SG-1 standard quadrature grid
 SCF converges when DIIS error is below 1.0E-06
Using Q-Chem read-in guess as SCF_GUESS READ specified.

 -------------------------------------------------------
 OpenMP BLAS3 based DFT computing Module                
 -------------------------------------------------------
 ---------------------------------------
  Cycle       Energy         DIIS Error
 ---------------------------------------
    1    -286.8792927324      1.29E-09
    2    -286.8792927324      1.01E-09 Convergence criterion met
 ---------------------------------------
 <S^2> = 0.7726
 SCF time:  CPU 6.77 s  wall 7.82 s
 SCF   energy in the final basis set = -286.87929273
 Total energy in the final basis set = -286.87929273
 
 Direct TDDFT/TDA calculation will be performed
 Exchange:     0.2000 Hartree-Fock + 0.0800 Slater + 0.7200 B88
 Correlation:  0.1900 VWN1RPA + 0.8100 LYP
 Using SG-1 standard quadrature grid
 CIS energy converged when residual is below 10e- 6
 ---------------------------------------------------
 Iter    Rts Conv    Rts Left    Ttl Dev     Max Dev
 ---------------------------------------------------
   1         0           4      0.002108    0.001368
   2         0           4      0.000647    0.000339
   3         0           4      0.000309    0.000215
   4         0           4      0.000109    0.000070
   5         0           4      0.000035    0.000022
   6         2           2      0.000012    0.000006
   7         2           2      0.000490    0.000487
   8         3           1      0.000124    0.000122
   9         3           1      0.000059    0.000058
  10         3           1      0.000029    0.000027
  11         3           1      0.000010    0.000008
  12         3           1      0.000004    0.000002
  13         4           0      0.000002    0.000001    Roots Converged
 ---------------------------------------------------
 
 ---------------------------------------------------
         TDDFT/TDA Excitation Energies              
 ---------------------------------------------------

 Excited state   1: excitation energy (eV) =    2.8201
 Total energy for state  1:                  -286.77565733 au
    <S**2>     :  0.7805
    Trans. Mom.: -0.0010 X  -0.0016 Y   0.0002 Z
    Strength   :     0.0000002503
    D( 24) --> S(  1) amplitude =  0.9970 beta

 Excited state   2: excitation energy (eV) =    3.5328
 Total energy for state  2:                  -286.74946418 au
    <S**2>     :  0.7681
    Trans. Mom.: -0.3907 X   0.2276 Y  -0.0223 Z
    Strength   :     0.0177365803
    S(  1) --> V(  1) amplitude =  0.9206 alpha
    S(  1) --> V(  5) amplitude =  0.1675 alpha
    D( 23) --> S(  1) amplitude =  0.3015 beta

 Excited state   3: excitation energy (eV) =    4.1723
 Total energy for state  3:                  -286.72596238 au
    <S**2>     :  0.7907
    Trans. Mom.:  0.0045 X   0.0074 Y  -0.0018 Z
    Strength   :     0.0000079609
    S(  1) --> V(  2) amplitude =  0.9916 alpha

 Excited state   4: excitation energy (eV) =    4.5464
 Total energy for state  4:                  -286.71221459 au
    <S**2>     :  2.4841
    Trans. Mom.:  0.0252 X  -0.0249 Y  -0.0690 Z
    Strength   :     0.0006706809
    D( 24) --> V(  1) amplitude = -0.8459 alpha
    D( 24) --> V(  5) amplitude = -0.2263 alpha
    D( 24) --> V(  2) amplitude = -0.3609 beta
    D( 24) --> V(  5) amplitude =  0.1726 beta
 
 ---------------------------------------------------

 Stability analysis will be performed
 ---------------------------------------------------
 Iter    Rts Conv    Rts Left    Ttl Dev     Max Dev
 ---------------------------------------------------
   1         0           8      0.003230    0.000642
   2         0           8      0.001248    0.000448
   3         0           8      0.000545    0.000237
   4         1           7      0.000200    0.000098
   5         3           5      0.000123    0.000047
   6         3           5      0.000150    0.000117
   7         5           3      0.000092    0.000080
   8         6           2      0.000017    0.000012
   9         7           1      0.000005    0.000002
  10         8           0      0.000004    0.000001    Roots Converged
 UKS-> UKS   stable,    smallest eigenvalue:      0.1010252
 UKS->CUKS   stable,    smallest eigenvalue:      0.1049547
 ---------------------------------------------------
  SETman timing summary (seconds)
  CPU time               191.64s
  System time              0.00s
  Wall time              201.32s
 
 --------------------------------------------------------------
 
                    Orbital Energies (a.u.)
 --------------------------------------------------------------
 
 Alpha MOs
 -- Occupied --
-14.331 -10.226 -10.226 -10.226 -10.225 -10.225 -10.225  -0.970
 -0.907  -0.760  -0.652  -0.645  -0.597  -0.553  -0.490  -0.482
 -0.473  -0.417  -0.404  -0.373  -0.348  -0.310  -0.308  -0.239
 -0.184
 -- Virtual --
 -0.009  -0.001   0.017   0.023   0.030   0.044   0.053   0.062
  0.064   0.077   0.087   0.095   0.097   0.115   0.116   0.118
  0.123   0.143   0.147   0.149   0.162   0.173   0.179   0.186
  0.193   0.198   0.211   0.224   0.228   0.236   0.251   0.258
  0.258   0.269   0.309   0.309   0.313   0.317   0.322   0.324
  0.344   0.368   0.455   0.474   0.632   0.638   0.641   0.661
  0.675   0.711   0.736   0.740   0.745   0.751   0.784   0.786
  0.820   0.840   0.860   0.903   0.936   0.954   0.958   0.977
  1.012   1.023   1.044   1.088   1.113   1.136   1.152   1.154
  1.193   1.205   1.326   1.354   1.401   1.401   1.468   1.505
  1.545   1.562   1.594   1.653   1.729   1.775   1.789   1.810
  1.849   1.906   1.940   1.958   1.983   2.078   2.079   2.161
  2.165   2.175   2.195   2.272   2.334   2.347   2.367   2.395
  2.410   2.419   2.436   2.478   2.513   2.531   2.545   2.555
  2.597   2.608   2.613   2.660   2.677   2.705   2.762   2.882
  2.911   2.928   2.962   3.141   3.149   3.277   3.295   3.424
  3.521   3.571   3.684   4.171   4.315   4.400   4.600   4.606
  4.712   4.740
 
 Beta MOs
 -- Occupied --
-14.334 -10.226 -10.226 -10.223 -10.223 -10.218 -10.218  -0.966
 -0.904  -0.748  -0.641  -0.640  -0.592  -0.550  -0.483  -0.476
 -0.472  -0.413  -0.387  -0.370  -0.333  -0.309  -0.305  -0.239
 -- Virtual --
 -0.080  -0.001   0.001   0.017   0.024   0.038   0.045   0.053
  0.062   0.065   0.079   0.087   0.097   0.106   0.115   0.117
  0.118   0.130   0.144   0.148   0.151   0.162   0.173   0.181
  0.192   0.196   0.199   0.211   0.231   0.232   0.238   0.250
  0.264   0.265   0.269   0.310   0.311   0.316   0.317   0.328
  0.329   0.345   0.372   0.459   0.479   0.637   0.643   0.660
  0.662   0.680   0.738   0.745   0.746   0.754   0.756   0.788
  0.788   0.824   0.846   0.862   0.909   0.939   0.955   0.958
  0.979   1.007   1.024   1.044   1.086   1.126   1.143   1.154
  1.155   1.195   1.207   1.339   1.355   1.408   1.417   1.475
  1.508   1.560   1.570   1.595   1.664   1.735   1.776   1.793
  1.813   1.863   1.907   1.950   1.965   1.987   2.080   2.080
  2.167   2.170   2.189   2.210   2.275   2.334   2.354   2.371
  2.398   2.413   2.430   2.436   2.480   2.526   2.537   2.549
  2.566   2.599   2.610   2.626   2.665   2.685   2.713   2.763
  2.883   2.914   2.931   2.966   3.143   3.152   3.278   3.297
  3.426   3.523   3.572   3.686   4.167   4.329   4.409   4.604
  4.611   4.721   4.744
 --------------------------------------------------------------
 
          Ground-State Mulliken Net Atomic Charges

     Atom                 Charge (a.u.)    Spin (a.u.)
  --------------------------------------------------------
      1 C                    -0.102060       0.605484
      2 C                    -0.172445      -0.050635
      3 C                    -0.014772       0.081371
      4 C                    -0.172414      -0.050476
      5 C                    -0.100840       0.605713
      6 N                    -0.216180      -0.201780
      7 H                     0.124255      -0.032271
      8 H                     0.130420       0.000800
      9 H                     0.141368      -0.003999
     10 H                     0.130365       0.000797
     11 H                     0.124263      -0.032292
     12 C                    -0.013397       0.081282
     13 H                     0.141436      -0.003994
  --------------------------------------------------------
  Sum of atomic charges =     0.000000
  Sum of spin   charges =     1.000000

 -----------------------------------------------------------------
                    Cartesian Multipole Moments
 -----------------------------------------------------------------
    Charge (ESU x 10^10)
                 0.0000
    Dipole Moment (Debye)
         X      -1.6446      Y      -2.7791      Z       0.4043
       Tot       3.2545
    Quadrupole Moments (Debye-Ang)
        XX     -38.7518     XY      -4.1430     YY     -43.4744
        XZ       0.7281     YZ       0.0561     ZZ     -42.6084
    Octopole Moments (Debye-Ang^2)
       XXX     -11.7225    XXY     -11.5356    XYY     -15.0936
       YYY     -34.2944    XXZ       1.9903    XYZ       1.3583
       YYZ       1.2286    XZZ      -7.2302    YZZ     -11.7282
       ZZZ       5.1419
    Hexadecapole Moments (Debye-Ang^3)
      XXXX    -282.5100   XXXY     -29.5426   XXYY    -117.3585
      XYYY     -50.5150   YYYY    -368.5930   XXXZ       4.6814
      XXYZ       7.0708   XYYZ       6.3901   YYYZ      20.4747
      XXZZ     -72.4797   XYZZ      -4.5945   YYZZ     -75.7482
      XZZZ       1.3161   YZZZ      18.1116   ZZZZ    -106.8779
 -----------------------------------------------------------------
Archival summary:
1\1\c8-73\SP\ProcedureUnspecified\6-31+G**\166(2)\hpark21\ThuMar308:47:282022ThuMar308:47:282022\0\\#,ProcedureUnspecified,6-31+G**,\\0,2\N\C,1,1.33278\H,2,1.08757,1,117.794\C,1,1.33293,2,115.935,3,-177.467,0\H,4,1.0876,1,117.786,2,-177.482,0\C,4,1.48254,1,121.906,2,1.2655,0\H,6,1.08824,4,116.991,1,178.312,0\C,2,1.48271,1,121.895,3,178.699,0\H,8,1.08841,2,116.964,1,178.23,0\C,6,1.51902,4,118.635,1,30.4938,0\H,10,1.0804,6,132.22,4,129.346,0\C,10,1.46224,6,61.3774,4,-105.886,0\H,12,1.08045,10,133.866,6,-122.146,0\\\@

 Total job time:  210.61s(wall), 198.62s(cpu) 
 Thu Mar  3 08:47:28 2022

        *************************************************************
        *                                                           *
        *  Thank you very much for using Q-Chem.  Have a nice day.  *
        *                                                           *
        *************************************************************


