
Running Job 1 of 1 qcfsm.in
qchem qcfsm.in_65458.0 ./qcfsm.d/ 1
/home/leeping/opt/qchem/5.0.2-openmp/exe/qcprog.exe_s qcfsm.in_65458.0 ./qcfsm.d/
Check license passed

                  Welcome to Q-Chem
     A Quantum Leap Into The Future Of Chemistry


 Q-Chem 5.0, Q-Chem, Inc., Pleasanton, CA (2017)

 Yihan Shao,  Zhengting Gan,  E. Epifanovsky,  A. T. B. Gilbert,  M. Wormit,  
 J. Kussmann,  A. W. Lange,  A. Behn,  Jia Deng,  Xintian Feng,  D. Ghosh,  
 M. Goldey,  P. R. Horn,  L. D. Jacobson,  I. Kaliman,  T. Kus,  A. Landau,  
 Jie Liu,  E. I. Proynov,  R. M. Richard,  R. P. Steele,  E. J. Sundstrom,  
 H. L. Woodcock III,  P. M. Zimmerman,  D. Zuev,  B. Albrecht,  E. Alguire,  
 S. A. Baeppler,  D. Barton,  Z. Benda,  Y. A. Bernard,  E. J. Berquist,  
 K. B. Bravaya,  H. Burton,  D. Casanova,  Chun-Min Chang,  Yunqing Chen,  
 A. Chien,  K. D. Closser,  M. P. Coons,  S. Dasgupta,  A. L. Dempwolff,  
 M. Diedenhofen,  Hainam Do,  R. G. Edgar,  Po-Tung Fang,  S. Fatehi,  
 Qingguo Feng,  J. Fosso-Tande,  Qinghui Ge,  A. Ghysels,  G. Gidofalvi,  
 J. Gomes,  J. Gonthier,  A. Gunina,  M. W. D. Hanson-Heine,  
 P. H. P. Harbach,  A. W. Hauser,  J. E. Herr,  E. G. Hohenstein,  
 Z. C. Holden,  Kerwin Hui,  T.-C. Jagau,  Hyunjun Ji,  B. Kaduk,  
 K. Khistyaev,  Jaehoon Kim,  P. Klunzinger,  K. Koh,  D. Kosenkov,  
 L. Koulias,  T. Kowalczyk,  C. M. Krauter,  A. Kunitsa,  Ka Un Lao,  
 A. Laurent,  K. V. Lawler,  Joonho Lee,  D. Lefrancois,  S. Lehtola,  
 D. S. Levine,  Yi-Pei Li,  You-Sheng Lin,  Fenglai Liu,  E. Livshits,  
 A. Luenser,  P. Manohar,  E. Mansoor,  S. F. Manzer,  Shan-Ping Mao,  
 Yuezhi Mao,  N. Mardirossian,  A. V. Marenich,  T. Markovich,  
 L. A. Martinez-Martinez,  S. A. Maurer,  N. J. Mayhall,  S. C. McKenzie,  
 J.-M. Mewes,  A. F. Morrison,  J. W. Mullinax,  K. Nanda,  
 T. S. Nguyen-Beck,  R. Olivares-Amaya,  J. A. Parkhill,  T. M. Perrine,  
 F. Plasser,  S. Prager,  A. Prociuk,  E. Ramos,  D. R. Rehn,  F. Rob,  
 M. Schneider,  N. Sergueev,  S. M. Sharada,  S. Sharma,  D. W. Small,  
 T. Stauch,  T. Stein,  Yu-Chuan Su,  A. J. W. Thom,  A. Tkatchenko,  
 T. Tsuchimochi,  L. Vogt,  O. Vydrov,  M. A. Watson,  J. Wenzel,  
 M. de Wergifosse,  T. A. Wesolowski,  A. White,  J. Witte,  A. Yamada,  
 Jun Yang,  K. Yao,  S. Yeganeh,  S. R. Yost,  Zhi-Qiang You,  A. Zech,  
 Igor Ying Zhang,  Xing Zhang,  Yan Zhao,  Ying Zhu,  B. R. Brooks,  
 G. K. L. Chan,  C. J. Cramer,  M. S. Gordon,  W. J. Hehre,  A. Klamt,  
 M. W. Schmidt,  C. D. Sherrill,  D. G. Truhlar,  A. Aspuru-Guzik,  R. Baer,  
 A. T. Bell,  N. A. Besley,  Jeng-Da Chai,  R. A. DiStasio Jr.,  A. Dreuw,  
 B. D. Dunietz,  T. R. Furlani,  Chao-Ping Hsu,  Yousung Jung,  Jing Kong,  
 D. S. Lambrecht,  WanZhen Liang,  C. Ochsenfeld,  V. A. Rassolov,  
 L. V. Slipchenko,  J. E. Subotnik,  T. Van Voorhis,  J. M. Herbert,  
 A. I. Krylov,  P. M. W. Gill,  M. Head-Gordon

 Contributors to earlier versions of Q-Chem not listed above: 
 R. D. Adamson,  B. Austin,  J. Baker,  G. J. O. Beran,  K. Brandhorst,  
 S. T. Brown,  E. F. C. Byrd,  A. K. Chakraborty,  C.-L. Cheng,  
 Siu Hung Chien,  D. M. Chipman,  D. L. Crittenden,  H. Dachsel,  
 R. J. Doerksen,  A. D. Dutoi,  L. Fusti-Molnar,  W. A. Goddard III,  
 A. Golubeva-Zadorozhnaya,  S. R. Gwaltney,  G. Hawkins,  A. Heyden,  
 S. Hirata,  G. Kedziora,  F. J. Keil,  C. Kelley,  Jihan Kim,  R. A. King,  
 R. Z. Khaliullin,  P. P. Korambath,  W. Kurlancheek,  A. M. Lee,  M. S. Lee,  
 S. V. Levchenko,  Ching Yeh Lin,  D. Liotard,  R. C. Lochan,  I. Lotan,  
 P. E. Maslen,  N. Nair,  D. P. O'Neill,  D. Neuhauser,  E. Neuscamman,  
 C. M. Oana,  R. Olson,  B. Peters,  R. Peverati,  P. A. Pieniazek,  
 Y. M. Rhee,  J. Ritchie,  M. A. Rohrdanz,  E. Rosta,  N. J. Russ,  
 H. F. Schaefer III,  N. E. Schultz,  N. Shenvi,  A. C. Simmonett,  A. Sodt,  
 D. Stuck,  K. S. Thanthiriwatte,  V. Vanovschi,  Tao Wang,  A. Warshel,  
 C. F. Williams,  Q. Wu,  X. Xu,  W. Zhang

 Please cite Q-Chem as follows:
 Y. Shao et al., Mol. Phys. 113, 184-215 (2015)
 DOI: 10.1080/00268976.2014.952696

 Q-Chem 5.0.2 for Intel X86 EM64T Linux

 Parts of Q-Chem use Armadillo 5.200.1 (Boston Tea Smuggler).
 http://arma.sourceforge.net/

 Q-Chem begins on Thu Mar  3 04:49:43 2022  

Host: 
0

     Scratch files written to ./qcfsm.d//
 Dec517 15110_ 26548  26544 5633   
Processing $rem in /home/leeping/opt/qchem/5.0.2-openmp/config/preferences.
 MEM_STATIC 2000
 MEM_TOTAL  8000
 SYMMETRY   OFF
 SYM_IGNORE TRUE 
 Now reading second FSM geometry

Checking the input file for inconsistencies... 	...done.

--------------------------------------------------------------
User input:
--------------------------------------------------------------
$molecule
0 2
C        1.5754785653    0.4456378027   -0.0864065337
C        0.8223283915   -0.8151126325    0.1169043780
C       -0.5184346897   -0.9679999234   -0.5827410394
C       -1.1197088540    0.3163730023   -0.0359153085
C       -0.3701531584    1.5790024873   -0.2391948709
N        0.9609384316    1.6142423936   -0.2595241318
H        2.6636733083    0.4391202389   -0.0978608632
H        1.4056143291   -1.7249866416    0.2489551345
H       -0.9199163278   -1.7438934080   -1.2196390896
H       -2.2065761233    0.3796194190   -0.0333785087
H       -0.9038662590    2.5172603176   -0.3783017375
C       -0.5020008311   -0.7459385163    0.8590849691
H       -0.8873767824   -1.2933245392    1.7080176017
****
C        1.2022433504    0.2878293331    0.3826941638
C        0.6319579184   -1.1043015847   -0.1506574462
C       -0.6179332009   -0.9075432039   -0.8724848232
C       -1.0787920851    0.1774088512    0.0982984374
C       -0.4488969787    1.4616735398   -0.4277265339
N        0.8289203037    1.4935584836   -0.3133379118
H        2.2047770843    0.2371175100    0.7951764712
H        1.3124957837   -1.9490589782   -0.1902368809
H       -0.9096615787   -1.1113211611   -1.9001057638
H       -2.1277515227    0.2118753785    0.4006643542
H       -0.9940590257    2.2286103487   -0.9756957538
C        0.0450322536   -0.3542960290    1.0595635809
H       -0.0483323022   -0.6715524880    2.0938481063
$end

$rem
method                b3lyp
basis                 6-31g(d)
unrestricted          true
symmetry              off
sym_ignore            true
incdft                false
incfock               0
scf_convergence       8
thresh                14
jobtype               fsm
scf_guess             core
scf_guess_mix         5
scf_algorithm         diis
max_scf_cycles        100
fsm_nnode             21
fsm_ngrad             6
fsm_mode              2
fsm_opt_mode          2
$end

--------------------------------------------------------------
 ----------------------------------------------------------------
             Standard Nuclear Orientation (Angstroms)
    I     Atom           X                Y                Z
 ----------------------------------------------------------------
    1      C       1.5754785653     0.4456378027    -0.0864065337
    2      C       0.8223283915    -0.8151126325     0.1169043780
    3      C      -0.5184346897    -0.9679999234    -0.5827410394
    4      C      -1.1197088540     0.3163730023    -0.0359153085
    5      C      -0.3701531584     1.5790024873    -0.2391948709
    6      N       0.9609384316     1.6142423936    -0.2595241318
    7      H       2.6636733083     0.4391202389    -0.0978608632
    8      H       1.4056143291    -1.7249866416     0.2489551345
    9      H      -0.9199163278    -1.7438934080    -1.2196390896
   10      H      -2.2065761233     0.3796194190    -0.0333785087
   11      H      -0.9038662590     2.5172603176    -0.3783017375
   12      C      -0.5020008311    -0.7459385163     0.8590849691
   13      H      -0.8873767824    -1.2933245392     1.7080176017
 ----------------------------------------------------------------
 Nuclear Repulsion Energy =   277.2162443060 hartrees
 There are       25 alpha and       24 beta electrons
 Requested basis set is 6-31G(d)
 There are 40 shells and 117 basis functions

 Total QAlloc Memory Limit   8000 MB
 Mega-Array Size      1956 MB
 MEM_STATIC part      2000 MB
 beginning FSman 

*******************************************
*******************************************
******** Starting FSM Calculation *********
*******************************************
*******************************************
-FSM parameters:
 Maximum displacement of each coordinate during optimization (Angstrom)      0.05
 Maximum optimization steps for each new node                                6
 The scaling factor for optimization (hartrees/Angstrom^2)                   1.75
 The number of LST interpolations used for reparameterization                100
-Aligning product structure to maximum coincidence with the reactant structure
 Total R --> P Distance 2.317316
 New node interpolation distace (Angstroms): 0.11
-Performing force calculation on reactant structure in state:0
 ----------------------------------------------------------------
             Standard Nuclear Orientation (Angstroms)
    I     Atom           X                Y                Z
 ----------------------------------------------------------------
    1      C       1.5754785653     0.4456378027    -0.0864065337
    2      C       0.8223283915    -0.8151126325     0.1169043780
    3      C      -0.5184346897    -0.9679999234    -0.5827410394
    4      C      -1.1197088540     0.3163730023    -0.0359153085
    5      C      -0.3701531584     1.5790024873    -0.2391948709
    6      N       0.9609384316     1.6142423936    -0.2595241318
    7      H       2.6636733083     0.4391202389    -0.0978608632
    8      H       1.4056143291    -1.7249866416     0.2489551345
    9      H      -0.9199163278    -1.7438934080    -1.2196390896
   10      H      -2.2065761233     0.3796194190    -0.0333785087
   11      H      -0.9038662590     2.5172603176    -0.3783017375
   12      C      -0.5020008311    -0.7459385163     0.8590849691
   13      H      -0.8873767824    -1.2933245392     1.7080176017
 ----------------------------------------------------------------
 Nuclear Repulsion Energy =   277.2162443060 hartrees
 There are       25 alpha and       24 beta electrons

                       Distance Matrix (Angstroms)
             C (  1)   C (  2)   C (  3)   C (  4)   C (  5)   N (  6)
   C (  2)  1.482586
   C (  3)  2.574722  1.520041
   C (  4)  2.698758  2.252803  1.519922
   C (  5)  2.256844  2.698260  2.574341  1.482359
   N (  6)  1.331640  2.462250  2.993491  2.462429  1.331713
   H (  7)  1.088275  2.238253  3.512963  3.785880  3.243981  2.075175
   H (  8)  2.202937  1.088821  2.228612  3.259687  3.782590  3.406866
   H (  9)  3.507885  2.384198  1.081128  2.384495  3.507869  3.966927
   H ( 10)  3.783003  3.259483  2.228833  1.088709  2.203027  3.407137
   H ( 11)  3.244067  3.785457  3.512462  2.237794  1.088360  2.075342
   C ( 12)  2.574826  1.519692  1.458919  1.520228  2.574675  2.993649
   H ( 13)  3.508505  2.383992  2.342975  2.384619  3.508478  3.967548
             H (  7)   H (  8)   H (  9)   H ( 10)   H ( 11)   C ( 12)
   H (  8)  2.527123
   H (  9)  4.343507  2.750494
   H ( 10)  4.871040  4.190107  2.751729
   H ( 11)  4.138194  4.870709  4.343448  2.526961
   C ( 12)  3.513062  2.229302  2.343429  2.229114  3.512989
   H ( 13)  4.344251  2.751909  2.962304  2.751634  4.344371  1.081126

 
 Requested basis set is 6-31G(d)
 There are 40 shells and 117 basis functions
 A cutoff of  1.0D-14 yielded    808 shell pairs
 There are      7080 function pairs
 
 -------------------------------------------------------
 OpenMP Integral Computing Module                       
 Release: version 1.0, May 2013, Q-Chem Inc. Pittsburgh 
 -------------------------------------------------------
 Integral Job Info:
 Integral job number is                      11
 Integral operator is                         1
 short-range coefficients                     0
 long-range coefficients              100000000
 Omega coefficients                           0
 if combine SR and LR in K                    0
 Integral screening is                        0
 Integral computing path is                   2
 max size of driver memory is            800000
 size of driver memory is                593474
 size of scratch memory is              2361544
 max col of scratch BK array               1296
 max len of scratch array in speh3          155
 max len of scratch index in speh4           18
 max int batch size is                      520
 min int batch size is                       52
 fixed nKL is                                52
 max L of basis functions is                  2
 order of int derivative is                   0
 number of shells is                         40
 number of basis is                         117
 number of cartesian basis is               117
 number of contracted shell pairs           808
 number of primitive shell pairs           3556
 maxK2 (contraction) of shell pair           36
 max number of K2 of shell pair               1
 max number of CS2 of shell pair             84
 max number of PS2 of shell pair            366
 mem total for path MDJ                  535308
 -------------------------------------------------------
 Smallest overlap matrix eigenvalue = 1.59E-03

 Scale SEOQF with 1.000000e-01/1.000000e-01/1.000000e-01

 Standard Electronic Orientation quadrupole field applied
 Nucleus-field energy     =     0.0000000051 hartrees
 Guess MOs from core Hamiltonian diagonalization
 Mixing HOMO and LUMO in initial guess
 Adding  50% of the LUMO to the HOMO
 An unrestricted hybrid HF-DFT SCF calculation will be
 performed using Pulay DIIS extrapolation
 Exchange:     0.2000 Hartree-Fock + 0.0800 Slater + 0.7200 B88
 Correlation:  0.1900 VWN1RPA + 0.8100 LYP
 Using SG-1 standard quadrature grid
 SCF converges when DIIS error is below 1.0E-08
 using 4 threads for integral computing
 -------------------------------------------------------
 OpenMP Integral computing Module                
 Release: version 1.0, May 2013, Q-Chem Inc. Pittsburgh 
 -------------------------------------------------------
 -------------------------------------------------------
 OpenMP BLAS3 based DFT computing Module                
 Release: version 1.0, May 2013, Q-Chem Inc. Pittsburgh 
 -------------------------------------------------------
 ---------------------------------------
  Cycle       Energy         DIIS Error
 ---------------------------------------
    1    -240.3651838477      1.30E-01
    2    -241.5775196005      1.02E-01
    3    -280.7335971932      4.96E-02
    4    -283.2279473305      4.28E-02
    5    -286.3294436845      1.60E-02
    6    -286.7185381806      9.51E-03
    7    -286.8413362610      3.02E-03
    8    -286.8568925386      8.10E-04
    9    -286.8581491527      2.63E-04
   10    -286.8583762018      7.87E-05
   11    -286.8584318924      3.81E-05
   12    -286.8584573767      8.99E-06
   13    -286.8584645799      5.53E-06
   14    -286.8584668834      2.39E-06
   15    -286.8584671078      7.60E-07
   16    -286.8584671165      1.31E-07
   17    -286.8584671167      3.35E-08
   18    -286.8584671167      1.87E-08
   19    -286.8584671167      3.63E-09 Convergence criterion met
 ---------------------------------------
 <S^2> = 0.7737
 SCF time:  CPU 47.82 s  wall 16.29 s
 SCF   energy in the final basis set = -286.85846712
 Total energy in the final basis set = -286.85846712
 
 --------------------------------------------------------------
 
                    Orbital Energies (a.u.)
 --------------------------------------------------------------
 
 Alpha MOs
 -- Occupied --
-14.317 -10.216 -10.216 -10.215 -10.215 -10.215 -10.215  -0.960
 -0.896  -0.750  -0.643  -0.635  -0.589  -0.545  -0.482  -0.471
 -0.465  -0.408  -0.395  -0.365  -0.338  -0.299  -0.298  -0.227
 -0.173
 -- Virtual --
  0.016   0.089   0.114   0.142   0.143   0.153   0.159   0.166
  0.198   0.211   0.231   0.274   0.291   0.304   0.321   0.388
  0.526   0.528   0.540   0.541   0.564   0.589   0.592   0.595
  0.615   0.617   0.632   0.656   0.672   0.735   0.791   0.802
  0.814   0.838   0.854   0.854   0.882   0.888   0.925   0.938
  0.958   0.983   1.144   1.156   1.164   1.197   1.256   1.370
  1.413   1.457   1.488   1.500   1.582   1.617   1.646   1.677
  1.740   1.742   1.860   1.868   1.877   1.916   1.993   2.025
  2.037   2.134   2.160   2.202   2.247   2.287   2.358   2.467
  2.473   2.484   2.526   2.578   2.596   2.609   2.624   2.690
  2.733   2.772   2.804   2.989   3.152   4.017   4.114   4.179
  4.381   4.454   4.461   4.550
 
 Beta MOs
 -- Occupied --
-14.320 -10.216 -10.216 -10.213 -10.213 -10.207 -10.207  -0.955
 -0.894  -0.738  -0.631  -0.630  -0.584  -0.542  -0.476  -0.466
 -0.464  -0.405  -0.377  -0.362  -0.323  -0.298  -0.294  -0.227
 -- Virtual --
 -0.064   0.036   0.091   0.120   0.144   0.144   0.161   0.165
  0.170   0.210   0.213   0.235   0.277   0.300   0.308   0.329
  0.393   0.528   0.534   0.547   0.563   0.566   0.592   0.599
  0.605   0.621   0.639   0.652   0.659   0.678   0.740   0.795
  0.804   0.817   0.842   0.847   0.857   0.883   0.897   0.931
  0.942   0.962   0.992   1.147   1.157   1.167   1.199   1.256
  1.387   1.420   1.457   1.497   1.515   1.583   1.633   1.659
  1.685   1.748   1.750   1.863   1.881   1.886   1.919   1.999
  2.030   2.051   2.143   2.164   2.224   2.256   2.297   2.374
  2.475   2.477   2.497   2.541   2.583   2.597   2.617   2.626
  2.694   2.736   2.776   2.810   2.991   3.157   4.014   4.130
  4.191   4.384   4.459   4.472   4.552
 --------------------------------------------------------------
 
          Ground-State Mulliken Net Atomic Charges

     Atom                 Charge (a.u.)    Spin (a.u.)
  --------------------------------------------------------
      1 C                     0.076512       0.597072
      2 C                    -0.221053      -0.053313
      3 C                    -0.090109       0.094740
      4 C                    -0.220919      -0.053375
      5 C                     0.076556       0.597268
      6 N                    -0.395296      -0.205392
      7 H                     0.135604      -0.032047
      8 H                     0.142094       0.000516
      9 H                     0.154169      -0.004294
     10 H                     0.142133       0.000517
     11 H                     0.135568      -0.032056
     12 C                    -0.089480       0.094652
     13 H                     0.154221      -0.004287
  --------------------------------------------------------
  Sum of atomic charges =     0.000000
  Sum of spin   charges =     1.000000

 -----------------------------------------------------------------
                    Cartesian Multipole Moments
 -----------------------------------------------------------------
    Charge (ESU x 10^10)
                 0.0000
    Dipole Moment (Debye)
         X      -1.5116      Y      -2.5400      Z       0.4073
       Tot       2.9837
    Quadrupole Moments (Debye-Ang)
        XX     -37.7941     XY      -3.6412     YY     -41.8664
        XZ       0.5208     YZ       0.1347     ZZ     -41.2933
    Octopole Moments (Debye-Ang^2)
       XXX     -10.7860    XXY     -10.5542    XYY     -13.7108
       YYY     -30.9199    XXZ       1.5939    XYZ       1.1290
       YYZ       1.5904    XZZ      -6.5767    YZZ     -10.7565
       ZZZ       5.1689
    Hexadecapole Moments (Debye-Ang^3)
      XXXX    -271.0839   XXXY     -26.6942   XXYY    -110.6045
      XYYY     -44.4193   YYYY    -345.6301   XXXZ       4.9253
      XXYZ       7.0659   XYYZ       6.3330   YYYZ      21.8856
      XXZZ     -67.4105   XYZZ      -4.0177   YYZZ     -70.5726
      XZZZ       2.8249   YZZZ      18.1700   ZZZZ     -96.2370
 -----------------------------------------------------------------
 Calculating analytic gradient of the SCF energy
 Gradient of SCF Energy
            1           2           3           4           5           6
    1   0.0000353  -0.0000335   0.0000393  -0.0000079  -0.0000503   0.0000052
    2  -0.0000434   0.0000830  -0.0000677   0.0000894  -0.0000485   0.0000315
    3  -0.0000056  -0.0000117   0.0001288   0.0000089  -0.0000231   0.0000163
            7           8           9          10          11          12
    1  -0.0000086   0.0000019   0.0000291  -0.0000000  -0.0000181  -0.0000017
    2   0.0000255  -0.0000157  -0.0000006  -0.0000162   0.0000085  -0.0000555
    3   0.0000026   0.0000104  -0.0000254  -0.0000212  -0.0000075  -0.0000875
           13
    1   0.0000093
    2   0.0000097
    3   0.0000150
 Max gradient component =       1.288E-04
 RMS gradient           =       4.043E-05
 Gradient time:  CPU 7.50 s  wall 2.02 s
-Performing force calculation on product structure in state0
 ----------------------------------------------------------------
             Standard Nuclear Orientation (Angstroms)
    I     Atom           X                Y                Z
 ----------------------------------------------------------------
    1      C       1.2022591429     0.2877793413     0.3826821469
    2      C       0.6319133819    -1.1043246398    -0.1506752612
    3      C      -0.6179789256    -0.9075113194    -0.8724856028
    4      C      -1.0787840264     0.1774496643     0.0983132101
    5      C      -0.4488456729     1.4616948132    -0.4277076773
    6      N       0.8289742355     1.4935293004    -0.3133343371
    7      H       2.2047959423     0.2370249760     0.7951517711
    8      H       1.3124181001    -1.9491079844    -0.1902707261
    9      H      -0.9097277067    -1.1112685852    -1.9001048539
   10      H      -2.1277384453     0.2119539823     0.4006922270
   11      H      -0.9939847427     2.2286577195    -0.9756632295
   12      C       0.0450314674    -0.3543074735     1.0595597874
   13      H      -0.0483327503    -0.6715697942     2.0938425453
 ----------------------------------------------------------------
 Nuclear Repulsion Energy =   282.1918759132 hartrees
 There are       25 alpha and       24 beta electrons

                       Distance Matrix (Angstroms)
             C (  1)   C (  2)   C (  3)   C (  4)   C (  5)   N (  6)
   C (  2)  1.596157
   C (  3)  2.513450  1.456701
   C (  4)  2.301347  2.152075  1.527066
   C (  5)  2.181962  2.798078  2.416520  1.524075
   N (  6)  1.441393  2.610390  2.858552  2.353946  1.283323
   H (  7)  1.085259  2.273272  3.472612  3.357236  3.168125  2.168047
   H (  8)  2.311726  1.085501  2.297123  3.213001  3.846037  3.478594
   H (  9)  3.410123  2.331782  1.087491  2.383915  3.000084  3.510826
   H ( 10)  3.330909  3.106811  2.270145  1.092213  2.250951  3.300669
   H ( 11)  3.230418  3.799068  3.160314  2.316910  1.088882  2.074192
   C ( 12)  1.486477  1.540008  2.116227  1.571535  2.398696  2.431852
   H ( 13)  2.326457  2.384926  3.029731  2.401000  3.327077  3.354374
             H (  7)   H (  8)   H (  9)   H ( 10)   H ( 11)   C ( 12)
   H (  8)  2.558627
   H (  9)  4.333885  2.926336
   H ( 10)  4.350527  4.105375  2.920297
   H ( 11)  4.163482  4.836327  3.466526  2.691997
   C ( 12)  2.254810  2.389923  3.200651  2.340019  3.448680
   H ( 13)  2.754765  2.949732  4.109374  2.823349  4.327522  1.085870

 
 Applying Cartesian multipole field
    Component          Value
    ---------          -----
     (2,0,0)        1.00000E-11
     (0,2,0)        2.00000E-11
     (0,0,2)       -3.00000E-11
 Nucleus-field energy     =     0.0000000026 hartrees
 Requested basis set is 6-31G(d)
 There are 40 shells and 117 basis functions
 A cutoff of  1.0D-14 yielded    812 shell pairs
 There are      7084 function pairs
 Smallest overlap matrix eigenvalue = 1.65E-03
 Guess MOs from core Hamiltonian diagonalization
 Mixing HOMO and LUMO in initial guess
 Adding  50% of the LUMO to the HOMO
 An unrestricted hybrid HF-DFT SCF calculation will be
 performed using Pulay DIIS extrapolation
 Exchange:     0.2000 Hartree-Fock + 0.0800 Slater + 0.7200 B88
 Correlation:  0.1900 VWN1RPA + 0.8100 LYP
 Using SG-1 standard quadrature grid
 SCF converges when DIIS error is below 1.0E-08
 using 4 threads for integral computing
 -------------------------------------------------------
 OpenMP Integral computing Module                
 Release: version 1.0, May 2013, Q-Chem Inc. Pittsburgh 
 -------------------------------------------------------
 -------------------------------------------------------
 OpenMP BLAS3 based DFT computing Module                
 Release: version 1.0, May 2013, Q-Chem Inc. Pittsburgh 
 -------------------------------------------------------
 ---------------------------------------
  Cycle       Energy         DIIS Error
 ---------------------------------------
    1    -236.3073675602      1.34E-01
    2    -225.7402798057      1.11E-01
    3    -256.6264385955      1.01E-01
    4    -276.2098071732      7.34E-02
    5    -282.8224645619      4.29E-02
    6    -286.3577317057      1.58E-02
    7    -286.4885448882      1.31E-02
    8    -286.8104620007      3.89E-03
    9    -286.8277140921      2.44E-03
   10    -286.8380488688      2.90E-04
   11    -286.8382569374      1.42E-04
   12    -286.8383101832      5.11E-05
   13    -286.8383280341      2.52E-05
   14    -286.8383305918      7.98E-06
   15    -286.8383307997      1.45E-06
   16    -286.8383308193      4.09E-07
   17    -286.8383308235      2.20E-07
   18    -286.8383308243      8.58E-08
   19    -286.8383308245      1.77E-08
   20    -286.8383308245      8.26E-09 Convergence criterion met
 ---------------------------------------
 <S^2> = 0.7566
 SCF time:  CPU 50.67 s  wall 16.47 s
 SCF   energy in the final basis set = -286.83833082
 Total energy in the final basis set = -286.83833082
 
 --------------------------------------------------------------
 
                    Orbital Energies (a.u.)
 --------------------------------------------------------------
 
 Alpha MOs
 -- Occupied --
-14.320 -10.224 -10.220 -10.210 -10.209 -10.208 -10.206  -0.968
 -0.856  -0.749  -0.664  -0.606  -0.571  -0.535  -0.516  -0.467
 -0.439  -0.405  -0.400  -0.356  -0.336  -0.298  -0.273  -0.256
 -0.182
 -- Virtual --
  0.004   0.101   0.114   0.128   0.150   0.150   0.153   0.162
  0.177   0.200   0.221   0.262   0.280   0.296   0.348   0.391
  0.494   0.513   0.524   0.543   0.558   0.573   0.601   0.605
  0.605   0.659   0.675   0.677   0.720   0.741   0.770   0.777
  0.805   0.807   0.822   0.842   0.854   0.877   0.889   0.936
  0.954   0.973   1.043   1.096   1.206   1.237   1.328   1.390
  1.446   1.475   1.504   1.517   1.587   1.632   1.672   1.713
  1.743   1.828   1.873   1.881   1.932   1.954   1.987   2.026
  2.060   2.168   2.207   2.218   2.232   2.253   2.363   2.380
  2.456   2.490   2.502   2.541   2.590   2.626   2.664   2.676
  2.718   2.808   2.841   2.914   2.963   3.959   4.194   4.239
  4.362   4.433   4.508   4.640
 
 Beta MOs
 -- Occupied --
-14.319 -10.222 -10.219 -10.211 -10.209 -10.207 -10.193  -0.964
 -0.850  -0.741  -0.652  -0.601  -0.567  -0.528  -0.511  -0.461
 -0.434  -0.403  -0.394  -0.348  -0.332  -0.292  -0.262  -0.251
 -- Virtual --
 -0.062   0.020   0.103   0.118   0.134   0.151   0.156   0.157
  0.165   0.181   0.204   0.227   0.267   0.284   0.298   0.360
  0.394   0.497   0.518   0.532   0.553   0.561   0.578   0.607
  0.610   0.622   0.669   0.679   0.683   0.729   0.745   0.775
  0.787   0.808   0.810   0.824   0.844   0.858   0.882   0.892
  0.940   0.958   0.976   1.047   1.108   1.208   1.243   1.334
  1.392   1.449   1.481   1.514   1.525   1.594   1.640   1.677
  1.716   1.751   1.835   1.878   1.894   1.940   1.970   1.994
  2.034   2.069   2.172   2.222   2.226   2.242   2.270   2.368
  2.390   2.463   2.497   2.511   2.546   2.594   2.633   2.666
  2.684   2.725   2.813   2.846   2.917   2.965   3.961   4.208
  4.245   4.368   4.438   4.511   4.644
 --------------------------------------------------------------
 
          Ground-State Mulliken Net Atomic Charges

     Atom                 Charge (a.u.)    Spin (a.u.)
  --------------------------------------------------------
      1 C                    -0.019092       0.096858
      2 C                    -0.163415      -0.095845
      3 C                    -0.066263       0.888522
      4 C                    -0.258038      -0.065708
      5 C                     0.088653       0.047053
      6 N                    -0.342225       0.039225
      7 H                     0.151439       0.002843
      8 H                     0.147213       0.005290
      9 H                     0.136242      -0.019296
     10 H                     0.142804       0.022691
     11 H                     0.143041       0.001381
     12 C                    -0.108438       0.077770
     13 H                     0.148078      -0.000783
  --------------------------------------------------------
  Sum of atomic charges =     0.000000
  Sum of spin   charges =     1.000000

 -----------------------------------------------------------------
                    Cartesian Multipole Moments
 -----------------------------------------------------------------
    Charge (ESU x 10^10)
                -0.0000
    Dipole Moment (Debye)
         X      -1.2005      Y      -1.4920      Z       0.7276
       Tot       2.0486
    Quadrupole Moments (Debye-Ang)
        XX     -38.9596     XY      -4.8807     YY     -43.3698
        XZ       2.2426     YZ       0.1598     ZZ     -38.9890
    Octopole Moments (Debye-Ang^2)
       XXX      -7.7037    XXY      -7.3438    XYY      -7.7992
       YYY     -19.6502    XXZ       4.1836    XYZ       2.4848
       YYZ       0.1660    XZZ      -4.9717    YZZ      -7.5281
       ZZZ       4.9555
    Hexadecapole Moments (Debye-Ang^3)
      XXXX    -214.7191   XXXY      -9.8183   XXYY     -91.1428
      XYYY     -25.6820   YYYY    -304.8775   XXXZ     -13.8769
      XXYZ       4.2455   XYYZ      -0.9977   YYYZ       6.8564
      XXZZ     -63.0229   XYZZ      -1.6400   YYZZ     -73.2844
      XZZZ     -15.3116   YZZZ       7.8058   ZZZZ    -143.6756
 -----------------------------------------------------------------
 Calculating analytic gradient of the SCF energy
 Gradient of SCF Energy
            1           2           3           4           5           6
    1   0.0000181  -0.0001942   0.0000921  -0.0000052   0.0000069   0.0000436
    2   0.0002727  -0.0001761   0.0000069  -0.0000037  -0.0000190  -0.0000683
    3   0.0001183  -0.0000746   0.0000132   0.0000171  -0.0000116  -0.0000689
            7           8           9          10          11          12
    1  -0.0000035   0.0000348  -0.0000212   0.0000081  -0.0000105   0.0000352
    2  -0.0000149   0.0000380  -0.0000368   0.0000077   0.0000100  -0.0000287
    3  -0.0000035   0.0000084   0.0000327  -0.0000003   0.0000100  -0.0000485
           13
    1  -0.0000041
    2   0.0000123
    3   0.0000077
 Max gradient component =       2.727E-04
 RMS gradient           =       7.067E-05
 Gradient time:  CPU 8.26 s  wall 2.20 s

STARTING FREEZING STRING ITERATION # 1
 The distance between the innermost nodes (Angstroms): 2.317
-Adding two new nodes
 The distance between the previous and current R_nodes (Angstroms): 0.1147
 The distance between the previous and current P_nodes (Angstroms): 0.1096
-Optimizing new reactant side node
 Using BFGS, step: 2 E_tol 0.0201
 max_steps 6, node_spacing 0.1103, sigma 0.7000
 ----------------------------------------------------------------
             Standard Nuclear Orientation (Angstroms)
    I     Atom           X                Y                Z
 ----------------------------------------------------------------
    1      C       1.5610423280     0.4407460889    -0.0615968168
    2      C       0.8172935111    -0.8345063919     0.0967336787
    3      C      -0.5224694442    -0.9645675282    -0.5984581843
    4      C      -1.1201812745     0.3115414380    -0.0314462652
    5      C      -0.3750059410     1.5747597227    -0.2498618654
    6      N       0.9527390528     1.6127267694    -0.2631204722
    7      H       2.6492172190     0.4330535097    -0.0523886431
    8      H       1.4034827834    -1.7425626371     0.2250068287
    9      H      -0.9235178732    -1.7208212051    -1.2586653575
   10      H      -2.2072498253     0.3726060882    -0.0112368304
   11      H      -0.9103612858     2.5087833681    -0.4098540145
   12      C      -0.4803519718    -0.7284799499     0.8747484749
   13      H      -0.8500475022    -1.2657822683     1.7370750093
 ----------------------------------------------------------------
 Nuclear Repulsion Energy =   277.1886856431 hartrees
 There are       25 alpha and       24 beta electrons

                       Distance Matrix (Angstroms)
             C (  1)   C (  2)   C (  3)   C (  4)   C (  5)   N (  6)
   C (  2)  1.484756
   C (  3)  2.569854  1.514983
   C (  4)  2.684504  2.254698  1.518952
   C (  5)  2.251602  2.710400  2.567381  1.482805
   N (  6)  1.335733  2.477255  2.988501  2.458405  1.328354
   H (  7)  1.088241  2.232687  3.508722  3.771415  3.238582  2.077035
   H (  8)  2.207669  1.088411  2.234427  3.264045  3.793831  3.420439
   H (  9)  3.504053  2.377622  1.081033  2.382276  3.489900  3.952720
   H ( 10)  3.769245  3.258319  2.229652  1.088970  2.204367  3.403950
   H ( 11)  3.241280  3.797237  3.500028  2.239439  1.088395  2.072581
   C ( 12)  2.532019  1.516718  1.492598  1.520597  2.565299  2.971489
   H ( 13)  3.458441  2.378391  2.377552  2.385076  3.498894  3.941654
             H (  7)   H (  8)   H (  9)   H ( 10)   H ( 11)   C ( 12)
   H (  8)  2.522322
   H (  9)  4.342662  2.759835
   H ( 10)  4.857018  4.191317  2.754357
   H ( 11)  4.136065  4.881687  4.313955  2.530626
   C ( 12)  3.464527  2.235925  2.394283  2.231488  3.509271
   H ( 13)  4.281714  2.755371  3.030993  2.753708  4.342843  1.081192

 
 Applying Cartesian multipole field
    Component          Value
    ---------          -----
     (2,0,0)        1.00000E-11
     (0,2,0)        2.00000E-11
     (0,0,2)       -3.00000E-11
 Nucleus-field energy     =     0.0000000050 hartrees
 Requested basis set is 6-31G(d)
 There are 40 shells and 117 basis functions
 A cutoff of  1.0D-14 yielded    809 shell pairs
 There are      7081 function pairs
 Smallest overlap matrix eigenvalue = 1.64E-03
 Guess MOs from core Hamiltonian diagonalization
 Mixing HOMO and LUMO in initial guess
 Adding  50% of the LUMO to the HOMO
 An unrestricted hybrid HF-DFT SCF calculation will be
 performed using Pulay DIIS extrapolation
 Exchange:     0.2000 Hartree-Fock + 0.0800 Slater + 0.7200 B88
 Correlation:  0.1900 VWN1RPA + 0.8100 LYP
 Using SG-1 standard quadrature grid
 SCF converges when DIIS error is below 1.0E-08
 using 4 threads for integral computing
 -------------------------------------------------------
 OpenMP Integral computing Module                
 Release: version 1.0, May 2013, Q-Chem Inc. Pittsburgh 
 -------------------------------------------------------
 -------------------------------------------------------
 OpenMP BLAS3 based DFT computing Module                
 Release: version 1.0, May 2013, Q-Chem Inc. Pittsburgh 
 -------------------------------------------------------
 ---------------------------------------
  Cycle       Energy         DIIS Error
 ---------------------------------------
    1    -240.4621878128      1.29E-01
    2    -241.6488606872      1.02E-01
    3    -280.8630519750      4.94E-02
    4    -283.4735228349      4.13E-02
    5    -286.3096494394      1.62E-02
    6    -286.7196106133      9.32E-03
    7    -286.8384439837      3.14E-03
    8    -286.8554244644      8.33E-04
    9    -286.8567815591      2.53E-04
   10    -286.8570148417      8.71E-05
   11    -286.8570765089      3.48E-05
   12    -286.8571066107      9.81E-06
   13    -286.8571145379      6.00E-06
   14    -286.8571173115      2.48E-06
   15    -286.8571175080      7.93E-07
   16    -286.8571175148      2.44E-07
   17    -286.8571175150      8.32E-08
   18    -286.8571175151      1.58E-08
   19    -286.8571175151      6.09E-09 Convergence criterion met
 ---------------------------------------
 <S^2> = 0.7739
 SCF time:  CPU 48.18 s  wall 17.83 s
 SCF   energy in the final basis set = -286.85711752
 Total energy in the final basis set = -286.85711752
 
 --------------------------------------------------------------
 
                    Orbital Energies (a.u.)
 --------------------------------------------------------------
 
 Alpha MOs
 -- Occupied --
-14.317 -10.216 -10.216 -10.216 -10.215 -10.215 -10.214  -0.958
 -0.894  -0.750  -0.642  -0.633  -0.593  -0.543  -0.481  -0.469
 -0.466  -0.408  -0.396  -0.364  -0.342  -0.299  -0.295  -0.224
 -0.174
 -- Virtual --
  0.017   0.090   0.103   0.143   0.143   0.155   0.157   0.166
  0.200   0.213   0.232   0.268   0.287   0.307   0.320   0.390
  0.524   0.525   0.534   0.536   0.566   0.590   0.595   0.596
  0.617   0.621   0.631   0.656   0.666   0.735   0.789   0.805
  0.814   0.836   0.851   0.856   0.881   0.884   0.927   0.939
  0.959   0.985   1.137   1.153   1.160   1.207   1.255   1.370
  1.423   1.446   1.483   1.497   1.586   1.628   1.653   1.666
  1.738   1.750   1.858   1.864   1.873   1.919   2.001   2.017
  2.022   2.137   2.162   2.201   2.236   2.290   2.360   2.462
  2.472   2.487   2.531   2.578   2.595   2.602   2.619   2.688
  2.724   2.758   2.802   2.988   3.147   4.016   4.116   4.186
  4.388   4.449   4.464   4.538
 
 Beta MOs
 -- Occupied --
-14.320 -10.216 -10.216 -10.215 -10.214 -10.206 -10.206  -0.953
 -0.891  -0.738  -0.630  -0.627  -0.588  -0.541  -0.475  -0.464
 -0.463  -0.405  -0.378  -0.361  -0.328  -0.295  -0.294  -0.224
 -- Virtual --
 -0.064   0.037   0.092   0.108   0.144   0.145   0.163   0.164
  0.171   0.211   0.216   0.235   0.271   0.296   0.311   0.328
  0.395   0.525   0.531   0.543   0.551   0.568   0.598   0.602
  0.605   0.626   0.638   0.652   0.660   0.673   0.741   0.793
  0.807   0.817   0.840   0.845   0.858   0.882   0.892   0.932
  0.944   0.963   0.995   1.140   1.155   1.162   1.209   1.254
  1.387   1.429   1.447   1.492   1.512   1.587   1.643   1.666
  1.676   1.745   1.757   1.866   1.870   1.886   1.922   2.007
  2.027   2.029   2.144   2.166   2.224   2.246   2.301   2.376
  2.464   2.482   2.499   2.547   2.583   2.596   2.604   2.627
  2.691   2.727   2.763   2.808   2.990   3.152   4.012   4.132
  4.198   4.392   4.459   4.469   4.540
 --------------------------------------------------------------
 
          Ground-State Mulliken Net Atomic Charges

     Atom                 Charge (a.u.)    Spin (a.u.)
  --------------------------------------------------------
      1 C                     0.074747       0.609057
      2 C                    -0.213765      -0.052564
      3 C                    -0.091016       0.088950
      4 C                    -0.218350      -0.052899
      5 C                     0.078834       0.592727
      6 N                    -0.394368      -0.206012
      7 H                     0.133443      -0.032469
      8 H                     0.143453       0.000532
      9 H                     0.154649      -0.003991
     10 H                     0.142255       0.000601
     11 H                     0.134400      -0.031837
     12 C                    -0.099299       0.092058
     13 H                     0.155015      -0.004152
  --------------------------------------------------------
  Sum of atomic charges =     0.000000
  Sum of spin   charges =     1.000000

 -----------------------------------------------------------------
                    Cartesian Multipole Moments
 -----------------------------------------------------------------
    Charge (ESU x 10^10)
                 0.0000
    Dipole Moment (Debye)
         X      -1.5043      Y      -2.5370      Z       0.3946
       Tot       2.9757
    Quadrupole Moments (Debye-Ang)
        XX     -37.9514     XY      -3.7860     YY     -42.0039
        XZ       0.6218     YZ       0.1931     ZZ     -41.0987
    Octopole Moments (Debye-Ang^2)
       XXX     -10.8416    XXY     -10.4637    XYY     -13.2289
       YYY     -30.5226    XXZ       1.7020    XYZ       1.0651
       YYZ       1.3894    XZZ      -6.6199    YZZ     -10.8478
       ZZZ       5.2439
    Hexadecapole Moments (Debye-Ang^3)
      XXXX    -269.5306   XXXY     -26.0033   XXYY    -110.0195
      XYYY     -43.5617   YYYY    -345.1598   XXXZ       4.3680
      XXYZ       7.2040   XYYZ       6.2321   YYYZ      21.4686
      XXZZ     -67.2142   XYZZ      -3.6247   YYZZ     -70.4473
      XZZZ       1.9348   YZZZ      17.8121   ZZZZ     -97.6316
 -----------------------------------------------------------------
 Calculating analytic gradient of the SCF energy
 Gradient of SCF Energy
            1           2           3           4           5           6
    1  -0.0056595  -0.0000522  -0.0001031  -0.0029112   0.0029679  -0.0022806
    2  -0.0000586  -0.0093614  -0.0023031  -0.0006336  -0.0018012   0.0042434
    3   0.0064882  -0.0023712  -0.0139163  -0.0015332   0.0013409  -0.0033381
            7           8           9          10          11          12
    1  -0.0004473   0.0000424   0.0010220  -0.0000042   0.0001198   0.0062991
    2  -0.0010322   0.0001410   0.0014472  -0.0001064  -0.0001597   0.0086728
    3  -0.0003979   0.0001012  -0.0025077   0.0000319   0.0003685   0.0145154
           13
    1   0.0010068
    2   0.0009518
    3   0.0012183
 Max gradient component =       1.452E-02
 RMS gradient           =       4.431E-03
 Gradient time:  CPU 7.98 s  wall 2.37 s
 ----------------------------------------------------------------
             Standard Nuclear Orientation (Angstroms)
    I     Atom           X                Y                Z
 ----------------------------------------------------------------
    1      C       1.5693669253     0.4398782091    -0.0687864920
    2      C       0.8164845775    -0.8201959492     0.0969771501
    3      C      -0.5230923193    -0.9594043626    -0.5743782188
    4      C      -1.1145220279     0.3118003026    -0.0275093572
    5      C      -0.3817688589     1.5775263050    -0.2547135850
    6      N       0.9555595208     1.6039856507    -0.2573207512
    7      H       2.6473268730     0.4340459040    -0.0420505075
    8      H       1.4028779893    -1.7465502247     0.2197514306
    9      H      -0.9261670934    -1.7188612619    -1.2616258768
   10      H      -2.2072798037     0.3714540441    -0.0066966286
   11      H      -0.9118366293     2.5074645996    -0.4171078910
   12      C      -0.4879585266    -0.7417779090     0.8497484749
   13      H      -0.8444008215    -1.2618682705     1.7406477166
 ----------------------------------------------------------------
 Nuclear Repulsion Energy =   278.1710994130 hartrees
 There are       25 alpha and       24 beta electrons

                       Distance Matrix (Angstroms)
             C (  1)   C (  2)   C (  3)   C (  4)   C (  5)   N (  6)
   C (  2)  1.477192
   C (  3)  2.567489  1.504847
   C (  4)  2.687260  2.241807  1.504931
   C (  5)  2.266218  2.703437  2.560893  1.480071
   N (  6)  1.329455  2.453880  2.976223  2.451080  1.337593
   H (  7)  1.078307  2.223609  3.503803  3.763863  3.244718  2.068134
   H (  8)  2.211660  1.103206  2.227016  3.261173  3.802574  3.413764
   H (  9)  3.508662  2.385422  1.100706  2.383717  3.489472  3.948523
   H ( 10)  3.777777  3.251758  2.220345  1.094583  2.201957  3.403748
   H ( 11)  3.248478  3.784799  3.492139  2.239154  1.082649  2.080619
   C ( 12)  2.544132  1.508107  1.441087  1.507379  2.571047  2.968493
   H ( 13)  3.463563  2.378081  2.356707  2.382389  3.501094  3.929994
             H (  7)   H (  8)   H (  9)   H ( 10)   H ( 11)   C ( 12)
   H (  8)  2.524320
   H (  9)  4.346520  2.760380
   H ( 10)  4.855139  4.191713  2.754181
   H ( 11)  4.136107  4.884684  4.309901  2.531630
   C ( 12)  3.465239  2.231978  2.367408  2.220101  3.513143
   H ( 13)  4.271569  2.756502  3.037956  2.752888  4.343769  1.091442

 
 Applying Cartesian multipole field
    Component          Value
    ---------          -----
     (2,0,0)        1.00000E-11
     (0,2,0)        2.00000E-11
     (0,0,2)       -3.00000E-11
 Nucleus-field energy     =     0.0000000050 hartrees
 Requested basis set is 6-31G(d)
 There are 40 shells and 117 basis functions
 A cutoff of  1.0D-14 yielded    810 shell pairs
 There are      7082 function pairs
 Smallest overlap matrix eigenvalue = 1.56E-03
 Guess MOs from core Hamiltonian diagonalization
 Mixing HOMO and LUMO in initial guess
 Adding  50% of the LUMO to the HOMO
 An unrestricted hybrid HF-DFT SCF calculation will be
 performed using Pulay DIIS extrapolation
 Exchange:     0.2000 Hartree-Fock + 0.0800 Slater + 0.7200 B88
 Correlation:  0.1900 VWN1RPA + 0.8100 LYP
 Using SG-1 standard quadrature grid
 SCF converges when DIIS error is below 1.0E-08
 using 4 threads for integral computing
 -------------------------------------------------------
 OpenMP Integral computing Module                
 Release: version 1.0, May 2013, Q-Chem Inc. Pittsburgh 
 -------------------------------------------------------
 -------------------------------------------------------
 OpenMP BLAS3 based DFT computing Module                
 Release: version 1.0, May 2013, Q-Chem Inc. Pittsburgh 
 -------------------------------------------------------
 ---------------------------------------
  Cycle       Energy         DIIS Error
 ---------------------------------------
    1    -239.6424439538      1.31E-01
    2    -241.5091665678      1.02E-01
    3    -280.5062864900      5.05E-02
    4    -283.2304048785      4.27E-02
    5    -286.2696322551      1.69E-02
    6    -286.7089825234      9.81E-03
    7    -286.8380263163      3.15E-03
    8    -286.8555833845      7.25E-04
    9    -286.8566258002      2.90E-04
   10    -286.8568731482      7.72E-05
   11    -286.8569322059      4.10E-05
   12    -286.8569558821      7.76E-06
   13    -286.8569648862      4.64E-06
   14    -286.8569663788      2.55E-06
   15    -286.8569665138      8.43E-07
   16    -286.8569665200      3.36E-07
   17    -286.8569665204      7.77E-08
   18    -286.8569665204      1.46E-08
   19    -286.8569665204      5.80E-09 Convergence criterion met
 ---------------------------------------
 <S^2> = 0.7738
 SCF time:  CPU 48.63 s  wall 17.37 s
 SCF   energy in the final basis set = -286.85696652
 Total energy in the final basis set = -286.85696652
 
 --------------------------------------------------------------
 
                    Orbital Energies (a.u.)
 --------------------------------------------------------------
 
 Alpha MOs
 -- Occupied --
-14.315 -10.216 -10.215 -10.214 -10.214 -10.213 -10.213  -0.966
 -0.898  -0.752  -0.644  -0.634  -0.588  -0.544  -0.483  -0.473
 -0.464  -0.409  -0.393  -0.366  -0.340  -0.302  -0.295  -0.226
 -0.173
 -- Virtual --
  0.018   0.088   0.115   0.141   0.142   0.155   0.157   0.167
  0.204   0.210   0.234   0.280   0.294   0.304   0.323   0.386
  0.524   0.529   0.540   0.543   0.571   0.591   0.594   0.601
  0.612   0.618   0.637   0.657   0.673   0.738   0.788   0.790
  0.811   0.838   0.853   0.855   0.883   0.889   0.927   0.938
  0.961   0.983   1.147   1.150   1.161   1.206   1.260   1.373
  1.411   1.465   1.488   1.498   1.580   1.630   1.656   1.675
  1.733   1.741   1.870   1.871   1.880   1.929   1.993   2.031
  2.048   2.144   2.156   2.205   2.261   2.294   2.355   2.470
  2.477   2.484   2.530   2.579   2.613   2.615   2.632   2.698
  2.742   2.793   2.812   2.988   3.159   4.021   4.118   4.188
  4.379   4.458   4.463   4.550
 
 Beta MOs
 -- Occupied --
-14.319 -10.215 -10.214 -10.214 -10.213 -10.206 -10.205  -0.962
 -0.895  -0.740  -0.632  -0.629  -0.584  -0.542  -0.477  -0.467
 -0.462  -0.406  -0.375  -0.363  -0.325  -0.300  -0.291  -0.226
 -- Virtual --
 -0.064   0.038   0.089   0.120   0.143   0.144   0.162   0.164
  0.171   0.211   0.216   0.237   0.284   0.303   0.308   0.331
  0.390   0.531   0.531   0.547   0.565   0.573   0.594   0.601
  0.611   0.619   0.644   0.652   0.660   0.680   0.743   0.790
  0.794   0.812   0.843   0.848   0.855   0.884   0.897   0.930
  0.944   0.965   0.992   1.149   1.152   1.163   1.208   1.259
  1.390   1.418   1.465   1.496   1.514   1.582   1.645   1.668
  1.681   1.741   1.749   1.874   1.884   1.889   1.933   1.999
  2.035   2.061   2.154   2.161   2.228   2.270   2.305   2.371
  2.472   2.487   2.496   2.546   2.584   2.616   2.622   2.633
  2.702   2.745   2.797   2.818   2.990   3.163   4.017   4.134
  4.200   4.382   4.463   4.473   4.552
 --------------------------------------------------------------
 
          Ground-State Mulliken Net Atomic Charges

     Atom                 Charge (a.u.)    Spin (a.u.)
  --------------------------------------------------------
      1 C                     0.078796       0.586988
      2 C                    -0.218931      -0.050836
      3 C                    -0.085754       0.090546
      4 C                    -0.219900      -0.053079
      5 C                     0.074583       0.609446
      6 N                    -0.399464      -0.205699
      7 H                     0.135505      -0.031304
      8 H                     0.140538       0.000412
      9 H                     0.152896      -0.004032
     10 H                     0.140361       0.000495
     11 H                     0.136869      -0.032413
     12 C                    -0.088775       0.093703
     13 H                     0.153276      -0.004229
  --------------------------------------------------------
  Sum of atomic charges =    -0.000000
  Sum of spin   charges =     1.000000

 -----------------------------------------------------------------
                    Cartesian Multipole Moments
 -----------------------------------------------------------------
    Charge (ESU x 10^10)
                 0.0000
    Dipole Moment (Debye)
         X      -1.4926      Y      -2.5067      Z       0.4051
       Tot       2.9454
    Quadrupole Moments (Debye-Ang)
        XX     -37.9290     XY      -3.7633     YY     -42.0149
        XZ       0.6263     YZ       0.1654     ZZ     -41.0200
    Octopole Moments (Debye-Ang^2)
       XXX     -10.4421    XXY     -10.3166    XYY     -13.4342
       YYY     -30.0823    XXZ       1.7628    XYZ       1.1231
       YYZ       1.3360    XZZ      -6.5629    YZZ     -10.7326
       ZZZ       5.3741
    Hexadecapole Moments (Debye-Ang^3)
      XXXX    -269.8032   XXXY     -25.8305   XXYY    -110.0679
      XYYY     -43.9122   YYYY    -343.8583   XXXZ       4.6221
      XXYZ       7.3016   XYYZ       6.2694   YYYZ      21.3419
      XXZZ     -67.0888   XYZZ      -3.7142   YYZZ     -70.1328
      XZZZ       2.0810   YZZZ      18.0577   ZZZZ     -95.3152
 -----------------------------------------------------------------
 Calculating analytic gradient of the SCF energy
 Gradient of SCF Energy
            1           2           3           4           5           6
    1   0.0054262  -0.0134718   0.0077956   0.0099921  -0.0089663   0.0025549
    2  -0.0013035   0.0067611   0.0170095  -0.0109521   0.0056050  -0.0044233
    3   0.0033230  -0.0025773   0.0237161   0.0005174  -0.0018614   0.0000514
            7           8           9          10          11          12
    1  -0.0070988   0.0048781  -0.0041330  -0.0033498   0.0013493   0.0060546
    2  -0.0008080  -0.0076095  -0.0074785   0.0007307  -0.0030688   0.0075521
    3  -0.0000745   0.0008483  -0.0094705   0.0001871   0.0007885  -0.0220843
           13
    1  -0.0010311
    2  -0.0020148
    3   0.0066363
 Max gradient component =       2.372E-02
 RMS gradient           =       8.007E-03
 Gradient time:  CPU 8.02 s  wall 2.88 s
WARNING!!!!! energy has increased from optimization step!
 ----------------------------------------------------------------
             Standard Nuclear Orientation (Angstroms)
    I     Atom           X                Y                Z
 ----------------------------------------------------------------
    1      C       1.5598843543     0.4419975004    -0.0738399317
    2      C       0.8392245774    -0.8320592935     0.1008894867
    3      C      -0.5363784717    -0.9881624649    -0.6148879555
    4      C      -1.1314586501     0.3302473512    -0.0282913430
    5      C      -0.3666895288     1.5679467733    -0.2517962880
    6      N       0.9510469364     1.6114404077    -0.2574800759
    7      H       2.6590632676     0.4353307866    -0.0409135113
    8      H       1.3945712366    -1.7340321421     0.2177909614
    9      H      -0.9192128596    -1.7056967326    -1.2464016549
   10      H      -2.2016104927     0.3700545801    -0.0065401545
   11      H      -0.9142729876     2.5124859213    -0.4191340122
   12      C      -0.4977252927    -0.7542000798     0.8875167773
   13      H      -0.8418522480    -1.2578556159     1.7300231401
 ----------------------------------------------------------------
 Nuclear Repulsion Energy =   275.8531940064 hartrees
 There are       25 alpha and       24 beta electrons

                       Distance Matrix (Angstroms)
             C (  1)   C (  2)   C (  3)   C (  4)   C (  5)   N (  6)
   C (  2)  1.474144
   C (  3)  2.594688  1.558522
   C (  4)  2.694047  2.291558  1.560904
   C (  5)  2.238552  2.708993  2.587339  1.471980
   N (  6)  1.331166  2.472170  3.016307  2.455771  1.318466
   H (  7)  1.099692  2.222206  3.544944  3.791999  3.237664  2.085055
   H (  8)  2.201700  1.065660  2.231198  3.271488  3.771686  3.408047
   H (  9)  3.483305  2.381289  1.029673  2.381997  3.465727  3.934366
   H ( 10)  3.762785  3.271589  2.233347  1.071113  2.205001  3.397537
   H ( 11)  3.244627  3.811976  3.526424  2.227576  1.104538  2.077843
   C ( 12)  2.566876  1.553151  1.521004  1.554461  2.589898  3.001035
   H ( 13)  3.451342  2.379369  2.380054  2.386967  3.484042  3.923967
             H (  7)   H (  8)   H (  9)   H ( 10)   H ( 11)   C ( 12)
   H (  8)  2.524283
   H (  9)  4.340652  2.738295
   H ( 10)  4.861234  4.172533  2.736886
   H ( 11)  4.150465  4.875382  4.298542  2.533275
   C ( 12)  3.498897  2.233694  2.374154  2.228567  3.542892
   H ( 13)  4.273114  2.741383  3.010922  2.741293  4.340460  1.040149

 
 Applying Cartesian multipole field
    Component          Value
    ---------          -----
     (2,0,0)        1.00000E-11
     (0,2,0)        2.00000E-11
     (0,0,2)       -3.00000E-11
 Nucleus-field energy     =     0.0000000050 hartrees
 Requested basis set is 6-31G(d)
 There are 40 shells and 117 basis functions
 A cutoff of  1.0D-14 yielded    810 shell pairs
 There are      7082 function pairs
 Smallest overlap matrix eigenvalue = 1.74E-03
 Guess MOs from core Hamiltonian diagonalization
 Mixing HOMO and LUMO in initial guess
 Adding  50% of the LUMO to the HOMO
 An unrestricted hybrid HF-DFT SCF calculation will be
 performed using Pulay DIIS extrapolation
 Exchange:     0.2000 Hartree-Fock + 0.0800 Slater + 0.7200 B88
 Correlation:  0.1900 VWN1RPA + 0.8100 LYP
 Using SG-1 standard quadrature grid
 SCF converges when DIIS error is below 1.0E-08
 using 4 threads for integral computing
 -------------------------------------------------------
 OpenMP Integral computing Module                
 Release: version 1.0, May 2013, Q-Chem Inc. Pittsburgh 
 -------------------------------------------------------
 -------------------------------------------------------
 OpenMP BLAS3 based DFT computing Module                
 Release: version 1.0, May 2013, Q-Chem Inc. Pittsburgh 
 -------------------------------------------------------
 ---------------------------------------
  Cycle       Energy         DIIS Error
 ---------------------------------------
    1    -241.4103725232      1.27E-01
    2    -238.0793069615      1.01E-01
    3    -263.9675331795      9.62E-02
    4    -264.5496710328      1.06E-01
    5    -283.3518867296      4.01E-02
    6    -286.6423029178      9.87E-03
    7    -286.7134987646      8.92E-03
    8    -286.8448090051      1.39E-03
    9    -286.8443672759      1.58E-03
   10    -286.8494474444      2.09E-04
   11    -286.8495766620      5.79E-05
   12    -286.8496001576      3.14E-05
   13    -286.8496126869      1.34E-05
   14    -286.8496156704      2.90E-06
   15    -286.8496161345      1.76E-06
   16    -286.8496163280      4.82E-07
   17    -286.8496163517      3.05E-07
   18    -286.8496163557      6.26E-08
   19    -286.8496163566      1.43E-08
   20    -286.8496163567      6.34E-09 Convergence criterion met
 ---------------------------------------
 <S^2> = 0.7726
 SCF time:  CPU 52.19 s  wall 23.51 s
 SCF   energy in the final basis set = -286.84961636
 Total energy in the final basis set = -286.84961636
 
 --------------------------------------------------------------
 
                    Orbital Energies (a.u.)
 --------------------------------------------------------------
 
 Alpha MOs
 -- Occupied --
-14.317 -10.217 -10.216 -10.216 -10.216 -10.216 -10.216  -0.949
 -0.885  -0.750  -0.639  -0.636  -0.601  -0.546  -0.481  -0.472
 -0.469  -0.409  -0.399  -0.359  -0.336  -0.299  -0.293  -0.228
 -0.172
 -- Virtual --
  0.015   0.099   0.100   0.142   0.147   0.150   0.161   0.167
  0.182   0.207   0.224   0.266   0.291   0.307   0.323   0.397
  0.511   0.523   0.534   0.537   0.550   0.576   0.589   0.596
  0.617   0.625   0.630   0.658   0.665   0.730   0.809   0.814
  0.832   0.848   0.854   0.861   0.881   0.887   0.925   0.947
  0.982   0.987   1.134   1.140   1.156   1.194   1.249   1.363
  1.421   1.471   1.480   1.498   1.602   1.617   1.630   1.672
  1.736   1.762   1.821   1.842   1.867   1.905   1.996   2.004
  2.021   2.113   2.162   2.200   2.215   2.263   2.365   2.451
  2.461   2.487   2.529   2.566   2.576   2.607   2.624   2.684
  2.719   2.726   2.783   2.999   3.158   4.025   4.114   4.174
  4.389   4.444   4.449   4.540
 
 Beta MOs
 -- Occupied --
-14.321 -10.217 -10.217 -10.215 -10.214 -10.208 -10.207  -0.945
 -0.883  -0.738  -0.631  -0.627  -0.596  -0.543  -0.478  -0.468
 -0.463  -0.406  -0.381  -0.355  -0.320  -0.295  -0.292  -0.228
 -- Virtual --
 -0.065   0.033   0.102   0.106   0.144   0.150   0.157   0.168
  0.170   0.195   0.209   0.227   0.269   0.300   0.311   0.331
  0.401   0.513   0.534   0.540   0.544   0.552   0.595   0.597
  0.599   0.629   0.637   0.651   0.663   0.672   0.735   0.812
  0.820   0.834   0.848   0.849   0.865   0.882   0.895   0.932
  0.948   0.987   0.994   1.137   1.143   1.157   1.196   1.249
  1.379   1.428   1.471   1.489   1.512   1.604   1.632   1.644
  1.682   1.740   1.769   1.825   1.853   1.882   1.907   2.001
  2.017   2.026   2.120   2.166   2.222   2.226   2.274   2.381
  2.461   2.463   2.500   2.544   2.567   2.581   2.615   2.625
  2.688   2.723   2.730   2.790   3.001   3.162   4.022   4.129
  4.185   4.393   4.453   4.456   4.542
 --------------------------------------------------------------
 
          Ground-State Mulliken Net Atomic Charges

     Atom                 Charge (a.u.)    Spin (a.u.)
  --------------------------------------------------------
      1 C                     0.076368       0.601411
      2 C                    -0.207000      -0.058425
      3 C                    -0.105028       0.107268
      4 C                    -0.210443      -0.057007
      5 C                     0.082451       0.571937
      6 N                    -0.390752      -0.198206
      7 H                     0.132133      -0.032583
      8 H                     0.145658       0.000676
      9 H                     0.152611      -0.005034
     10 H                     0.145030       0.000673
     11 H                     0.131483      -0.031256
     12 C                    -0.105957       0.105485
     13 H                     0.153446      -0.004941
  --------------------------------------------------------
  Sum of atomic charges =    -0.000000
  Sum of spin   charges =     1.000000

 -----------------------------------------------------------------
                    Cartesian Multipole Moments
 -----------------------------------------------------------------
    Charge (ESU x 10^10)
                -0.0000
    Dipole Moment (Debye)
         X      -1.5009      Y      -2.5385      Z       0.4198
       Tot       2.9788
    Quadrupole Moments (Debye-Ang)
        XX     -37.9445     XY      -3.6840     YY     -41.9990
        XZ       0.6177     YZ       0.1683     ZZ     -41.0550
    Octopole Moments (Debye-Ang^2)
       XXX     -10.9176    XXY     -10.3525    XYY     -12.9393
       YYY     -30.4417    XXZ       1.7923    XYZ       1.0302
       YYZ       1.3662    XZZ      -6.6231    YZZ     -10.7891
       ZZZ       5.4961
    Hexadecapole Moments (Debye-Ang^3)
      XXXX    -271.6320   XXXY     -25.8537   XXYY    -110.5998
      XYYY     -43.3628   YYYY    -346.6828   XXXZ       4.7402
      XXYZ       7.2854   XYYZ       6.2344   YYYZ      21.5324
      XXZZ     -67.7174   XYZZ      -3.5959   YYZZ     -70.6515
      XZZZ       2.0879   YZZZ      17.8121   ZZZZ     -97.8329
 -----------------------------------------------------------------
 Calculating analytic gradient of the SCF energy
 Gradient of SCF Energy
            1           2           3           4           5           6
    1  -0.0182797   0.0401687  -0.0253511  -0.0230526   0.0185537  -0.0073732
    2   0.0031380  -0.0129892  -0.0502935   0.0316602  -0.0159533   0.0025918
    3   0.0007805   0.0018261  -0.0680986  -0.0036546   0.0019571  -0.0004617
            7           8           9          10          11          12
    1   0.0067184  -0.0112403   0.0163437   0.0119054  -0.0053994  -0.0152447
    2  -0.0017175   0.0117790   0.0305867  -0.0042889   0.0076464  -0.0192947
    3   0.0007250  -0.0019609   0.0235531   0.0003453  -0.0012005   0.0708787
           13
    1   0.0122513
    2   0.0171350
    3  -0.0246893
 Max gradient component =       7.088E-02
 RMS gradient           =       2.329E-02
 Gradient time:  CPU 7.96 s  wall 2.20 s
WARNING!!!!! energy has increased from optimization step!
 ----------------------------------------------------------------
             Standard Nuclear Orientation (Angstroms)
    I     Atom           X                Y                Z
 ----------------------------------------------------------------
    1      C       1.5619577563     0.4408470643    -0.0705374524
    2      C       0.8176172354    -0.8441306278     0.1001516993
    3      C      -0.5214666218    -0.9652548648    -0.6024592857
    4      C      -1.1277655954     0.3128231662    -0.0278990889
    5      C      -0.3668397810     1.5732447850    -0.2480680709
    6      N       0.9513635918     1.6233694707    -0.2625568718
    7      H       2.6634955547     0.4371029554    -0.0442774210
    8      H       1.3989575725    -1.7331459058     0.2197558813
    9      H      -0.9284673876    -1.7255263484    -1.2590529667
   10      H      -2.2091432132     0.3736652149    -0.0081466121
   11      H      -0.9101263813     2.5092740377    -0.4171498774
   12      C      -0.4814031645    -0.7316984827     0.8701881529
   13      H      -0.8535897202    -1.2730735260     1.7469873871
 ----------------------------------------------------------------
 Nuclear Repulsion Energy =   276.6706752495 hartrees
 There are       25 alpha and       24 beta electrons

                       Distance Matrix (Angstroms)
             C (  1)   C (  2)   C (  3)   C (  4)   C (  5)   N (  6)
   C (  2)  1.494773
   C (  3)  2.569187  1.517063
   C (  4)  2.693106  2.267036  1.526827
   C (  5)  2.243680  2.714387  2.567778  1.488672
   N (  6)  1.344640  2.497599  2.997622  2.468881  1.319236
   H (  7)  1.101857  2.251596  3.524508  3.793333  3.242727  2.094342
   H (  8)  2.199337  1.068929  2.225696  3.260621  3.777449  3.420404
   H (  9)  3.508270  2.381829  1.083872  2.389629  3.495627  3.967603
   H ( 10)  3.772215  3.264358  2.234763  1.083268  2.211478  3.408121
   H ( 11)  3.241871  3.807627  3.501107  2.241267  1.095399  2.067334
   C ( 12)  2.536760  1.514282  1.491591  1.521634  2.564446  2.980315
   H ( 13)  3.475024  2.385161  2.392688  2.395926  3.509801  3.960493
             H (  7)   H (  8)   H (  9)   H ( 10)   H ( 11)   C ( 12)
   H (  8)  2.525619
   H (  9)  4.365185  2.757506
   H ( 10)  4.873186  4.184374  2.758895
   H ( 11)  4.147734  4.871924  4.317716  2.532894
   C ( 12)  3.477461  2.227491  2.391909  2.231230  3.513537
   H ( 13)  4.301537  2.760086  3.040822  2.762204  4.358078  1.095622

 
 Applying Cartesian multipole field
    Component          Value
    ---------          -----
     (2,0,0)        1.00000E-11
     (0,2,0)        2.00000E-11
     (0,0,2)       -3.00000E-11
 Nucleus-field energy     =     0.0000000050 hartrees
 Requested basis set is 6-31G(d)
 There are 40 shells and 117 basis functions
 A cutoff of  1.0D-14 yielded    808 shell pairs
 There are      7080 function pairs
 Smallest overlap matrix eigenvalue = 1.65E-03
 Guess MOs from core Hamiltonian diagonalization
 Mixing HOMO and LUMO in initial guess
 Adding  50% of the LUMO to the HOMO
 An unrestricted hybrid HF-DFT SCF calculation will be
 performed using Pulay DIIS extrapolation
 Exchange:     0.2000 Hartree-Fock + 0.0800 Slater + 0.7200 B88
 Correlation:  0.1900 VWN1RPA + 0.8100 LYP
 Using SG-1 standard quadrature grid
 SCF converges when DIIS error is below 1.0E-08
 using 4 threads for integral computing
 -------------------------------------------------------
 OpenMP Integral computing Module                
 Release: version 1.0, May 2013, Q-Chem Inc. Pittsburgh 
 -------------------------------------------------------
 -------------------------------------------------------
 OpenMP BLAS3 based DFT computing Module                
 Release: version 1.0, May 2013, Q-Chem Inc. Pittsburgh 
 -------------------------------------------------------
 ---------------------------------------
  Cycle       Energy         DIIS Error
 ---------------------------------------
    1    -240.5827234313      1.29E-01
    2    -241.6158424664      1.02E-01
    3    -280.5933961684      4.98E-02
    4    -282.7376047374      4.62E-02
    5    -286.4644609041      1.38E-02
    6    -286.7187475795      9.35E-03
    7    -286.8425605435      2.71E-03
    8    -286.8544397136      8.70E-04
    9    -286.8558312018      2.17E-04
   10    -286.8560196795      5.57E-05
   11    -286.8560736477      2.89E-05
   12    -286.8560907038      7.73E-06
   13    -286.8560961717      5.22E-06
   14    -286.8560981037      1.97E-06
   15    -286.8560984406      6.95E-07
   16    -286.8560984497      1.78E-07
   17    -286.8560984499      7.94E-08
   18    -286.8560984500      2.28E-08
   19    -286.8560984500      8.08E-09 Convergence criterion met
 ---------------------------------------
 <S^2> = 0.7738
 SCF time:  CPU 48.52 s  wall 18.08 s
 SCF   energy in the final basis set = -286.85609845
 Total energy in the final basis set = -286.85609845
 
 --------------------------------------------------------------
 
                    Orbital Energies (a.u.)
 --------------------------------------------------------------
 
 Alpha MOs
 -- Occupied --
-14.318 -10.217 -10.217 -10.216 -10.216 -10.215 -10.215  -0.957
 -0.894  -0.749  -0.642  -0.632  -0.590  -0.542  -0.482  -0.468
 -0.465  -0.408  -0.394  -0.365  -0.342  -0.299  -0.295  -0.225
 -0.174
 -- Virtual --
  0.017   0.090   0.101   0.141   0.144   0.153   0.155   0.165
  0.199   0.211   0.232   0.267   0.281   0.305   0.318   0.393
  0.523   0.525   0.534   0.535   0.563   0.590   0.594   0.596
  0.617   0.624   0.629   0.657   0.666   0.734   0.787   0.802
  0.813   0.839   0.851   0.855   0.879   0.883   0.926   0.941
  0.957   0.986   1.138   1.148   1.156   1.203   1.252   1.369
  1.420   1.446   1.480   1.497   1.582   1.629   1.656   1.667
  1.740   1.745   1.852   1.865   1.872   1.910   2.003   2.011
  2.021   2.129   2.163   2.198   2.232   2.284   2.363   2.459
  2.468   2.487   2.532   2.576   2.592   2.601   2.623   2.673
  2.711   2.757   2.796   2.988   3.140   4.016   4.113   4.183
  4.384   4.447   4.463   4.536
 
 Beta MOs
 -- Occupied --
-14.321 -10.217 -10.216 -10.215 -10.215 -10.207 -10.207  -0.952
 -0.892  -0.737  -0.630  -0.626  -0.586  -0.540  -0.476  -0.464
 -0.462  -0.405  -0.377  -0.361  -0.328  -0.295  -0.294  -0.225
 -- Virtual --
 -0.063   0.037   0.092   0.107   0.143   0.145   0.161   0.162
  0.170   0.211   0.214   0.235   0.271   0.290   0.309   0.326
  0.397   0.525   0.531   0.542   0.552   0.565   0.598   0.601
  0.605   0.628   0.636   0.652   0.661   0.673   0.739   0.791
  0.804   0.818   0.841   0.844   0.857   0.880   0.890   0.934
  0.944   0.961   0.995   1.141   1.151   1.158   1.204   1.252
  1.385   1.426   1.446   1.489   1.512   1.584   1.644   1.669
  1.676   1.747   1.752   1.863   1.870   1.882   1.915   2.008
  2.024   2.027   2.136   2.168   2.220   2.242   2.294   2.379
  2.462   2.478   2.501   2.548   2.581   2.594   2.602   2.630
  2.677   2.714   2.762   2.802   2.990   3.144   4.012   4.128
  4.194   4.387   4.457   4.468   4.539
 --------------------------------------------------------------
 
          Ground-State Mulliken Net Atomic Charges

     Atom                 Charge (a.u.)    Spin (a.u.)
  --------------------------------------------------------
      1 C                     0.067645       0.634117
      2 C                    -0.209560      -0.053661
      3 C                    -0.095701       0.088136
      4 C                    -0.216871      -0.051104
      5 C                     0.081111       0.571918
      6 N                    -0.391647      -0.205476
      7 H                     0.132088      -0.034081
      8 H                     0.145867       0.000565
      9 H                     0.155021      -0.003921
     10 H                     0.144738       0.000557
     11 H                     0.131838      -0.031069
     12 C                    -0.099237       0.087923
     13 H                     0.154708      -0.003906
  --------------------------------------------------------
  Sum of atomic charges =     0.000000
  Sum of spin   charges =     1.000000

 -----------------------------------------------------------------
                    Cartesian Multipole Moments
 -----------------------------------------------------------------
    Charge (ESU x 10^10)
                 0.0000
    Dipole Moment (Debye)
         X      -1.5174      Y      -2.5632      Z       0.4119
       Tot       3.0070
    Quadrupole Moments (Debye-Ang)
        XX     -37.9223     XY      -3.8080     YY     -42.0683
        XZ       0.6394     YZ       0.1854     ZZ     -41.1580
    Octopole Moments (Debye-Ang^2)
       XXX     -11.1019    XXY     -10.5138    XYY     -13.0625
       YYY     -30.9375    XXZ       1.7957    XYZ       1.0497
       YYZ       1.4252    XZZ      -6.6619    YZZ     -10.8468
       ZZZ       5.4154
    Hexadecapole Moments (Debye-Ang^3)
      XXXX    -270.0258   XXXY     -26.6011   XXYY    -110.4482
      XYYY     -43.9312   YYYY    -347.8344   XXXZ       4.8063
      XXYZ       7.2682   XYYZ       6.3087   YYYZ      21.6474
      XXZZ     -67.5224   XYZZ      -3.7886   YYZZ     -70.7587
      XZZZ       2.1832   YZZZ      17.8187   ZZZZ     -97.9725
 -----------------------------------------------------------------
 Calculating analytic gradient of the SCF energy
 Gradient of SCF Energy
            1           2           3           4           5           6
    1  -0.0125222   0.0059878   0.0029929  -0.0151649   0.0156203  -0.0090777
    2  -0.0003770  -0.0291146  -0.0008920   0.0015345  -0.0071701   0.0131565
    3   0.0033585   0.0032589  -0.0137459  -0.0000581   0.0020785  -0.0034543
            7           8           9          10          11          12
    1   0.0085760  -0.0066143   0.0001740   0.0032075  -0.0017588   0.0105724
    2  -0.0009513   0.0116583  -0.0000433  -0.0005881   0.0031563   0.0131590
    3   0.0004114  -0.0018539  -0.0035165  -0.0000114  -0.0005571   0.0049431
           13
    1  -0.0019932
    2  -0.0035282
    3   0.0091468
 Max gradient component =       2.911E-02
 RMS gradient           =       8.419E-03
 Gradient time:  CPU 7.79 s  wall 2.05 s
 FSM gradient convergence criteria satisfied
done with opt_step_by_gradient, Reactant, iter1
-Optimizing new product side node
 Using BFGS, step: 2 E_tol 0.0201363
 max_steps 6, node_spacing 0.1103484, sigma 0.7000000
 ----------------------------------------------------------------
             Standard Nuclear Orientation (Angstroms)
    I     Atom           X                Y                Z
 ----------------------------------------------------------------
    1      C       1.2223171682     0.2964975720     0.3621958402
    2      C       0.6448128199    -1.0941006611    -0.1462954095
    3      C      -0.6145662340    -0.9122783437    -0.8579207757
    4      C      -1.0833174013     0.1859439233     0.0908123399
    5      C      -0.4455795157     1.4685679132    -0.4205691774
    6      N       0.8349720890     1.5016310364    -0.3142233191
    7      H       2.2328604614     0.2496126973     0.7557923226
    8      H       1.3191247909    -1.9442039647    -0.1722624280
    9      H      -0.9134433156    -1.1454147694    -1.8765669980
   10      H      -2.1354978303     0.2210543212     0.3811309962
   11      H      -0.9920120508     2.2478190875    -0.9492266969
   12      C       0.0181000992    -0.3716847597     1.0560721854
   13      H      -0.0907494415    -0.7040267962     2.0838370002
 ----------------------------------------------------------------
 Nuclear Repulsion Energy =   281.6112166471 hartrees
 There are       25 alpha and       24 beta electrons

                       Distance Matrix (Angstroms)
             C (  1)   C (  2)   C (  3)   C (  4)   C (  5)   N (  6)
   C (  2)  1.589289
   C (  3)  2.514749  1.457911
   C (  4)  2.324182  2.163601  1.525095
   C (  5)  2.183655  2.798473  2.426574  1.520968
   N (  6)  1.435244  2.608100  2.867704  2.361127  1.285385
   H (  7)  1.085502  2.267427  3.473025  3.382793  3.169183  2.160226
   H (  8)  2.305593  1.085379  2.296554  3.221563  3.850045  3.482576
   H (  9)  3.413597  2.329085  1.086886  2.381587  3.028487  3.536202
   H ( 10)  3.358716  3.120567  2.265596  1.092063  2.248297  3.308638
   H ( 11)  3.229665  3.806878  3.183868  2.311135  1.088715  2.073137
   C ( 12)  1.542099  1.536340  2.087074  1.567098  2.404579  2.460549
   H ( 13)  2.385213  2.380483  2.995278  2.397788  3.334385  3.387120
             H (  7)   H (  8)   H (  9)   H ( 10)   H ( 11)   C ( 12)
   H (  8)  2.551280
   H (  9)  4.332972  2.920116
   H ( 10)  4.384489  4.114487  2.908239
   H ( 11)  4.159293  4.849545  3.518546  2.680520
   C ( 12)  2.319772  2.382076  3.172823  2.333424  3.450123
   H ( 13)  2.841178  2.935263  4.068962  2.817087  4.327256  1.085633

 
 Applying Cartesian multipole field
    Component          Value
    ---------          -----
     (2,0,0)        1.00000E-11
     (0,2,0)        2.00000E-11
     (0,0,2)       -3.00000E-11
 Nucleus-field energy     =     0.0000000027 hartrees
 Requested basis set is 6-31G(d)
 There are 40 shells and 117 basis functions
 A cutoff of  1.0D-14 yielded    812 shell pairs
 There are      7084 function pairs
 Smallest overlap matrix eigenvalue = 1.72E-03
 Guess MOs from core Hamiltonian diagonalization
 Mixing HOMO and LUMO in initial guess
 Adding  50% of the LUMO to the HOMO
 An unrestricted hybrid HF-DFT SCF calculation will be
 performed using Pulay DIIS extrapolation
 Exchange:     0.2000 Hartree-Fock + 0.0800 Slater + 0.7200 B88
 Correlation:  0.1900 VWN1RPA + 0.8100 LYP
 Using SG-1 standard quadrature grid
 SCF converges when DIIS error is below 1.0E-08
 using 4 threads for integral computing
 -------------------------------------------------------
 OpenMP Integral computing Module                
 Release: version 1.0, May 2013, Q-Chem Inc. Pittsburgh 
 -------------------------------------------------------
 -------------------------------------------------------
 OpenMP BLAS3 based DFT computing Module                
 Release: version 1.0, May 2013, Q-Chem Inc. Pittsburgh 
 -------------------------------------------------------
 ---------------------------------------
  Cycle       Energy         DIIS Error
 ---------------------------------------
    1    -236.8483445922      1.33E-01
    2    -227.9125913367      1.09E-01
    3    -258.9080122623      1.02E-01
    4    -278.6031248728      6.49E-02
    5    -282.5343400841      4.53E-02
    6    -286.3546724311      1.54E-02
    7    -286.4455663763      1.37E-02
    8    -286.8142817531      3.32E-03
    9    -286.8202095438      3.08E-03
   10    -286.8361248259      2.74E-04
   11    -286.8363499259      1.72E-04
   12    -286.8364331203      6.05E-05
   13    -286.8364599270      1.93E-05
   14    -286.8364614873      8.93E-06
   15    -286.8364616885      1.36E-06
   16    -286.8364617144      6.54E-07
   17    -286.8364617207      3.49E-07
   18    -286.8364617223      1.05E-07
   19    -286.8364617226      2.08E-08
   20    -286.8364617227      4.95E-09 Convergence criterion met
 ---------------------------------------
 <S^2> = 0.7563
 SCF time:  CPU 52.41 s  wall 22.18 s
 SCF   energy in the final basis set = -286.83646172
 Total energy in the final basis set = -286.83646172
 
 --------------------------------------------------------------
 
                    Orbital Energies (a.u.)
 --------------------------------------------------------------
 
 Alpha MOs
 -- Occupied --
-14.321 -10.226 -10.220 -10.211 -10.209 -10.208 -10.206  -0.965
 -0.856  -0.747  -0.662  -0.608  -0.575  -0.534  -0.513  -0.467
 -0.438  -0.405  -0.400  -0.358  -0.338  -0.295  -0.275  -0.253
 -0.182
 -- Virtual --
  0.001   0.101   0.116   0.129   0.149   0.151   0.152   0.164
  0.176   0.199   0.216   0.259   0.279   0.296   0.347   0.392
  0.494   0.512   0.522   0.542   0.555   0.576   0.592   0.603
  0.604   0.657   0.673   0.675   0.720   0.739   0.771   0.778
  0.805   0.811   0.826   0.842   0.854   0.874   0.890   0.939
  0.955   0.972   1.048   1.095   1.197   1.229   1.332   1.388
  1.441   1.473   1.503   1.519   1.584   1.633   1.659   1.716
  1.740   1.829   1.867   1.872   1.926   1.951   1.969   2.027
  2.069   2.167   2.205   2.213   2.242   2.254   2.357   2.377
  2.452   2.482   2.500   2.534   2.588   2.624   2.660   2.661
  2.709   2.799   2.841   2.917   2.960   3.960   4.194   4.237
  4.351   4.433   4.506   4.625
 
 Beta MOs
 -- Occupied --
-14.320 -10.224 -10.219 -10.210 -10.209 -10.209 -10.193  -0.961
 -0.850  -0.740  -0.648  -0.603  -0.570  -0.527  -0.507  -0.460
 -0.434  -0.403  -0.394  -0.350  -0.333  -0.288  -0.264  -0.248
 -- Virtual --
 -0.060   0.016   0.103   0.120   0.134   0.150   0.154   0.158
  0.167   0.181   0.202   0.223   0.263   0.283   0.299   0.359
  0.395   0.497   0.517   0.530   0.551   0.559   0.582   0.596
  0.609   0.621   0.668   0.677   0.680   0.729   0.743   0.775
  0.788   0.807   0.814   0.827   0.844   0.858   0.881   0.894
  0.942   0.958   0.975   1.053   1.107   1.199   1.235   1.339
  1.390   1.445   1.478   1.513   1.525   1.591   1.641   1.663
  1.720   1.748   1.837   1.872   1.886   1.932   1.967   1.976
  2.035   2.077   2.172   2.218   2.220   2.258   2.265   2.361
  2.388   2.460   2.488   2.508   2.539   2.592   2.630   2.662
  2.670   2.717   2.805   2.846   2.919   2.962   3.962   4.207
  4.245   4.358   4.438   4.509   4.628
 --------------------------------------------------------------
 
          Ground-State Mulliken Net Atomic Charges

     Atom                 Charge (a.u.)    Spin (a.u.)
  --------------------------------------------------------
      1 C                    -0.019789       0.083402
      2 C                    -0.159010      -0.091571
      3 C                    -0.067949       0.896390
[...]
  --------------------------------------------------------
      1 C                    -0.002348       0.204991
      2 C                    -0.157024      -0.002542
      3 C                    -0.114501       0.828559
      4 C                    -0.265086      -0.008747
      5 C                     0.115980       0.124160
      6 N                    -0.349637      -0.027477
      7 H                     0.153372      -0.002952
      8 H                     0.148043      -0.002721
      9 H                     0.145002      -0.038790
     10 H                     0.140475       0.000778
     11 H                     0.143207      -0.005351
     12 C                    -0.111450      -0.084189
     13 H                     0.153966       0.014281
  --------------------------------------------------------
  Sum of atomic charges =     0.000000
  Sum of spin   charges =     1.000000

 -----------------------------------------------------------------
                    Cartesian Multipole Moments
 -----------------------------------------------------------------
    Charge (ESU x 10^10)
                 0.0000
    Dipole Moment (Debye)
         X      -1.2171      Y      -2.1267      Z       0.9822
       Tot       2.6399
    Quadrupole Moments (Debye-Ang)
        XX     -37.8569     XY      -3.7480     YY     -41.4090
        XZ       1.2357     YZ      -0.7570     ZZ     -42.2320
    Octopole Moments (Debye-Ang^2)
       XXX     -10.2477    XXY      -9.7701    XYY     -12.0563
       YYY     -28.1702    XXZ       4.7854    XYZ       1.6593
       YYZ       1.0518    XZZ      -5.6021    YZZ      -9.4022
       ZZZ      10.7774
    Hexadecapole Moments (Debye-Ang^3)
      XXXX    -234.6024   XXXY     -13.4039   XXYY     -97.5220
      XYYY     -29.6210   YYYY    -320.9104   XXXZ      -5.3088
      XXYZ       5.7881   XYYZ       2.4970   YYYZ       8.4100
      XXZZ     -64.3970   XYZZ      -1.7640   YYZZ     -71.3214
      XZZZ     -13.5658   YZZZ       5.4938   ZZZZ    -134.6430
 -----------------------------------------------------------------
 Calculating analytic gradient of the SCF energy
 Gradient of SCF Energy
            1           2           3           4           5           6
    1   0.0060206  -0.0035556   0.0020675   0.0068585  -0.0032016  -0.0029309
    2  -0.0009236   0.0117294  -0.0024797   0.0063586  -0.0005104   0.0003416
    3  -0.0128523   0.0060539   0.0239309  -0.0025499  -0.0013706   0.0019825
            7           8           9          10          11          12
    1   0.0107867   0.0020751  -0.0042090  -0.0090492   0.0032884  -0.0035845
    2   0.0038282   0.0013126  -0.0054690   0.0032202   0.0002404  -0.0144558
    3  -0.0007042   0.0046454  -0.0110811  -0.0011859   0.0024533  -0.0077424
           13
    1  -0.0045660
    2  -0.0031926
    3  -0.0015796
 Max gradient component =       2.393E-02
 RMS gradient           =       6.881E-03
 Gradient time:  CPU 7.93 s  wall 2.05 s
 ----------------------------------------------------------------
             Standard Nuclear Orientation (Angstroms)
    I     Atom           X                Y                Z
 ----------------------------------------------------------------
    1      C       1.3942184348     0.3715852102     0.1874627465
    2      C       0.7463411874    -0.9474286290    -0.1642132038
    3      C      -0.5414467089    -0.8456598985    -0.9015076208
    4      C      -1.0809708976     0.2865514717     0.0296107169
    5      C      -0.4104952777     1.5585732272    -0.3629657133
    6      N       0.8752494189     1.5713507903    -0.2443920275
    7      H       2.3972506819     0.3889004489     0.6369429116
    8      H       1.3806068246    -1.8300963245    -0.1038791861
    9      H      -1.1200751639    -1.6899386076    -1.2976903664
   10      H      -2.1662914322     0.3546760731     0.2208260684
   11      H      -0.9205275507     2.4217200021    -0.7765610970
   12      C      -0.1346119548    -0.5313402073     0.9467845911
   13      H      -0.4444093094    -1.1289070909     1.8044763887
 ----------------------------------------------------------------
 Nuclear Repulsion Energy =   279.3532750142 hartrees
 There are       25 alpha and       24 beta electrons

                       Distance Matrix (Angstroms)
             C (  1)   C (  2)   C (  3)   C (  4)   C (  5)   N (  6)
   C (  2)  1.511032
   C (  3)  2.532655  1.487400
   C (  4)  2.481675  2.213446  1.562040
   C (  5)  2.229104  2.767276  2.467289  1.490535
   N (  6)  1.376686  2.523350  2.877633  2.356392  1.291264
   H (  7)  1.099275  2.270050  3.539338  3.532330  3.201779  2.119299
   H (  8)  2.220916  1.088593  2.302089  3.249213  3.841647  3.441653
   H (  9)  3.574525  2.306426  1.097533  2.381128  3.453989  3.965699
   H ( 10)  3.560706  3.213590  2.310965  1.104140  2.207488  3.308730
   H ( 11)  3.238895  3.808488  3.291669  2.287925  1.084535  2.056975
   C ( 12)  1.931105  1.477675  1.918462  1.551048  2.481793  2.619166
   H ( 13)  2.871718  2.307934  2.722498  2.357728  3.452753  3.637410
             H (  7)   H (  8)   H (  9)   H ( 10)   H ( 11)   C ( 12)
   H (  8)  2.550751
   H (  9)  4.520615  2.774570
   H ( 10)  4.582602  4.178415  2.753345
   H ( 11)  4.139807  4.881154  4.149353  2.611394
   C ( 12)  2.711673  2.255338  2.711302  2.332330  3.508297
   H ( 13)  3.426646  2.732064  3.224084  2.770171  4.415359  1.090273

 
 Applying Cartesian multipole field
    Component          Value
    ---------          -----
     (2,0,0)        1.00000E-11
     (0,2,0)        2.00000E-11
     (0,0,2)       -3.00000E-11
 Nucleus-field energy     =     0.0000000038 hartrees
 Requested basis set is 6-31G(d)
 There are 40 shells and 117 basis functions
 A cutoff of  1.0D-14 yielded    810 shell pairs
 There are      7082 function pairs
 Smallest overlap matrix eigenvalue = 2.10E-03
 Guess MOs from core Hamiltonian diagonalization
 Mixing HOMO and LUMO in initial guess
 Adding  50% of the LUMO to the HOMO
 An unrestricted hybrid HF-DFT SCF calculation will be
 performed using Pulay DIIS extrapolation
 Exchange:     0.2000 Hartree-Fock + 0.0800 Slater + 0.7200 B88
 Correlation:  0.1900 VWN1RPA + 0.8100 LYP
 Using SG-1 standard quadrature grid
 SCF converges when DIIS error is below 1.0E-08
 using 4 threads for integral computing
 -------------------------------------------------------
 OpenMP Integral computing Module                
 Release: version 1.0, May 2013, Q-Chem Inc. Pittsburgh 
 -------------------------------------------------------
 -------------------------------------------------------
 OpenMP BLAS3 based DFT computing Module                
 Release: version 1.0, May 2013, Q-Chem Inc. Pittsburgh 
 -------------------------------------------------------
 ---------------------------------------
  Cycle       Energy         DIIS Error
 ---------------------------------------
    1    -238.0633833469      1.32E-01
    2    -232.0644968091      1.04E-01
    3    -262.0338658825      9.59E-02
    4    -276.4107200895      7.08E-02
    5    -280.7912652382      5.04E-02
    6    -285.6240955924      2.30E-02
    7    -285.7168759022      2.19E-02
    8    -286.6380530034      7.56E-03
    9    -286.7456474881      4.43E-03
   10    -286.7791212083      1.53E-03
   11    -286.7830859466      8.52E-04
   12    -286.7850133505      4.37E-04
   13    -286.7857200756      2.62E-04
   14    -286.7860914320      8.18E-05
   15    -286.7861334785      2.76E-05
   16    -286.7861374281      1.19E-05
   17    -286.7861380757      2.46E-06
   18    -286.7861381361      5.15E-07
   19    -286.7861381432      1.98E-07
   20    -286.7861381460      9.65E-08
   21    -286.7861381469      5.48E-08
   22    -286.7861381472      2.06E-08
   23    -286.7861381473      6.74E-09 Convergence criterion met
 ---------------------------------------
 <S^2> = 0.7782
 SCF time:  CPU 57.33 s  wall 18.21 s
 SCF   energy in the final basis set = -286.78613815
 Total energy in the final basis set = -286.78613815
 
 --------------------------------------------------------------
 
                    Orbital Energies (a.u.)
 --------------------------------------------------------------
 
 Alpha MOs
 -- Occupied --
-14.323 -10.233 -10.229 -10.215 -10.214 -10.211 -10.207  -0.960
 -0.866  -0.749  -0.637  -0.624  -0.600  -0.539  -0.489  -0.449
 -0.443  -0.417  -0.409  -0.372  -0.354  -0.302  -0.270  -0.232
 -0.134
 -- Virtual --
 -0.028   0.047   0.084   0.133   0.146   0.151   0.156   0.162
  0.180   0.195   0.209   0.247   0.286   0.303   0.347   0.397
  0.484   0.508   0.526   0.532   0.538   0.570   0.590   0.603
  0.613   0.644   0.659   0.680   0.693   0.745   0.768   0.800
  0.822   0.829   0.849   0.856   0.862   0.878   0.929   0.934
  0.970   1.022   1.080   1.113   1.169   1.179   1.289   1.328
  1.388   1.416   1.449   1.506   1.558   1.614   1.677   1.727
  1.742   1.789   1.851   1.854   1.877   1.978   2.011   2.040
  2.088   2.171   2.181   2.227   2.272   2.334   2.354   2.369
  2.417   2.431   2.464   2.529   2.561   2.573   2.644   2.650
  2.691   2.739   2.817   2.957   3.062   3.989   4.182   4.218
  4.324   4.429   4.519   4.526
 
 Beta MOs
 -- Occupied --
-14.323 -10.230 -10.229 -10.213 -10.212 -10.210 -10.195  -0.957
 -0.860  -0.743  -0.627  -0.613  -0.598  -0.535  -0.485  -0.442
 -0.438  -0.415  -0.401  -0.363  -0.351  -0.290  -0.263  -0.220
 -- Virtual --
 -0.032  -0.008   0.059   0.087   0.138   0.149   0.155   0.160
  0.166   0.184   0.198   0.216   0.250   0.289   0.308   0.356
  0.400   0.496   0.512   0.531   0.535   0.547   0.585   0.595
  0.613   0.619   0.662   0.663   0.687   0.698   0.750   0.770
  0.803   0.823   0.833   0.850   0.861   0.865   0.880   0.931
  0.939   0.974   1.027   1.091   1.118   1.173   1.190   1.295
  1.331   1.391   1.422   1.455   1.512   1.565   1.617   1.686
  1.734   1.748   1.808   1.856   1.865   1.882   1.986   2.018
  2.047   2.097   2.181   2.193   2.241   2.283   2.342   2.362
  2.377   2.426   2.439   2.475   2.536   2.566   2.577   2.651
  2.653   2.696   2.744   2.823   2.959   3.066   3.991   4.188
  4.231   4.335   4.434   4.524   4.528
 --------------------------------------------------------------
 
          Ground-State Mulliken Net Atomic Charges

     Atom                 Charge (a.u.)    Spin (a.u.)
  --------------------------------------------------------
      1 C                    -0.000776       0.230202
      2 C                    -0.158097      -0.001736
      3 C                    -0.114462       0.810462
      4 C                    -0.263867      -0.009248
      5 C                     0.114076       0.147174
      6 N                    -0.350868      -0.032970
      7 H                     0.152413      -0.004275
      8 H                     0.148103      -0.002843
      9 H                     0.146084      -0.037895
     10 H                     0.140712       0.000642
     11 H                     0.142430      -0.006684
     12 C                    -0.110092      -0.108329
     13 H                     0.154343       0.015500
  --------------------------------------------------------
  Sum of atomic charges =     0.000000
  Sum of spin   charges =     1.000000

 -----------------------------------------------------------------
                    Cartesian Multipole Moments
 -----------------------------------------------------------------
    Charge (ESU x 10^10)
                 0.0000
    Dipole Moment (Debye)
         X      -1.2367      Y      -2.1828      Z       0.9793
       Tot       2.6932
    Quadrupole Moments (Debye-Ang)
        XX     -37.9032     XY      -3.7352     YY     -41.4686
        XZ       1.2472     YZ      -0.7342     ZZ     -42.1434
    Octopole Moments (Debye-Ang^2)
       XXX     -10.4001    XXY      -9.8352    XYY     -12.0325
       YYY     -28.3649    XXZ       4.7698    XYZ       1.6215
       YYZ       1.0060    XZZ      -5.6095    YZZ      -9.4730
       ZZZ      10.7987
    Hexadecapole Moments (Debye-Ang^3)
      XXXX    -235.5251   XXXY     -13.5740   XXYY     -97.7420
      XYYY     -29.6742   YYYY    -321.5529   XXXZ      -5.1026
      XXYZ       5.8496   XYYZ       2.5528   YYYZ       8.5351
      XXZZ     -64.3940   XYZZ      -1.7536   YYZZ     -71.2522
      XZZZ     -13.2788   YZZZ       5.6872   ZZZZ    -133.6190
 -----------------------------------------------------------------
 Calculating analytic gradient of the SCF energy
 Gradient of SCF Energy
            1           2           3           4           5           6
    1   0.0039082  -0.0045196   0.0020534   0.0071496  -0.0029885  -0.0034109
    2  -0.0020101   0.0106780  -0.0018909   0.0052969  -0.0007267   0.0003760
    3  -0.0102721   0.0051642   0.0213812  -0.0024267  -0.0014424   0.0014700
            7           8           9          10          11          12
    1   0.0102130   0.0020636  -0.0043581  -0.0090203   0.0033069  -0.0008658
    2   0.0035165   0.0011780  -0.0053304   0.0030890   0.0001647  -0.0119110
    3  -0.0004591   0.0043850  -0.0114371  -0.0011073   0.0023302  -0.0061584
           13
    1  -0.0035313
    2  -0.0024300
    3  -0.0014274
 Max gradient component =       2.138E-02
 RMS gradient           =       6.183E-03
 Gradient time:  CPU 7.89 s  wall 2.01 s
 E1 = -286.7867326, E2 = -286.7861381, Emax = -286.7864167
 Iteration 5, Curvature = -0.9895534
 Curvature, final (in Hartree/Bohr^2) = -0.2771032
 ----------------------------------------------------------------
             Standard Nuclear Orientation (Angstroms)
    I     Atom           X                Y                Z
 ----------------------------------------------------------------
    1      C       1.3921364979     0.3704545259     0.1901122315
    2      C       0.7454015430    -0.9483533465    -0.1651085836
    3      C      -0.5414527291    -0.8450215314    -0.9033375296
    4      C      -1.0809121390     0.2856721054     0.0296099831
    5      C      -0.4102773508     1.5583750388    -0.3632116766
    6      N       0.8748333626     1.5714134539    -0.2449010120
    7      H       2.3965445898     0.3884872414     0.6371547632
    8      H       1.3805533483    -1.8302630872    -0.1041983371
    9      H      -1.1202176275    -1.6896532837    -1.2983496797
   10      H      -2.1661508393     0.3544510456     0.2210142453
   11      H      -0.9205371246     2.4215158958    -0.7767612946
   12      C      -0.1319563385    -0.5291518262     0.9480191359
   13      H      -0.4431482015    -1.1279783527     1.8048603749
 ----------------------------------------------------------------
 Nuclear Repulsion Energy =   279.3637002253 hartrees
 There are       25 alpha and       24 beta electrons
 Requested basis set is 6-31G(d)
 There are 40 shells and 117 basis functions
 Geometry Optimization Parameters
   NAtoms,    NIC,     NZ,  NCons,   NDum,   NFix, NCnnct, MaxDiis
       13     157       0       0       0       0       0       0


** GEOMETRY OPTIMIZATION IN DELOCALIZED INTERNAL COORDINATES **
   Searching for a Minimum

   Optimization Cycle:   1

                       Coordinates (Angstroms)
     ATOM                X               Y               Z
      1  C         1.3921364979    0.3704545259    0.1901122315
      2  C         0.7454015430   -0.9483533465   -0.1651085836
      3  C        -0.5414527291   -0.8450215314   -0.9033375296
      4  C        -1.0809121390    0.2856721054    0.0296099831
      5  C        -0.4102773508    1.5583750388   -0.3632116766
      6  N         0.8748333626    1.5714134539   -0.2449010120
      7  H         2.3965445898    0.3884872414    0.6371547632
      8  H         1.3805533483   -1.8302630872   -0.1041983371
      9  H        -1.1202176275   -1.6896532837   -1.2983496797
     10  H        -2.1661508393    0.3544510456    0.2210142453
     11  H        -0.9205371246    2.4215158958   -0.7767612946
     12  C        -0.1319563385   -0.5291518262    0.9480191359
     13  H        -0.4431482015   -1.1279783527    1.8048603749
   Point Group: c1    Number of degrees of freedom:    33


   Energy is   -286.786138147


 Attempting to Generate Delocalized Internal Coordinates

 33 Hessian modes will be used to form the next step
  Hessian Eigenvalues:
     0.013767    0.014576    0.017675    0.018933    0.020957    0.024882
     0.026058    0.027417    0.030794    0.041810    0.044016    0.051196
     0.056208    0.071124    0.083405    0.100706    0.105971    0.159753
     0.167291    0.193674    0.201394    0.218095    0.236556    0.244278
     0.308580    0.332292    0.337321    0.339652    0.347327    0.349833
     0.354418    0.448457    0.613199

 Minimum Search - Taking Simple RFO Step
 Searching for Lamda that Minimizes Along All modes
 Value Taken    Lamda =  -0.00565260
 Calculated Step too Large.  Step scaled by  0.986372
 Step Taken.  Stepsize is  0.300000

                             Maximum     Tolerance    Cnvgd?
         Gradient           0.012035      0.000300      NO
         Displacement       0.150968      0.001200      NO
         Energy change     *********      0.000001      NO


 New Cartesian Coordinates Obtained by Inverse Iteration

 Displacement from previous Coordinates is:  0.257716
 ----------------------------------------------------------------
             Standard Nuclear Orientation (Angstroms)
    I     Atom           X                Y                Z
 ----------------------------------------------------------------
    1      C       1.3781787822     0.3665340866     0.2096456921
    2      C       0.7440746719    -0.9496988933    -0.1871485365
    3      C      -0.5388534304    -0.8253852666    -0.9275363321
    4      C      -1.0715597868     0.2839708887     0.0302503774
    5      C      -0.4076348478     1.5583758913    -0.3702666285
    6      N       0.8781593919     1.5705533774    -0.2404746576
    7      H       2.3484839628     0.3690791900     0.6963811538
    8      H       1.3646994944    -1.8424852020    -0.1544886028
    9      H      -1.1184544910    -1.6721771973    -1.2692508370
   10      H      -2.1390566551     0.3319241469     0.2475261672
   11      H      -0.9324013946     2.4017897524    -0.8140687906
   12      C      -0.1168865512    -0.5130339190     0.9431450424
   13      H      -0.4139321551    -1.0994989759     1.8111885729
 ----------------------------------------------------------------
 Nuclear Repulsion Energy =   280.0921788909 hartrees
 There are       25 alpha and       24 beta electrons

































 Eigenvalues after right structure
 -0.3085816 -0.0000000 -0.0000000 -0.0000000 -0.0000000 0.0000000 0.0000951 0.0180772 0.0324058 0.0411299 0.0524400 0.0650754 0.0662920 0.0711529 0.0752150 0.0881079 0.1120068 0.1188368 0.1399972 0.1558144 0.1802979 0.2463992 0.2739108 0.2804609 0.3066301 0.3926642 0.4091855 0.5210849 0.5786205 0.6310703 0.7910603 1.0223430 1.0402862 1.0741947 1.2079537 1.2687239 1.2987608 1.4050752 1.7633196
Archival summary:
1\1\c8-73\JobtypUnspecified\ProcedureUnspecified\6-31G*\166(2)\hpark21\ThuMar305:16:102022ThuMar305:16:102022\0\\#,JobtypUnspecified,ProcedureUnspecified,6-31G*,\\0,2\N\C,1,1.29239\H,2,1.08797,1,120.9\C,1,1.37924,2,112.658,3,-173.589,0\H,4,1.08555,1,117.926,2,-157.615,0\C,2,1.49175,1,115.08,3,175.523,0\H,6,1.09044,2,116.848,1,160.579,0\C,4,1.51394,1,121.438,2,34.0767,0\H,8,1.0878,4,117.821,1,156.061,0\C,8,1.48644,4,77.7544,1,-82.5826,0\H,10,1.08889,8,127.299,4,-130.232,0\C,8,1.48645,4,114.793,1,-7.9203,0\H,12,1.08156,8,123.67,4,-179.284,0\\\@

 Total job time:  1587.05s(wall), 4443.49s(cpu) 
 Thu Mar  3 05:16:10 2022

        *************************************************************
        *                                                           *
        *  Thank you very much for using Q-Chem.  Have a nice day.  *
        *                                                           *
        *************************************************************


