
Running Job 1 of 1 optimize.in
qchem optimize.in_35004.0 ./optimize.d/ 1
/home/leeping/opt/qchem/5.0.2-openmp/exe/qcprog.exe_s optimize.in_35004.0 ./optimize.d/
Check license passed

                  Welcome to Q-Chem
     A Quantum Leap Into The Future Of Chemistry


 Q-Chem 5.0, Q-Chem, Inc., Pleasanton, CA (2017)

 Yihan Shao,  Zhengting Gan,  E. Epifanovsky,  A. T. B. Gilbert,  M. Wormit,  
 J. Kussmann,  A. W. Lange,  A. Behn,  Jia Deng,  Xintian Feng,  D. Ghosh,  
 M. Goldey,  P. R. Horn,  L. D. Jacobson,  I. Kaliman,  T. Kus,  A. Landau,  
 Jie Liu,  E. I. Proynov,  R. M. Richard,  R. P. Steele,  E. J. Sundstrom,  
 H. L. Woodcock III,  P. M. Zimmerman,  D. Zuev,  B. Albrecht,  E. Alguire,  
 S. A. Baeppler,  D. Barton,  Z. Benda,  Y. A. Bernard,  E. J. Berquist,  
 K. B. Bravaya,  H. Burton,  D. Casanova,  Chun-Min Chang,  Yunqing Chen,  
 A. Chien,  K. D. Closser,  M. P. Coons,  S. Dasgupta,  A. L. Dempwolff,  
 M. Diedenhofen,  Hainam Do,  R. G. Edgar,  Po-Tung Fang,  S. Fatehi,  
 Qingguo Feng,  J. Fosso-Tande,  Qinghui Ge,  A. Ghysels,  G. Gidofalvi,  
 J. Gomes,  J. Gonthier,  A. Gunina,  M. W. D. Hanson-Heine,  
 P. H. P. Harbach,  A. W. Hauser,  J. E. Herr,  E. G. Hohenstein,  
 Z. C. Holden,  Kerwin Hui,  T.-C. Jagau,  Hyunjun Ji,  B. Kaduk,  
 K. Khistyaev,  Jaehoon Kim,  P. Klunzinger,  K. Koh,  D. Kosenkov,  
 L. Koulias,  T. Kowalczyk,  C. M. Krauter,  A. Kunitsa,  Ka Un Lao,  
 A. Laurent,  K. V. Lawler,  Joonho Lee,  D. Lefrancois,  S. Lehtola,  
 D. S. Levine,  Yi-Pei Li,  You-Sheng Lin,  Fenglai Liu,  E. Livshits,  
 A. Luenser,  P. Manohar,  E. Mansoor,  S. F. Manzer,  Shan-Ping Mao,  
 Yuezhi Mao,  N. Mardirossian,  A. V. Marenich,  T. Markovich,  
 L. A. Martinez-Martinez,  S. A. Maurer,  N. J. Mayhall,  S. C. McKenzie,  
 J.-M. Mewes,  A. F. Morrison,  J. W. Mullinax,  K. Nanda,  
 T. S. Nguyen-Beck,  R. Olivares-Amaya,  J. A. Parkhill,  T. M. Perrine,  
 F. Plasser,  S. Prager,  A. Prociuk,  E. Ramos,  D. R. Rehn,  F. Rob,  
 M. Schneider,  N. Sergueev,  S. M. Sharada,  S. Sharma,  D. W. Small,  
 T. Stauch,  T. Stein,  Yu-Chuan Su,  A. J. W. Thom,  A. Tkatchenko,  
 T. Tsuchimochi,  L. Vogt,  O. Vydrov,  M. A. Watson,  J. Wenzel,  
 M. de Wergifosse,  T. A. Wesolowski,  A. White,  J. Witte,  A. Yamada,  
 Jun Yang,  K. Yao,  S. Yeganeh,  S. R. Yost,  Zhi-Qiang You,  A. Zech,  
 Igor Ying Zhang,  Xing Zhang,  Yan Zhao,  Ying Zhu,  B. R. Brooks,  
 G. K. L. Chan,  C. J. Cramer,  M. S. Gordon,  W. J. Hehre,  A. Klamt,  
 M. W. Schmidt,  C. D. Sherrill,  D. G. Truhlar,  A. Aspuru-Guzik,  R. Baer,  
 A. T. Bell,  N. A. Besley,  Jeng-Da Chai,  R. A. DiStasio Jr.,  A. Dreuw,  
 B. D. Dunietz,  T. R. Furlani,  Chao-Ping Hsu,  Yousung Jung,  Jing Kong,  
 D. S. Lambrecht,  WanZhen Liang,  C. Ochsenfeld,  V. A. Rassolov,  
 L. V. Slipchenko,  J. E. Subotnik,  T. Van Voorhis,  J. M. Herbert,  
 A. I. Krylov,  P. M. W. Gill,  M. Head-Gordon

 Contributors to earlier versions of Q-Chem not listed above: 
 R. D. Adamson,  B. Austin,  J. Baker,  G. J. O. Beran,  K. Brandhorst,  
 S. T. Brown,  E. F. C. Byrd,  A. K. Chakraborty,  C.-L. Cheng,  
 Siu Hung Chien,  D. M. Chipman,  D. L. Crittenden,  H. Dachsel,  
 R. J. Doerksen,  A. D. Dutoi,  L. Fusti-Molnar,  W. A. Goddard III,  
 A. Golubeva-Zadorozhnaya,  S. R. Gwaltney,  G. Hawkins,  A. Heyden,  
 S. Hirata,  G. Kedziora,  F. J. Keil,  C. Kelley,  Jihan Kim,  R. A. King,  
 R. Z. Khaliullin,  P. P. Korambath,  W. Kurlancheek,  A. M. Lee,  M. S. Lee,  
 S. V. Levchenko,  Ching Yeh Lin,  D. Liotard,  R. C. Lochan,  I. Lotan,  
 P. E. Maslen,  N. Nair,  D. P. O'Neill,  D. Neuhauser,  E. Neuscamman,  
 C. M. Oana,  R. Olson,  B. Peters,  R. Peverati,  P. A. Pieniazek,  
 Y. M. Rhee,  J. Ritchie,  M. A. Rohrdanz,  E. Rosta,  N. J. Russ,  
 H. F. Schaefer III,  N. E. Schultz,  N. Shenvi,  A. C. Simmonett,  A. Sodt,  
 D. Stuck,  K. S. Thanthiriwatte,  V. Vanovschi,  Tao Wang,  A. Warshel,  
 C. F. Williams,  Q. Wu,  X. Xu,  W. Zhang

 Please cite Q-Chem as follows:
 Y. Shao et al., Mol. Phys. 113, 184-215 (2015)
 DOI: 10.1080/00268976.2014.952696

 Q-Chem 5.0.2 for Intel X86 EM64T Linux

 Parts of Q-Chem use Armadillo 5.200.1 (Boston Tea Smuggler).
 http://arma.sourceforge.net/

 Q-Chem begins on Tue Mar  1 05:59:27 2022  

Host: 
0

     Scratch files written to ./optimize.d//
 Dec517 15110_ 26548  26544 5633   
Processing $rem in /home/leeping/opt/qchem/5.0.2-openmp/config/preferences.
 MEM_STATIC 2000
 MEM_TOTAL  8000
 SYMMETRY   OFF
 SYM_IGNORE TRUE 

Checking the input file for inconsistencies... 	...done.

--------------------------------------------------------------
User input:
--------------------------------------------------------------
$molecule
0 2
C        2.2584288351    1.0597600824   -1.8455223180
C       -1.2580442138   -0.5676774256   -0.2536794732
C       -2.0718684429   -1.0625265242    0.8515765020
C       -1.4377198753   -0.6406995989    1.9822560023
C       -0.2667130182    0.0895782587    1.5155514022
N       -0.1820218247    0.1209062931    0.1704075197
H        1.4361456963    0.8485105028   -1.1831911370
H       -1.4479014462   -0.6947308190   -1.3140468850
H       -2.9828470110   -1.6405364081    0.7710972583
H       -1.7252001694   -0.8001890932    3.0134168747
H        0.4899452783    0.5624480991    2.1318997399
C        3.1831116185    1.2676206499   -2.5933326195
H        4.0046845735    1.4575359831   -3.2464328665
$end

$rem
method                b3lyp
basis                 6-31g(d)
unrestricted          true
symmetry              off
sym_ignore            true
incdft                false
incfock               0
scf_convergence       8
thresh                14
jobtype               opt
scf_guess             read
scf_algorithm         diis
max_scf_cycles        100
geom_opt_tol_gradient 600
geom_opt_tol_displacement 2400
geom_opt_tol_energy   200
geom_opt_max_cycles   100
$end

--------------------------------------------------------------
 ----------------------------------------------------------------
             Standard Nuclear Orientation (Angstroms)
    I     Atom           X                Y                Z
 ----------------------------------------------------------------
    1      C       2.2584288351     1.0597600824    -1.8455223180
    2      C      -1.2580442138    -0.5676774256    -0.2536794732
    3      C      -2.0718684429    -1.0625265242     0.8515765020
    4      C      -1.4377198753    -0.6406995989     1.9822560023
    5      C      -0.2667130182     0.0895782587     1.5155514022
    6      N      -0.1820218247     0.1209062931     0.1704075197
    7      H       1.4361456963     0.8485105028    -1.1831911370
    8      H      -1.4479014462    -0.6947308190    -1.3140468850
    9      H      -2.9828470110    -1.6405364081     0.7710972583
   10      H      -1.7252001694    -0.8001890932     3.0134168747
   11      H       0.4899452783     0.5624480991     2.1318997399
   12      C       3.1831116185     1.2676206499    -2.5933326195
   13      H       4.0046845735     1.4575359831    -3.2464328665
 ----------------------------------------------------------------
 Nuclear Repulsion Energy =   228.3853620482 hartrees
 There are       25 alpha and       24 beta electrons
 Requested basis set is 6-31G(d)
 There are 40 shells and 117 basis functions

 Total QAlloc Memory Limit   8000 MB
 Mega-Array Size      1956 MB
 MEM_STATIC part      2000 MB
 A cutoff of  1.0D-14 yielded    706 shell pairs
 There are      6245 function pairs
 
 -------------------------------------------------------
 OpenMP Integral Computing Module                       
 Release: version 1.0, May 2013, Q-Chem Inc. Pittsburgh 
 -------------------------------------------------------
 Integral Job Info:
 Integral job number is                      11
 Integral operator is                         1
 short-range coefficients                     0
 long-range coefficients              100000000
 Omega coefficients                           0
 if combine SR and LR in K                    0
 Integral screening is                        0
 Integral computing path is                   2
 max size of driver memory is            800000
 size of driver memory is                593474
 size of scratch memory is              2361544
 max col of scratch BK array               1296
 max len of scratch array in speh3          155
 max len of scratch index in speh4           18
 max int batch size is                      520
 min int batch size is                       52
 fixed nKL is                                52
 max L of basis functions is                  2
 order of int derivative is                   0
 number of shells is                         40
 number of basis is                         117
 number of cartesian basis is               117
 number of contracted shell pairs           706
 number of primitive shell pairs           2956
 maxK2 (contraction) of shell pair           36
 max number of K2 of shell pair               1
 max number of CS2 of shell pair             77
 max number of PS2 of shell pair            360
 mem total for path MDJ                  524076
 -------------------------------------------------------
 Smallest overlap matrix eigenvalue = 7.36E-04

 Scale SEOQF with 1.000000e-01/1.000000e-01/1.000000e-01

 Standard Electronic Orientation quadrupole field applied
 Nucleus-field energy     =    -0.0000000054 hartrees
 Guess MOs from SCF MO coefficient file
 Reading MOs from coefficient file
 Reading MOs from coefficient file
 An unrestricted hybrid HF-DFT SCF calculation will be
 performed using Pulay DIIS extrapolation
 Exchange:     0.2000 Hartree-Fock + 0.0800 Slater + 0.7200 B88
 Correlation:  0.1900 VWN1RPA + 0.8100 LYP
 Using SG-1 standard quadrature grid
 SCF converges when DIIS error is below 1.0E-08
Using Q-Chem read-in guess as SCF_GUESS READ specified.

 using 4 threads for integral computing
 -------------------------------------------------------
 OpenMP Integral computing Module                
 Release: version 1.0, May 2013, Q-Chem Inc. Pittsburgh 
 -------------------------------------------------------
 -------------------------------------------------------
 OpenMP BLAS3 based DFT computing Module                
 Release: version 1.0, May 2013, Q-Chem Inc. Pittsburgh 
 -------------------------------------------------------
 ---------------------------------------
  Cycle       Energy         DIIS Error
 ---------------------------------------
    1    -286.8436405762      7.43E-10
    2    -286.8436405762      1.06E-09 Convergence criterion met
 ---------------------------------------
 <S^2> = 0.7653
 SCF time:  CPU 4.25 s  wall 7.61 s
 SCF   energy in the final basis set = -286.84364058
 Total energy in the final basis set = -286.84364058
 
 --------------------------------------------------------------
 
                    Orbital Energies (a.u.)
 --------------------------------------------------------------
 
 Alpha MOs
 -- Occupied --
-14.331 -10.253 -10.253 -10.211 -10.210 -10.165 -10.161  -0.971
 -0.781  -0.734  -0.717  -0.582  -0.576  -0.540  -0.529  -0.462
 -0.429  -0.422  -0.415  -0.403  -0.286  -0.264  -0.257  -0.257
 -0.253
 -- Virtual --
  0.026   0.038   0.075   0.077   0.100   0.137   0.142   0.147
  0.153   0.200   0.222   0.236   0.302   0.349   0.452   0.466
  0.501   0.511   0.524   0.540   0.550   0.554   0.562   0.581
  0.583   0.606   0.652   0.652   0.669   0.676   0.688   0.777
  0.787   0.794   0.824   0.828   0.885   0.889   0.921   0.940
  0.960   1.053   1.106   1.113   1.240   1.257   1.312   1.343
  1.364   1.440   1.465   1.473   1.517   1.520   1.532   1.539
  1.575   1.575   1.583   1.677   1.776   1.936   1.968   1.968
  1.976   2.002   2.039   2.127   2.185   2.221   2.235   2.297
  2.370   2.461   2.512   2.514   2.518   2.579   2.601   2.618
  2.718   2.898   2.913   2.999   3.220   3.941   4.059   4.077
  4.180   4.311   4.368   4.430
 
 Beta MOs
 -- Occupied --
-14.334 -10.245 -10.245 -10.209 -10.209 -10.165 -10.161  -0.965
 -0.778  -0.717  -0.713  -0.576  -0.565  -0.539  -0.528  -0.462
 -0.426  -0.413  -0.397  -0.392  -0.287  -0.261  -0.257  -0.257
 -- Virtual --
 -0.145   0.056   0.066   0.075   0.077   0.103   0.137   0.147
  0.152   0.156   0.202   0.227   0.242   0.307   0.355   0.460
  0.466   0.502   0.532   0.534   0.543   0.552   0.554   0.588
  0.592   0.600   0.614   0.658   0.665   0.670   0.677   0.689
  0.778   0.793   0.795   0.819   0.830   0.889   0.894   0.923
  0.947   0.963   1.053   1.111   1.114   1.241   1.263   1.333
  1.363   1.376   1.440   1.468   1.479   1.519   1.526   1.532
  1.565   1.575   1.575   1.584   1.680   1.799   1.939   1.968
  1.968   1.984   2.005   2.044   2.152   2.199   2.235   2.268
  2.308   2.384   2.461   2.512   2.514   2.535   2.593   2.605
  2.626   2.720   2.901   2.916   3.001   3.220   3.940   4.068
  4.092   4.180   4.322   4.369   4.438
 --------------------------------------------------------------
 
          Ground-State Mulliken Net Atomic Charges

     Atom                 Charge (a.u.)    Spin (a.u.)
  --------------------------------------------------------
      1 C                    -0.111921      -0.000192
      2 C                     0.070982       0.530766
      3 C                    -0.154220       0.087913
      4 C                    -0.156465       0.074671
      5 C                     0.072374       0.537208
      6 N                    -0.413775      -0.167636
      7 H                     0.229729       0.001411
      8 H                     0.163751      -0.026103
      9 H                     0.152304      -0.006098
     10 H                     0.152446      -0.005584
     11 H                     0.163102      -0.026305
     12 C                    -0.341750      -0.000067
     13 H                     0.173443       0.000017
  --------------------------------------------------------
  Sum of atomic charges =    -0.000000
  Sum of spin   charges =     1.000000

 -----------------------------------------------------------------
                    Cartesian Multipole Moments
 -----------------------------------------------------------------
    Charge (ESU x 10^10)
                 0.0000
    Dipole Moment (Debye)
         X      -2.2521      Y      -1.2429      Z       1.8145
       Tot       3.1479
    Quadrupole Moments (Debye-Ang)
        XX     -37.1373     XY       2.6586     YY     -42.2722
        XZ      -0.7165     YZ       0.7527     ZZ     -35.2268
    Octopole Moments (Debye-Ang^2)
       XXX      -0.0445    XXY      -4.0255    XYY      -5.8859
       YYY      -8.0423    XXZ     -12.9703    XYZ      -2.8127
       YYZ       2.4990    XZZ       5.2948    YZZ      -0.2609
       ZZZ      12.9322
    Hexadecapole Moments (Debye-Ang^3)
      XXXX    -792.8586   XXXY    -134.3281   XXYY    -174.0337
      XYYY    -196.2409   YYYY    -228.2391   XXXZ     211.4023
      XXYZ       3.2380   XYYZ      99.0772   YYYZ     136.3029
      XXZZ    -177.8115   XYZZ     -30.5329   YYZZ    -150.7101
      XZZZ     244.3140   YZZZ     109.5531   ZZZZ    -625.5953
 -----------------------------------------------------------------
 Calculating analytic gradient of the SCF energy
 Gradient of SCF Energy
            1           2           3           4           5           6
    1  -0.0006614   0.0003175   0.0001679   0.0005089  -0.0002877  -0.0005672
    2   0.0003159  -0.0007348   0.0002158   0.0000460   0.0005857  -0.0003748
    3   0.0009684  -0.0004532  -0.0002116   0.0000720   0.0001357  -0.0000538
            7           8           9          10          11          12
    1  -0.0003414   0.0004919   0.0002116  -0.0003750  -0.0003715   0.0007267
    2   0.0000765   0.0007657   0.0000538  -0.0000279  -0.0007164  -0.0000992
    3  -0.0002777   0.0003926   0.0006442  -0.0000017  -0.0003032  -0.0009828
           13
    1   0.0001796
    2  -0.0001064
    3   0.0000710
 Max gradient component =       9.828E-04
 RMS gradient           =       4.443E-04
 Gradient time:  CPU 6.06 s  wall 10.10 s
 Geometry Optimization Parameters
   NAtoms,    NIC,     NZ,  NCons,   NDum,   NFix, NCnnct, MaxDiis
       13      81       0       0       0       0       0       0


** GEOMETRY OPTIMIZATION IN DELOCALIZED INTERNAL COORDINATES **
   Searching for a Minimum

   Optimization Cycle:   1

                       Coordinates (Angstroms)
     ATOM                X               Y               Z
      1  C         2.2584288351    1.0597600824   -1.8455223180
      2  C        -1.2580442138   -0.5676774256   -0.2536794732
      3  C        -2.0718684429   -1.0625265242    0.8515765020
      4  C        -1.4377198753   -0.6406995989    1.9822560023
      5  C        -0.2667130182    0.0895782587    1.5155514022
      6  N        -0.1820218247    0.1209062931    0.1704075197
      7  H         1.4361456963    0.8485105028   -1.1831911370
      8  H        -1.4479014462   -0.6947308190   -1.3140468850
      9  H        -2.9828470110   -1.6405364081    0.7710972583
     10  H        -1.7252001694   -0.8001890932    3.0134168747
     11  H         0.4899452783    0.5624480991    2.1318997399
     12  C         3.1831116185    1.2676206499   -2.5933326195
     13  H         4.0046845735    1.4575359831   -3.2464328665
   Point Group: c1    Number of degrees of freedom:    33


   Energy is   -286.843640576


 Attempting to Generate Delocalized Internal Coordinates

  ***ERROR*** Angle    13   12    1   is near-linear
              But No atom available to define colinear bend
**WARNING** Problems with Internal Coordinates
  Switching to Cartesian Coordinates

 Translations and Rotations Projected Out of Hessian

 33 Hessian modes will be used to form the next step
  Hessian Eigenvalues:
     1.000000    1.000000    1.000000    1.000000    1.000000    1.000000
     1.000000    1.000000    1.000000    1.000000    1.000000    1.000000
     1.000000    1.000000    1.000000    1.000000    1.000000    1.000000
     1.000000    1.000000    1.000000    1.000000    1.000000    1.000000
     1.000000    1.000000    1.000000    1.000000    1.000000    1.000000
     1.000000    1.000000    1.000000

 Minimum Search - Taking Simple RFO Step
 Searching for Lamda that Minimizes Along All modes
 Value Taken    Lamda =  -0.00000770
 Step Taken.  Stepsize is  0.002774

                             Maximum     Tolerance    Cnvgd?
         Gradient           0.000983      0.000600      NO
         Displacement       0.000979      0.002400     YES
         Energy change     *********      0.000002      NO

 ----------------------------------------------------------------
             Standard Nuclear Orientation (Angstroms)
    I     Atom           X                Y                Z
 ----------------------------------------------------------------
    1      C       2.2587778127     1.0595927315    -1.8460361508
    2      C      -1.2582121323    -0.5672891183    -0.2534388995
    3      C      -2.0719566572    -1.0626409481     0.8516897709
    4      C      -1.4379882026    -0.6407234648     1.9822187287
    5      C      -0.2665602418     0.0892689711     1.5154796739
    6      N      -0.1817216647     0.1211046545     0.1704359782
    7      H       1.4363256649     0.8484699058    -1.1830451599
    8      H      -1.4481620499    -0.6951370751    -1.3142537849
    9      H      -2.9829582040    -1.6405654418     0.7707582836
   10      H      -1.7250003393    -0.8001734444     3.0134188018
   11      H       0.4901425012     0.5628283351     2.1320597568
   12      C       3.1827256878     1.2676729064    -2.5928143629
   13      H       4.0045878252     1.4575919883    -3.2464726359
 ----------------------------------------------------------------
 Nuclear Repulsion Energy =   228.3907635739 hartrees
 There are       25 alpha and       24 beta electrons
 Applying Cartesian multipole field
    Component          Value
    ---------          -----
     (2,0,0)        1.00000E-11
     (0,2,0)        2.00000E-11
     (0,0,2)       -3.00000E-11
 Nucleus-field energy     =    -0.0000000054 hartrees
 Requested basis set is 6-31G(d)
 There are 40 shells and 117 basis functions
 A cutoff of  1.0D-14 yielded    706 shell pairs
 There are      6245 function pairs
 Smallest overlap matrix eigenvalue = 7.32E-04
 Guess MOs from SCF MO coefficient file
 Reading MOs from coefficient file
 Reading MOs from coefficient file
 An unrestricted hybrid HF-DFT SCF calculation will be
 performed using Pulay DIIS extrapolation
 Exchange:     0.2000 Hartree-Fock + 0.0800 Slater + 0.7200 B88
 Correlation:  0.1900 VWN1RPA + 0.8100 LYP
 Using SG-1 standard quadrature grid
 SCF converges when DIIS error is below 1.0E-08
 Geometry optimization detected.  Setting ReadMinima to 0
 Setting SaveMinima to 0
Using Q-Chem read-in guess as SCF_GUESS READ specified.

 using 4 threads for integral computing
 -------------------------------------------------------
 OpenMP Integral computing Module                
 Release: version 1.0, May 2013, Q-Chem Inc. Pittsburgh 
 -------------------------------------------------------
 -------------------------------------------------------
 OpenMP BLAS3 based DFT computing Module                
 Release: version 1.0, May 2013, Q-Chem Inc. Pittsburgh 
 -------------------------------------------------------
 ---------------------------------------
  Cycle       Energy         DIIS Error
 ---------------------------------------
    1    -286.8439753022      7.35E-05
    2    -286.8436438647      1.65E-05
    3    -286.8436440023      1.55E-05
    4    -286.8436443877      4.59E-06
    5    -286.8436444214      1.17E-06
    6    -286.8436444247      6.10E-07
    7    -286.8436444261      1.72E-07
    8    -286.8436444267      9.37E-08
    9    -286.8436444274      5.93E-08
   10    -286.8436444277      2.73E-08
   11    -286.8436444277      2.02E-08
   12    -286.8436444277      7.33E-09 Convergence criterion met
 ---------------------------------------
 <S^2> = 0.7653
 SCF time:  CPU 25.40 s  wall 28.75 s
 SCF   energy in the final basis set = -286.84364443
 Total energy in the final basis set = -286.84364443
 
 --------------------------------------------------------------
 
                    Orbital Energies (a.u.)
 --------------------------------------------------------------
 
 Alpha MOs
 -- Occupied --
-14.331 -10.253 -10.253 -10.211 -10.210 -10.165 -10.161  -0.971
 -0.781  -0.734  -0.717  -0.582  -0.576  -0.540  -0.529  -0.462
 -0.429  -0.422  -0.415  -0.403  -0.286  -0.264  -0.258  -0.257
 -0.253
 -- Virtual --
  0.026   0.038   0.076   0.077   0.100   0.137   0.142   0.147
  0.153   0.200   0.222   0.236   0.302   0.349   0.452   0.466
  0.501   0.511   0.524   0.540   0.550   0.554   0.562   0.581
  0.583   0.606   0.652   0.652   0.669   0.676   0.688   0.777
  0.786   0.794   0.823   0.828   0.885   0.889   0.920   0.940
  0.960   1.053   1.105   1.113   1.242   1.257   1.312   1.343
  1.364   1.440   1.465   1.473   1.517   1.522   1.532   1.539
  1.575   1.575   1.583   1.677   1.776   1.936   1.968   1.968
  1.976   2.002   2.039   2.127   2.185   2.221   2.235   2.297
  2.370   2.462   2.513   2.515   2.518   2.579   2.601   2.618
  2.717   2.898   2.913   2.999   3.222   3.941   4.059   4.077
  4.180   4.311   4.367   4.430
 
 Beta MOs
 -- Occupied --
-14.334 -10.245 -10.245 -10.209 -10.209 -10.165 -10.161  -0.965
 -0.778  -0.717  -0.713  -0.576  -0.565  -0.539  -0.528  -0.462
 -0.425  -0.413  -0.397  -0.392  -0.287  -0.261  -0.258  -0.257
 -- Virtual --
 -0.145   0.056   0.066   0.076   0.078   0.103   0.137   0.147
  0.151   0.156   0.202   0.227   0.242   0.307   0.355   0.460
  0.466   0.502   0.532   0.534   0.543   0.551   0.554   0.588
  0.592   0.600   0.614   0.658   0.665   0.671   0.677   0.689
  0.778   0.793   0.795   0.819   0.830   0.889   0.894   0.923
  0.947   0.963   1.053   1.111   1.114   1.242   1.263   1.333
  1.363   1.376   1.440   1.468   1.479   1.521   1.526   1.532
  1.565   1.575   1.575   1.584   1.680   1.799   1.938   1.968
  1.968   1.984   2.005   2.044   2.152   2.199   2.235   2.268
  2.308   2.384   2.462   2.513   2.515   2.535   2.593   2.605
  2.626   2.720   2.901   2.915   3.001   3.222   3.940   4.068
  4.092   4.180   4.322   4.368   4.438
 --------------------------------------------------------------
 
          Ground-State Mulliken Net Atomic Charges

     Atom                 Charge (a.u.)    Spin (a.u.)
  --------------------------------------------------------
      1 C                    -0.111295      -0.000193
      2 C                     0.070823       0.531186
      3 C                    -0.154134       0.087200
      4 C                    -0.156395       0.075353
      5 C                     0.072271       0.536880
      6 N                    -0.413653      -0.167667
      7 H                     0.229823       0.001411
      8 H                     0.163724      -0.026133
      9 H                     0.152332      -0.006069
     10 H                     0.152457      -0.005614
     11 H                     0.163072      -0.026304
     12 C                    -0.342478      -0.000067
     13 H                     0.173453       0.000016
  --------------------------------------------------------
  Sum of atomic charges =    -0.000000
  Sum of spin   charges =     1.000000

 -----------------------------------------------------------------
                    Cartesian Multipole Moments
 -----------------------------------------------------------------
    Charge (ESU x 10^10)
                -0.0000
    Dipole Moment (Debye)
         X      -2.2526      Y      -1.2432      Z       1.8150
       Tot       3.1487
    Quadrupole Moments (Debye-Ang)
        XX     -37.1367     XY       2.6592     YY     -42.2695
        XZ      -0.7166     YZ       0.7521     ZZ     -35.2253
    Octopole Moments (Debye-Ang^2)
       XXX      -0.0427    XXY      -4.0298    XYY      -5.8791
       YYY      -8.0329    XXZ     -12.9632    XYZ      -2.8096
       YYZ       2.4920    XZZ       5.2924    YZZ      -0.2613
       ZZZ      12.9179
    Hexadecapole Moments (Debye-Ang^3)
      XXXX    -792.8605   XXXY    -134.3277   XXYY    -174.0123
      XYYY    -196.2133   YYYY    -228.2006   XXXZ     211.4318
      XXYZ       3.2610   XYYZ      99.0635   YYYZ     136.2816
      XXZZ    -177.8410   XYZZ     -30.5395   YYZZ    -150.6850
      XZZZ     244.2873   YZZZ     109.5399   ZZZZ    -625.5002
 -----------------------------------------------------------------
 Calculating analytic gradient of the SCF energy
 Gradient of SCF Energy
            1           2           3           4           5           6
    1   0.0015291   0.0003315   0.0001839   0.0002780  -0.0004892  -0.0003392
    2   0.0008025  -0.0005773   0.0001323   0.0000008   0.0003246  -0.0002390
    3  -0.0008389  -0.0000145  -0.0000178   0.0000037  -0.0000757  -0.0001215
            7           8           9          10          11          12
    1  -0.0006358   0.0004151   0.0002035  -0.0003366  -0.0001501  -0.0015182
    2   0.0000094   0.0006721   0.0000486  -0.0000107  -0.0005387  -0.0005971
    3  -0.0000187   0.0000336   0.0006235  -0.0000591  -0.0001539   0.0008498
           13
    1   0.0005281
    2  -0.0000276
    3  -0.0002106
 Max gradient component =       1.529E-03
 RMS gradient           =       5.169E-04
 Gradient time:  CPU 5.65 s  wall 2.80 s
 Geometry Optimization Parameters
   NAtoms,    NIC,     NZ,  NCons,   NDum,   NFix, NCnnct, MaxDiis
       13      81       0       0       0       0       0       0

 Cartesian Hessian Update
 Hessian Updated using BFGS Update


** GEOMETRY OPTIMIZATION IN CARTESIAN COORDINATES **
   Searching for a Minimum

   Optimization Cycle:   2

                       Coordinates (Angstroms)
     ATOM                X               Y               Z
      1  C         2.2587778127    1.0595927315   -1.8460361508
      2  C        -1.2582121323   -0.5672891183   -0.2534388995
      3  C        -2.0719566572   -1.0626409481    0.8516897709
      4  C        -1.4379882026   -0.6407234648    1.9822187287
      5  C        -0.2665602418    0.0892689711    1.5154796739
      6  N        -0.1817216647    0.1211046545    0.1704359782
      7  H         1.4363256649    0.8484699058   -1.1830451599
      8  H        -1.4481620499   -0.6951370751   -1.3142537849
      9  H        -2.9829582040   -1.6405654418    0.7707582836
     10  H        -1.7250003393   -0.8001734444    3.0134188018
     11  H         0.4901425012    0.5628283351    2.1320597568
     12  C         3.1827256878    1.2676729064   -2.5928143629
     13  H         4.0045878252    1.4575919883   -3.2464726359
   Point Group: c1    Number of degrees of freedom:    33


   Energy is   -286.843644428


 Translations and Rotations Projected Out of Hessian

  2 Hessian modes will be used to form the next step
  Hessian Eigenvalues:
     0.330810    3.022707

 Minimum Search - Taking Simple RFO Step
 Searching for Lamda that Minimizes Along All modes
 Value Taken    Lamda =  -0.00001042
 Step Taken.  Stepsize is  0.004952

                             Maximum     Tolerance    Cnvgd?
         Gradient           0.001529      0.000600      NO
         Displacement       0.001713      0.002400     YES
         Energy change     -0.000004      0.000002      NO

 ----------------------------------------------------------------
             Standard Nuclear Orientation (Angstroms)
    I     Atom           X                Y                Z
 ----------------------------------------------------------------
    1      C       2.2584399768     1.0589413556    -1.8462891189
    2      C      -1.2586147982    -0.5664585050    -0.2531048501
    3      C      -2.0721727414    -1.0628661070     0.8518537908
    4      C      -1.4384975909    -0.6407557176     1.9821671631
    5      C      -0.2660940236     0.0886791807     1.5154227107
    6      N      -0.1811358194     0.1214996452     0.1705388254
    7      H       1.4369050341     0.8484098757    -1.1828386291
    8      H      -1.4487347654    -0.6960437220    -1.3145507433
    9      H      -2.9832155867    -1.6406310467     0.7699714119
   10      H      -1.7245503007    -0.8001457007     3.0134537126
   11      H       0.4904895501     0.5636292499     2.1323573402
   12      C       3.1830053579     1.2680593924    -2.5925643769
   13      H       4.0041757077     1.4576820996    -3.2464172366
 ----------------------------------------------------------------
 Nuclear Repulsion Energy =   228.3714411521 hartrees
 There are       25 alpha and       24 beta electrons
 Applying Cartesian multipole field
    Component          Value
    ---------          -----
     (2,0,0)        1.00000E-11
     (0,2,0)        2.00000E-11
     (0,0,2)       -3.00000E-11
 Nucleus-field energy     =    -0.0000000054 hartrees
 Requested basis set is 6-31G(d)
 There are 40 shells and 117 basis functions
 A cutoff of  1.0D-14 yielded    706 shell pairs
 There are      6245 function pairs
 Smallest overlap matrix eigenvalue = 7.32E-04
 Guess MOs from SCF MO coefficient file
 Reading MOs from coefficient file
 Reading MOs from coefficient file
 An unrestricted hybrid HF-DFT SCF calculation will be
 performed using Pulay DIIS extrapolation
 Exchange:     0.2000 Hartree-Fock + 0.0800 Slater + 0.7200 B88
 Correlation:  0.1900 VWN1RPA + 0.8100 LYP
 Using SG-1 standard quadrature grid
 SCF converges when DIIS error is below 1.0E-08
 Geometry optimization detected.  Setting ReadMinima to 0
 Setting SaveMinima to 0
Using Q-Chem read-in guess as SCF_GUESS READ specified.

 using 4 threads for integral computing
 -------------------------------------------------------
 OpenMP Integral computing Module                
 Release: version 1.0, May 2013, Q-Chem Inc. Pittsburgh 
 -------------------------------------------------------
 -------------------------------------------------------
 OpenMP BLAS3 based DFT computing Module                
 Release: version 1.0, May 2013, Q-Chem Inc. Pittsburgh 
 -------------------------------------------------------
 ---------------------------------------
  Cycle       Energy         DIIS Error
 ---------------------------------------
    1    -286.8428976985      6.02E-05
    2    -286.8436516040      1.30E-05
    3    -286.8436515721      1.56E-05
    4    -286.8436519888      3.05E-06
    5    -286.8436520077      1.56E-06
    6    -286.8436520179      5.02E-07
    7    -286.8436520232      3.56E-07
    8    -286.8436520267      1.58E-07
    9    -286.8436520287      1.39E-07
   10    -286.8436520294      4.19E-08
   11    -286.8436520294      3.08E-08
   12    -286.8436520295      1.24E-08
   13    -286.8436520295      6.33E-09 Convergence criterion met
 ---------------------------------------
 <S^2> = 0.7653
 SCF time:  CPU 27.47 s  wall 27.08 s
 SCF   energy in the final basis set = -286.84365203
 Total energy in the final basis set = -286.84365203
 
 --------------------------------------------------------------
 
                    Orbital Energies (a.u.)
 --------------------------------------------------------------
 
 Alpha MOs
 -- Occupied --
-14.331 -10.253 -10.253 -10.211 -10.210 -10.165 -10.161  -0.971
 -0.781  -0.734  -0.717  -0.582  -0.576  -0.540  -0.529  -0.462
 -0.429  -0.422  -0.415  -0.403  -0.286  -0.264  -0.257  -0.257
 -0.253
 -- Virtual --
  0.026   0.038   0.076   0.077   0.100   0.137   0.142   0.147
  0.153   0.200   0.222   0.236   0.302   0.349   0.452   0.466
  0.501   0.511   0.524   0.540   0.550   0.554   0.562   0.581
  0.583   0.606   0.652   0.652   0.669   0.676   0.688   0.777
  0.786   0.794   0.824   0.828   0.885   0.889   0.920   0.940
  0.960   1.053   1.105   1.113   1.242   1.257   1.312   1.343
  1.364   1.440   1.465   1.473   1.517   1.523   1.532   1.540
  1.575   1.575   1.581   1.676   1.776   1.935   1.968   1.968
  1.976   2.002   2.039   2.126   2.184   2.221   2.235   2.297
  2.370   2.462   2.513   2.514   2.518   2.579   2.601   2.617
  2.717   2.897   2.912   2.999   3.222   3.941   4.059   4.077
  4.180   4.311   4.368   4.429
 
 Beta MOs
 -- Occupied --
-14.334 -10.245 -10.245 -10.209 -10.209 -10.165 -10.161  -0.965
 -0.778  -0.717  -0.713  -0.576  -0.565  -0.539  -0.528  -0.462
 -0.425  -0.413  -0.397  -0.392  -0.287  -0.261  -0.257  -0.257
 -- Virtual --
 -0.145   0.056   0.066   0.076   0.077   0.103   0.137   0.147
  0.151   0.156   0.202   0.227   0.242   0.307   0.355   0.460
  0.466   0.502   0.532   0.534   0.543   0.551   0.554   0.588
  0.592   0.600   0.614   0.658   0.665   0.670   0.677   0.689
  0.778   0.792   0.795   0.819   0.830   0.889   0.894   0.923
  0.947   0.963   1.053   1.111   1.114   1.242   1.263   1.333
  1.363   1.376   1.440   1.468   1.479   1.522   1.526   1.532
  1.565   1.575   1.575   1.582   1.679   1.798   1.938   1.968
  1.968   1.984   2.005   2.043   2.152   2.199   2.235   2.268
  2.308   2.384   2.462   2.513   2.514   2.535   2.593   2.605
  2.626   2.720   2.900   2.915   3.001   3.222   3.940   4.068
  4.092   4.180   4.322   4.369   4.438
 --------------------------------------------------------------
 
          Ground-State Mulliken Net Atomic Charges

     Atom                 Charge (a.u.)    Spin (a.u.)
  --------------------------------------------------------
      1 C                    -0.111126      -0.000194
      2 C                     0.070541       0.532118
      3 C                    -0.153993       0.085646
      4 C                    -0.156299       0.076804
      5 C                     0.072107       0.536201
      6 N                    -0.413491      -0.167768
      7 H                     0.229654       0.001413
      8 H                     0.163694      -0.026191
      9 H                     0.152385      -0.006005
     10 H                     0.152470      -0.005677
     11 H                     0.163040      -0.026297
     12 C                    -0.342349      -0.000067
     13 H                     0.173366       0.000017
  --------------------------------------------------------
  Sum of atomic charges =    -0.000000
  Sum of spin   charges =     1.000000

 -----------------------------------------------------------------
                    Cartesian Multipole Moments
 -----------------------------------------------------------------
    Charge (ESU x 10^10)
                -0.0000
    Dipole Moment (Debye)
         X      -2.2529      Y      -1.2436      Z       1.8155
       Tot       3.1494
    Quadrupole Moments (Debye-Ang)
        XX     -37.1383     XY       2.6619     YY     -42.2702
        XZ      -0.7183     YZ       0.7512     ZZ     -35.2246
    Octopole Moments (Debye-Ang^2)
       XXX      -0.0560    XXY      -4.0355    XYY      -5.8791
       YYY      -8.0346    XXZ     -12.9666    XYZ      -2.8135
       YYZ       2.4884    XZZ       5.2953    YZZ      -0.2608
       ZZZ      12.9133
    Hexadecapole Moments (Debye-Ang^3)
      XXXX    -793.0259   XXXY    -134.3302   XXYY    -174.0166
      XYYY    -196.2153   YYYY    -228.1873   XXXZ     211.4726
      XXYZ       3.2771   XYYZ      99.0625   YYYZ     136.2850
      XXZZ    -177.8738   XYZZ     -30.5331   YYZZ    -150.6690
      XZZZ     244.2571   YZZZ     109.5318   ZZZZ    -625.4452
 -----------------------------------------------------------------
 Calculating analytic gradient of the SCF energy
 Gradient of SCF Energy
            1           2           3           4           5           6
    1   0.0006196   0.0002993   0.0001488  -0.0001717  -0.0006726   0.0001044
    2   0.0005420  -0.0002791  -0.0000861  -0.0000703  -0.0000816   0.0000244
    3  -0.0001941   0.0005480   0.0003173  -0.0000540  -0.0003331  -0.0002286
            7           8           9          10          11          12
    1  -0.0003221   0.0002745   0.0001851  -0.0002541   0.0001900  -0.0006410
    2   0.0001098   0.0004847   0.0000348   0.0000277  -0.0002388  -0.0003661
    3  -0.0002199  -0.0005178   0.0005709  -0.0001696   0.0000738   0.0001996
           13
    1   0.0002397
    2  -0.0001014
    3   0.0000077
 Max gradient component =       6.726E-04
 RMS gradient           =       3.176E-04
 Gradient time:  CPU 6.01 s  wall 2.70 s
 Geometry Optimization Parameters
   NAtoms,    NIC,     NZ,  NCons,   NDum,   NFix, NCnnct, MaxDiis
       13      81       0       0       0       0       0       0

 Cartesian Hessian Update
 Hessian Updated using BFGS Update


** GEOMETRY OPTIMIZATION IN CARTESIAN COORDINATES **
   Searching for a Minimum

   Optimization Cycle:   3

                       Coordinates (Angstroms)
     ATOM                X               Y               Z
      1  C         2.2584399768    1.0589413556   -1.8462891189
      2  C        -1.2586147982   -0.5664585050   -0.2531048501
      3  C        -2.0721727414   -1.0628661070    0.8518537908
      4  C        -1.4384975909   -0.6407557176    1.9821671631
      5  C        -0.2660940236    0.0886791807    1.5154227107
      6  N        -0.1811358194    0.1214996452    0.1705388254
      7  H         1.4369050341    0.8484098757   -1.1828386291
      8  H        -1.4487347654   -0.6960437220   -1.3145507433
      9  H        -2.9832155867   -1.6406310467    0.7699714119
     10  H        -1.7245503007   -0.8001457007    3.0134537126
     11  H         0.4904895501    0.5636292499    2.1323573402
     12  C         3.1830053579    1.2680593924   -2.5925643769
     13  H         4.0041757077    1.4576820996   -3.2464172366
   Point Group: c1    Number of degrees of freedom:    33


   Energy is   -286.843652029


 Translations and Rotations Projected Out of Hessian

  3 Hessian modes will be used to form the next step
  Hessian Eigenvalues:
     0.152426    1.278686    2.774721

 Minimum Search - Taking Simple RFO Step
 Searching for Lamda that Minimizes Along All modes
 Value Taken    Lamda =  -0.00001003
 Step Taken.  Stepsize is  0.007455

                             Maximum     Tolerance    Cnvgd?
         Gradient           0.000673      0.000600      NO
         Displacement       0.002764      0.002400      NO
         Energy change     -0.000008      0.000002      NO

 ----------------------------------------------------------------
             Standard Nuclear Orientation (Angstroms)
    I     Atom           X                Y                Z
 ----------------------------------------------------------------
    1      C       2.2580380981     1.0578446856    -1.8468363579
    2      C      -1.2593313341    -0.5652640341    -0.2531718580
    3      C      -2.0725424072    -1.0630428087     0.8517698633
    4      C      -1.4389281440    -0.6407319222     1.9821492316
    5      C      -0.2649919711     0.0880667940     1.5156337825
    6      N      -0.1805572550     0.1219301849     0.1708542134
    7      H       1.4377579323     0.8482212234    -1.1823391872
    8      H      -1.4496315752    -0.6975065256    -1.3144502742
    9      H      -2.9836705007    -1.6407371338     0.7685757800
   10      H      -1.7238114897    -0.8001372219     3.0136438567
   11      H       0.4907303152     0.5647610646     2.1326386816
   12      C       3.1833479289     1.2686989740    -2.5920250931
   13      H       4.0035904027     1.4578967199    -3.2464426388
 ----------------------------------------------------------------
 Nuclear Repulsion Energy =   228.3372327798 hartrees
 There are       25 alpha and       24 beta electrons
 Applying Cartesian multipole field
    Component          Value
    ---------          -----
     (2,0,0)        1.00000E-11
     (0,2,0)        2.00000E-11
     (0,0,2)       -3.00000E-11
 Nucleus-field energy     =    -0.0000000054 hartrees
 Requested basis set is 6-31G(d)
 There are 40 shells and 117 basis functions
 A cutoff of  1.0D-14 yielded    706 shell pairs
 There are      6245 function pairs
 Smallest overlap matrix eigenvalue = 7.32E-04
 Guess MOs from SCF MO coefficient file
 Reading MOs from coefficient file
 Reading MOs from coefficient file
 An unrestricted hybrid HF-DFT SCF calculation will be
 performed using Pulay DIIS extrapolation
 Exchange:     0.2000 Hartree-Fock + 0.0800 Slater + 0.7200 B88
 Correlation:  0.1900 VWN1RPA + 0.8100 LYP
 Using SG-1 standard quadrature grid
 SCF converges when DIIS error is below 1.0E-08
 Geometry optimization detected.  Setting ReadMinima to 0
 Setting SaveMinima to 0
Using Q-Chem read-in guess as SCF_GUESS READ specified.

 using 4 threads for integral computing
 -------------------------------------------------------
 OpenMP Integral computing Module                
 Release: version 1.0, May 2013, Q-Chem Inc. Pittsburgh 
 -------------------------------------------------------
 -------------------------------------------------------
 OpenMP BLAS3 based DFT computing Module                
 Release: version 1.0, May 2013, Q-Chem Inc. Pittsburgh 
 -------------------------------------------------------
 ---------------------------------------
  Cycle       Energy         DIIS Error
 ---------------------------------------
    1    -286.8428026608      7.84E-05
    2    -286.8436582794      1.18E-05
    3    -286.8436583551      1.36E-05
    4    -286.8436586726      3.30E-06
    5    -286.8436587024      1.38E-06
    6    -286.8436587194      8.45E-07
    7    -286.8436587292      4.16E-07
    8    -286.8436587366      2.37E-07
    9    -286.8436587396      2.07E-07
   10    -286.8436587411      4.48E-08
   11    -286.8436587412      4.67E-08
   12    -286.8436587412      1.56E-08
   13    -286.8436587412      6.84E-09 Convergence criterion met
 ---------------------------------------
 <S^2> = 0.7654
 SCF time:  CPU 27.41 s  wall 22.48 s
 SCF   energy in the final basis set = -286.84365874
 Total energy in the final basis set = -286.84365874
 
 --------------------------------------------------------------
 
                    Orbital Energies (a.u.)
 --------------------------------------------------------------
 
 Alpha MOs
 -- Occupied --
-14.331 -10.253 -10.253 -10.211 -10.210 -10.165 -10.161  -0.971
 -0.781  -0.734  -0.717  -0.582  -0.576  -0.540  -0.529  -0.462
 -0.429  -0.422  -0.415  -0.403  -0.286  -0.264  -0.257  -0.257
 -0.253
 -- Virtual --
  0.025   0.038   0.075   0.077   0.100   0.137   0.142   0.147
  0.153   0.200   0.222   0.236   0.302   0.349   0.452   0.466
  0.501   0.511   0.524   0.539   0.550   0.554   0.562   0.581
  0.583   0.606   0.652   0.652   0.669   0.676   0.688   0.777
  0.786   0.794   0.824   0.828   0.885   0.889   0.920   0.940
  0.960   1.053   1.105   1.113   1.242   1.257   1.312   1.343
  1.364   1.440   1.465   1.473   1.518   1.526   1.532   1.539
  1.575   1.575   1.579   1.676   1.775   1.935   1.968   1.968
  1.975   2.002   2.038   2.126   2.184   2.221   2.235   2.297
  2.370   2.463   2.512   2.514   2.517   2.579   2.601   2.617
  2.717   2.896   2.912   2.998   3.222   3.940   4.059   4.077
  4.180   4.311   4.368   4.429
 
 Beta MOs
 -- Occupied --
-14.334 -10.245 -10.245 -10.210 -10.209 -10.165 -10.161  -0.964
 -0.778  -0.717  -0.713  -0.576  -0.565  -0.539  -0.527  -0.462
 -0.425  -0.413  -0.397  -0.392  -0.287  -0.261  -0.257  -0.257
 -- Virtual --
 -0.145   0.056   0.066   0.076   0.077   0.103   0.137   0.147
  0.151   0.156   0.202   0.227   0.242   0.306   0.355   0.459
  0.466   0.502   0.532   0.534   0.542   0.551   0.554   0.588
  0.592   0.600   0.614   0.658   0.665   0.670   0.677   0.689
  0.778   0.792   0.795   0.819   0.830   0.889   0.894   0.923
  0.947   0.963   1.053   1.110   1.114   1.242   1.263   1.333
  1.363   1.376   1.440   1.468   1.479   1.524   1.527   1.532
  1.565   1.575   1.575   1.580   1.679   1.798   1.937   1.968
  1.968   1.984   2.005   2.043   2.151   2.199   2.234   2.268
  2.308   2.384   2.463   2.512   2.514   2.534   2.593   2.604
  2.625   2.720   2.899   2.915   3.001   3.222   3.939   4.067
  4.092   4.181   4.322   4.369   4.438
 --------------------------------------------------------------
 
          Ground-State Mulliken Net Atomic Charges

     Atom                 Charge (a.u.)    Spin (a.u.)
  --------------------------------------------------------
      1 C                    -0.110930      -0.000195
      2 C                     0.070397       0.533472
      3 C                    -0.153941       0.083389
      4 C                    -0.156344       0.078857
      5 C                     0.072105       0.535284
      6 N                    -0.413541      -0.167977
      7 H                     0.229492       0.001417
      8 H                     0.163754      -0.026249
      9 H                     0.152435      -0.005912
     10 H                     0.152460      -0.005767
     11 H                     0.163108      -0.026268
     12 C                    -0.342256      -0.000067
     13 H                     0.173260       0.000017
  --------------------------------------------------------
  Sum of atomic charges =     0.000000
  Sum of spin   charges =     1.000000

 -----------------------------------------------------------------
                    Cartesian Multipole Moments
 -----------------------------------------------------------------
    Charge (ESU x 10^10)
                 0.0000
    Dipole Moment (Debye)
         X      -2.2525      Y      -1.2436      Z       1.8155
       Tot       3.1490
    Quadrupole Moments (Debye-Ang)
        XX     -37.1436     XY       2.6651     YY     -42.2705
        XZ      -0.7123     YZ       0.7549     ZZ     -35.2202
    Octopole Moments (Debye-Ang^2)
       XXX      -0.0736    XXY      -4.0435    XYY      -5.8768
       YYY      -8.0344    XXZ     -12.9805    XYZ      -2.8242
       YYZ       2.4790    XZZ       5.3057    YZZ      -0.2543
       ZZZ      12.9092
    Hexadecapole Moments (Debye-Ang^3)
      XXXX    -793.3114   XXXY    -134.3391   XXYY    -174.0215
      XYYY    -196.2109   YYYY    -228.1522   XXXZ     211.5575
      XXYZ       3.3098   XYYZ      99.0591   YYYZ     136.2829
      XXZZ    -177.9405   XYZZ     -30.5257   YYZZ    -150.6409
      XZZZ     244.2080   YZZZ     109.5176   ZZZZ    -625.3438
 -----------------------------------------------------------------
 Calculating analytic gradient of the SCF energy
 Gradient of SCF Energy
            1           2           3           4           5           6
    1  -0.0000620   0.0000807  -0.0000465  -0.0005862  -0.0001906   0.0004952
    2   0.0003012   0.0000327  -0.0004640  -0.0000498  -0.0001976   0.0002509
    3   0.0002037   0.0002215   0.0004666   0.0000805  -0.0001252  -0.0001965
            7           8           9          10          11          12
    1  -0.0000147   0.0001415   0.0001053  -0.0001539   0.0002608   0.0000074
    2   0.0002237   0.0002566  -0.0000289   0.0000787  -0.0000618  -0.0001644
    3  -0.0003802  -0.0006108   0.0004623  -0.0002259   0.0001216  -0.0002269
           13
    1  -0.0000370
    2  -0.0001772
    3   0.0002093
 Max gradient component =       6.108E-04
 RMS gradient           =       2.592E-04
 Gradient time:  CPU 5.77 s  wall 5.24 s
 Geometry Optimization Parameters
   NAtoms,    NIC,     NZ,  NCons,   NDum,   NFix, NCnnct, MaxDiis
       13      81       0       0       0       0       0       0

 Cartesian Hessian Update
 Hessian Updated using BFGS Update


** GEOMETRY OPTIMIZATION IN CARTESIAN COORDINATES **
   Searching for a Minimum

   Optimization Cycle:   4

                       Coordinates (Angstroms)
     ATOM                X               Y               Z
      1  C         2.2580380981    1.0578446856   -1.8468363579
      2  C        -1.2593313341   -0.5652640341   -0.2531718580
      3  C        -2.0725424072   -1.0630428087    0.8517698633
      4  C        -1.4389281440   -0.6407319222    1.9821492316
      5  C        -0.2649919711    0.0880667940    1.5156337825
      6  N        -0.1805572550    0.1219301849    0.1708542134
      7  H         1.4377579323    0.8482212234   -1.1823391872
      8  H        -1.4496315752   -0.6975065256   -1.3144502742
      9  H        -2.9836705007   -1.6407371338    0.7685757800
     10  H        -1.7238114897   -0.8001372219    3.0136438567
     11  H         0.4907303152    0.5647610646    2.1326386816
     12  C         3.1833479289    1.2686989740   -2.5920250931
     13  H         4.0035904027    1.4578967199   -3.2464426388
   Point Group: c1    Number of degrees of freedom:    33


   Energy is   -286.843658741


 Translations and Rotations Projected Out of Hessian

  4 Hessian modes will be used to form the next step
  Hessian Eigenvalues:
     0.099950    1.098264    1.107748    2.941043

 Minimum Search - Taking Simple RFO Step
 Searching for Lamda that Minimizes Along All modes
 Value Taken    Lamda =  -0.00000508
 Step Taken.  Stepsize is  0.005740

                             Maximum     Tolerance    Cnvgd?
         Gradient           0.000611      0.000600      NO
         Displacement       0.002304      0.002400     YES
         Energy change     -0.000007      0.000002      NO

 ----------------------------------------------------------------
             Standard Nuclear Orientation (Angstroms)
    I     Atom           X                Y                Z
 ----------------------------------------------------------------
    1      C       2.2577844355     1.0569171145    -1.8473070168
    2      C      -1.2598326491    -0.5644840248    -0.2532052615
    3      C      -2.0727337054    -1.0628418282     0.8514515445
    4      C      -1.4388522801    -0.6406992530     1.9820546939
    5      C      -0.2642422929     0.0877312655     1.5157760150
    6      N      -0.1804719453     0.1220675282     0.1711669993
    7      H       1.4383383104     0.8479497926    -1.1817686931
    8      H      -1.4503259377    -0.6986472861    -1.3140734182
    9      H      -2.9840316953    -1.6407825710     0.7673565433
   10      H      -1.7232185710    -0.8001822305     3.0139065933
   11      H       0.4907738458     0.5655839579     2.1327811121
   12      C       3.1835932130     1.2692337642    -2.5915447618
   13      H       4.0032192724     1.4581537710    -3.2465943502
 ----------------------------------------------------------------
 Nuclear Repulsion Energy =   228.3282214104 hartrees
 There are       25 alpha and       24 beta electrons
 Applying Cartesian multipole field
    Component          Value
    ---------          -----
     (2,0,0)        1.00000E-11
     (0,2,0)        2.00000E-11
     (0,0,2)       -3.00000E-11
 Nucleus-field energy     =    -0.0000000054 hartrees
 Requested basis set is 6-31G(d)
 There are 40 shells and 117 basis functions
 A cutoff of  1.0D-14 yielded    706 shell pairs
 There are      6245 function pairs
 Smallest overlap matrix eigenvalue = 7.32E-04
 Guess MOs from SCF MO coefficient file
 Reading MOs from coefficient file
 Reading MOs from coefficient file
 An unrestricted hybrid HF-DFT SCF calculation will be
 performed using Pulay DIIS extrapolation
 Exchange:     0.2000 Hartree-Fock + 0.0800 Slater + 0.7200 B88
 Correlation:  0.1900 VWN1RPA + 0.8100 LYP
 Using SG-1 standard quadrature grid
 SCF converges when DIIS error is below 1.0E-08
 Geometry optimization detected.  Setting ReadMinima to 0
 Setting SaveMinima to 0
Using Q-Chem read-in guess as SCF_GUESS READ specified.

 using 4 threads for integral computing
 -------------------------------------------------------
 OpenMP Integral computing Module                
 Release: version 1.0, May 2013, Q-Chem Inc. Pittsburgh 
 -------------------------------------------------------
 -------------------------------------------------------
 OpenMP BLAS3 based DFT computing Module                
 Release: version 1.0, May 2013, Q-Chem Inc. Pittsburgh 
 -------------------------------------------------------
 ---------------------------------------
  Cycle       Energy         DIIS Error
 ---------------------------------------
    1    -286.8433934445      5.31E-05
    2    -286.8436623023      5.99E-06
    3    -286.8436623023      8.71E-06
    4    -286.8436624438      1.56E-06
    5    -286.8436624537      8.25E-07
    6    -286.8436624600      3.32E-07
    7    -286.8436624646      1.73E-07
    8    -286.8436624664      1.36E-07
    9    -286.8436624673      9.07E-08
   10    -286.8436624675      2.63E-08
   11    -286.8436624675      2.11E-08
   12    -286.8436624675      1.19E-08
   13    -286.8436624675      4.18E-09 Convergence criterion met
 ---------------------------------------
 <S^2> = 0.7654
 SCF time:  CPU 27.49 s  wall 34.53 s
 SCF   energy in the final basis set = -286.84366247
 Total energy in the final basis set = -286.84366247
 
 --------------------------------------------------------------
 
                    Orbital Energies (a.u.)
 --------------------------------------------------------------
 
 Alpha MOs
 -- Occupied --
-14.331 -10.253 -10.253 -10.211 -10.210 -10.165 -10.161  -0.971
 -0.781  -0.734  -0.717  -0.582  -0.576  -0.540  -0.529  -0.462
 -0.429  -0.422  -0.415  -0.403  -0.286  -0.264  -0.257  -0.257
 -0.253
 -- Virtual --
  0.025   0.038   0.075   0.077   0.100   0.137   0.142   0.147
  0.153   0.200   0.222   0.236   0.302   0.348   0.452   0.466
  0.501   0.511   0.524   0.539   0.550   0.554   0.562   0.581
  0.583   0.605   0.651   0.652   0.669   0.676   0.688   0.777
  0.786   0.794   0.824   0.828   0.885   0.889   0.920   0.940
  0.960   1.053   1.105   1.114   1.242   1.256   1.312   1.343
  1.364   1.440   1.466   1.473   1.518   1.527   1.532   1.539
  1.575   1.575   1.578   1.676   1.775   1.934   1.968   1.968
  1.975   2.002   2.038   2.126   2.184   2.221   2.234   2.297
  2.370   2.463   2.512   2.513   2.517   2.579   2.600   2.617
  2.717   2.896   2.912   2.998   3.222   3.940   4.059   4.077
  4.180   4.311   4.369   4.429
 
 Beta MOs
 -- Occupied --
-14.334 -10.245 -10.245 -10.210 -10.209 -10.165 -10.161  -0.964
 -0.778  -0.717  -0.713  -0.576  -0.565  -0.539  -0.527  -0.462
 -0.425  -0.413  -0.397  -0.392  -0.287  -0.261  -0.257  -0.257
 -- Virtual --
 -0.145   0.056   0.066   0.076   0.077   0.103   0.137   0.147
  0.151   0.156   0.202   0.227   0.242   0.307   0.354   0.459
  0.466   0.502   0.532   0.534   0.542   0.551   0.554   0.588
  0.592   0.600   0.614   0.658   0.665   0.670   0.677   0.689
  0.778   0.792   0.795   0.819   0.830   0.889   0.894   0.923
  0.947   0.963   1.054   1.110   1.115   1.242   1.263   1.333
  1.363   1.376   1.440   1.468   1.478   1.525   1.528   1.532
  1.565   1.575   1.575   1.578   1.678   1.798   1.937   1.968
  1.968   1.984   2.004   2.043   2.151   2.199   2.234   2.268
  2.308   2.384   2.463   2.512   2.513   2.534   2.594   2.604
  2.625   2.719   2.899   2.915   3.000   3.222   3.939   4.067
  4.092   4.181   4.322   4.369   4.438
 --------------------------------------------------------------
 
          Ground-State Mulliken Net Atomic Charges

     Atom                 Charge (a.u.)    Spin (a.u.)
  --------------------------------------------------------
      1 C                    -0.110922      -0.000195
      2 C                     0.070489       0.534074
      3 C                    -0.153980       0.082063
      4 C                    -0.156483       0.080202
      5 C                     0.072227       0.534682
      6 N                    -0.413680      -0.167997
      7 H                     0.229462       0.001417
      8 H                     0.163794      -0.026267
      9 H                     0.152453      -0.005859
     10 H                     0.152440      -0.005826
     11 H                     0.163176      -0.026242
     12 C                    -0.342200      -0.000067
     13 H                     0.173225       0.000017
  --------------------------------------------------------
  Sum of atomic charges =    -0.000000
  Sum of spin   charges =     1.000000

 -----------------------------------------------------------------
                    Cartesian Multipole Moments
 -----------------------------------------------------------------
    Charge (ESU x 10^10)
                -0.0000
    Dipole Moment (Debye)
         X      -2.2517      Y      -1.2433      Z       1.8153
       Tot       3.1482
    Quadrupole Moments (Debye-Ang)
        XX     -37.1492     XY       2.6665     YY     -42.2697
        XZ      -0.7053     YZ       0.7590     ZZ     -35.2176
    Octopole Moments (Debye-Ang^2)
       XXX      -0.0852    XXY      -4.0462    XYY      -5.8743
       YYY      -8.0349    XXZ     -12.9957    XYZ      -2.8358
       YYZ       2.4708    XZZ       5.3192    YZZ      -0.2457
       ZZZ      12.9033
    Hexadecapole Moments (Debye-Ang^3)
      XXXX    -793.5268   XXXY    -134.3405   XXYY    -174.0193
      XYYY    -196.1965   YYYY    -228.1047   XXXZ     211.6190
      XXYZ       3.3300   XYYZ      99.0527   YYYZ     136.2741
      XXZZ    -177.9808   XYZZ     -30.5134   YYZZ    -150.6114
      XZZZ     244.1557   YZZZ     109.4951   ZZZZ    -625.2431
 -----------------------------------------------------------------
 Calculating analytic gradient of the SCF energy
 Gradient of SCF Energy
            1           2           3           4           5           6
    1  -0.0002713  -0.0000244   0.0000182  -0.0005382   0.0001500   0.0004355
    2   0.0001868   0.0002308  -0.0005233   0.0000980  -0.0002308   0.0002046
    3   0.0002467  -0.0000389   0.0002694   0.0000206   0.0000090  -0.0000011
            7           8           9          10          11          12
    1   0.0000848   0.0000572  -0.0000911  -0.0001462   0.0002410   0.0002096
    2   0.0002790   0.0001103  -0.0001751   0.0000874   0.0000130  -0.0000734
    3  -0.0003869  -0.0004899   0.0003600  -0.0000711   0.0001300  -0.0003115
           13
    1  -0.0001250
    2  -0.0002073
    3   0.0002637
 Max gradient component =       5.382E-04
 RMS gradient           =       2.386E-04
 Gradient time:  CPU 5.61 s  wall 3.66 s
 Geometry Optimization Parameters
   NAtoms,    NIC,     NZ,  NCons,   NDum,   NFix, NCnnct, MaxDiis
       13      81       0       0       0       0       0       0

 Cartesian Hessian Update
 Hessian Updated using BFGS Update


** GEOMETRY OPTIMIZATION IN CARTESIAN COORDINATES **
   Searching for a Minimum

   Optimization Cycle:   5

                       Coordinates (Angstroms)
     ATOM                X               Y               Z
      1  C         2.2577844355    1.0569171145   -1.8473070168
      2  C        -1.2598326491   -0.5644840248   -0.2532052615
      3  C        -2.0727337054   -1.0628418282    0.8514515445
      4  C        -1.4388522801   -0.6406992530    1.9820546939
      5  C        -0.2642422929    0.0877312655    1.5157760150
      6  N        -0.1804719453    0.1220675282    0.1711669993
      7  H         1.4383383104    0.8479497926   -1.1817686931
      8  H        -1.4503259377   -0.6986472861   -1.3140734182
      9  H        -2.9840316953   -1.6407825710    0.7673565433
     10  H        -1.7232185710   -0.8001822305    3.0139065933
     11  H         0.4907738458    0.5655839579    2.1327811121
     12  C         3.1835932130    1.2692337642   -2.5915447618
     13  H         4.0032192724    1.4581537710   -3.2465943502
   Point Group: c1    Number of degrees of freedom:    33


   Energy is   -286.843662468


 Translations and Rotations Projected Out of Hessian

  5 Hessian modes will be used to form the next step
  Hessian Eigenvalues:
     0.071925    0.733022    1.038085    1.184216    2.945690

 Minimum Search - Taking Simple RFO Step
 Searching for Lamda that Minimizes Along All modes
 Value Taken    Lamda =  -0.00000475
 Step Taken.  Stepsize is  0.006148

                             Maximum     Tolerance    Cnvgd?
         Gradient           0.000538      0.000600     YES
         Displacement       0.002648      0.002400      NO
         Energy change     -0.000004      0.000002      NO

 ----------------------------------------------------------------
             Standard Nuclear Orientation (Angstroms)
    I     Atom           X                Y                Z
 ----------------------------------------------------------------
    1      C       2.2575803101     1.0558716769    -1.8477891004
    2      C      -1.2602825502    -0.5639295182    -0.2531502081
    3      C      -2.0729625426    -1.0622926560     0.8510293457
    4      C      -1.4384477186    -0.6407784440     1.9819766703
    5      C      -0.2636933303     0.0875688939     1.5158793464
    6      N      -0.1806462599     0.1220881022     0.1714126260
    7      H       1.4388578029     0.8474921153    -1.1809816611
    8      H      -1.4510204261    -0.6997988641    -1.3134131528
    9      H      -2.9842624262    -1.6406660726     0.7659551128
   10      H      -1.7225381090    -0.8002841833     3.0141603208
   11      H       0.4906614385     0.5663617577     2.1328294373
   12      C       3.1838310078     1.2698248431    -2.5910034030
   13      H       4.0029228038     1.4585423492    -3.2469053338
 ----------------------------------------------------------------
 Nuclear Repulsion Energy =   228.3315277369 hartrees
 There are       25 alpha and       24 beta electrons
 Applying Cartesian multipole field
    Component          Value
    ---------          -----
     (2,0,0)        1.00000E-11
     (0,2,0)        2.00000E-11
     (0,0,2)       -3.00000E-11
 Nucleus-field energy     =    -0.0000000054 hartrees
 Requested basis set is 6-31G(d)
 There are 40 shells and 117 basis functions
 A cutoff of  1.0D-14 yielded    706 shell pairs
 There are      6245 function pairs
 Smallest overlap matrix eigenvalue = 7.32E-04
 Guess MOs from SCF MO coefficient file
 Reading MOs from coefficient file
 Reading MOs from coefficient file
 An unrestricted hybrid HF-DFT SCF calculation will be
 performed using Pulay DIIS extrapolation
 Exchange:     0.2000 Hartree-Fock + 0.0800 Slater + 0.7200 B88
 Correlation:  0.1900 VWN1RPA + 0.8100 LYP
 Using SG-1 standard quadrature grid
 SCF converges when DIIS error is below 1.0E-08
 Geometry optimization detected.  Setting ReadMinima to 0
 Setting SaveMinima to 0
Using Q-Chem read-in guess as SCF_GUESS READ specified.

 using 4 threads for integral computing
 -------------------------------------------------------
 OpenMP Integral computing Module                
 Release: version 1.0, May 2013, Q-Chem Inc. Pittsburgh 
 -------------------------------------------------------
 -------------------------------------------------------
 OpenMP BLAS3 based DFT computing Module                
 Release: version 1.0, May 2013, Q-Chem Inc. Pittsburgh 
 -------------------------------------------------------
 ---------------------------------------
  Cycle       Energy         DIIS Error
 ---------------------------------------
    1    -286.8436858729      5.65E-05
    2    -286.8436656286      7.78E-06
    3    -286.8436655641      1.11E-05
    4    -286.8436658022      1.94E-06
    5    -286.8436658107      1.07E-06
    6    -286.8436658154      3.11E-07
    7    -286.8436658171      3.23E-07
    8    -286.8436658185      1.20E-07
    9    -286.8436658193      6.83E-08
   10    -286.8436658195      4.71E-08
   11    -286.8436658195      1.56E-08
   12    -286.8436658196      6.78E-09 Convergence criterion met
 ---------------------------------------
 <S^2> = 0.7654
 SCF time:  CPU 25.35 s  wall 28.71 s
 SCF   energy in the final basis set = -286.84366582
 Total energy in the final basis set = -286.84366582
 
 --------------------------------------------------------------
 
                    Orbital Energies (a.u.)
 --------------------------------------------------------------
 
 Alpha MOs
 -- Occupied --
-14.331 -10.253 -10.253 -10.211 -10.210 -10.165 -10.161  -0.971
 -0.781  -0.734  -0.717  -0.582  -0.576  -0.540  -0.529  -0.462
 -0.429  -0.422  -0.415  -0.403  -0.286  -0.264  -0.257  -0.257
 -0.253
 -- Virtual --
  0.025   0.038   0.075   0.077   0.100   0.137   0.142   0.147
  0.153   0.200   0.222   0.236   0.302   0.348   0.452   0.466
  0.501   0.511   0.524   0.540   0.550   0.554   0.562   0.581
  0.583   0.605   0.651   0.652   0.669   0.676   0.688   0.777
  0.786   0.794   0.824   0.828   0.885   0.889   0.920   0.940
  0.960   1.053   1.105   1.114   1.242   1.256   1.312   1.343
  1.364   1.440   1.466   1.472   1.518   1.528   1.532   1.539
  1.575   1.575   1.577   1.675   1.775   1.934   1.968   1.968
  1.976   2.001   2.038   2.126   2.184   2.221   2.234   2.296
  2.370   2.463   2.512   2.513   2.517   2.579   2.600   2.617
  2.717   2.897   2.912   2.998   3.222   3.940   4.059   4.077
  4.180   4.311   4.368   4.429
 
 Beta MOs
 -- Occupied --
-14.334 -10.245 -10.245 -10.210 -10.209 -10.165 -10.161  -0.964
 -0.778  -0.717  -0.713  -0.576  -0.565  -0.539  -0.527  -0.462
 -0.426  -0.413  -0.397  -0.392  -0.287  -0.261  -0.257  -0.257
 -- Virtual --
 -0.145   0.056   0.066   0.076   0.077   0.103   0.137   0.147
  0.151   0.156   0.202   0.227   0.242   0.307   0.354   0.459
  0.466   0.502   0.532   0.534   0.543   0.551   0.554   0.588
  0.592   0.600   0.613   0.657   0.665   0.670   0.677   0.689
  0.778   0.792   0.795   0.819   0.830   0.889   0.894   0.923
  0.947   0.963   1.053   1.110   1.115   1.242   1.262   1.333
  1.363   1.376   1.440   1.468   1.478   1.526   1.529   1.532
  1.565   1.575   1.575   1.577   1.678   1.798   1.937   1.968
  1.968   1.984   2.004   2.043   2.152   2.199   2.234   2.268
  2.308   2.384   2.463   2.512   2.513   2.534   2.594   2.604
  2.625   2.719   2.900   2.915   3.000   3.222   3.939   4.067
  4.092   4.181   4.322   4.369   4.438
 --------------------------------------------------------------
 
          Ground-State Mulliken Net Atomic Charges

     Atom                 Charge (a.u.)    Spin (a.u.)
  --------------------------------------------------------
      1 C                    -0.111044      -0.000195
      2 C                     0.070717       0.534227
      3 C                    -0.154033       0.081197
      4 C                    -0.156668       0.081247
      5 C                     0.072392       0.534257
      6 N                    -0.413882      -0.167921
      7 H                     0.229527       0.001415
      8 H                     0.163814      -0.026262
      9 H                     0.152454      -0.005824
     10 H                     0.152416      -0.005871
     11 H                     0.163248      -0.026220
     12 C                    -0.342184      -0.000067
     13 H                     0.173244       0.000017
  --------------------------------------------------------
  Sum of atomic charges =    -0.000000
  Sum of spin   charges =     1.000000

 -----------------------------------------------------------------
                    Cartesian Multipole Moments
 -----------------------------------------------------------------
    Charge (ESU x 10^10)
                 0.0000
    Dipole Moment (Debye)
         X      -2.2511      Y      -1.2431      Z       1.8153
       Tot       3.1477
    Quadrupole Moments (Debye-Ang)
        XX     -37.1557     XY       2.6674     YY     -42.2679
        XZ      -0.6976     YZ       0.7636     ZZ     -35.2156
    Octopole Moments (Debye-Ang^2)
       XXX      -0.0993    XXY      -4.0463    XYY      -5.8719
       YYY      -8.0374    XXZ     -13.0134    XYZ      -2.8507
       YYZ       2.4623    XZZ       5.3364    YZZ      -0.2341
       ZZZ      12.8956
    Hexadecapole Moments (Debye-Ang^3)
      XXXX    -793.7503   XXXY    -134.3362   XXYY    -174.0121
      XYYY    -196.1720   YYYY    -228.0382   XXXZ     211.6816
      XXYZ       3.3428   XYYZ      99.0430   YYYZ     136.2594
      XXZZ    -178.0072   XYZZ     -30.4912   YYZZ    -150.5732
      XZZZ     244.0880   YZZZ     109.4577   ZZZZ    -625.1157
 -----------------------------------------------------------------
 Calculating analytic gradient of the SCF energy
 Gradient of SCF Energy
            1           2           3           4           5           6
    1  -0.0002540  -0.0000934   0.0000945  -0.0002513   0.0004050   0.0001818
    2   0.0001230   0.0003337  -0.0004424   0.0002664  -0.0002076   0.0000415
    3   0.0000977  -0.0002565  -0.0001377  -0.0000145   0.0001431   0.0002142
            7           8           9          10          11          12
    1   0.0000558  -0.0000029  -0.0002565  -0.0001594   0.0001755   0.0001892
    2   0.0003038   0.0000049  -0.0003152   0.0000939   0.0000365  -0.0000298
    3  -0.0002827  -0.0002270   0.0002416   0.0001026   0.0001176  -0.0002116
           13
    1  -0.0000843
    2  -0.0002087
    3   0.0002132
 Max gradient component =       4.424E-04
 RMS gradient           =       2.063E-04
 Gradient time:  CPU 5.79 s  wall 4.10 s
 Geometry Optimization Parameters
   NAtoms,    NIC,     NZ,  NCons,   NDum,   NFix, NCnnct, MaxDiis
       13      81       0       0       0       0       0       0

 Cartesian Hessian Update
 Hessian Updated using BFGS Update


** GEOMETRY OPTIMIZATION IN CARTESIAN COORDINATES **
   Searching for a Minimum

   Optimization Cycle:   6

                       Coordinates (Angstroms)
     ATOM                X               Y               Z
      1  C         2.2575803101    1.0558716769   -1.8477891004
      2  C        -1.2602825502   -0.5639295182   -0.2531502081
      3  C        -2.0729625426   -1.0622926560    0.8510293457
      4  C        -1.4384477186   -0.6407784440    1.9819766703
      5  C        -0.2636933303    0.0875688939    1.5158793464
      6  N        -0.1806462599    0.1220881022    0.1714126260
      7  H         1.4388578029    0.8474921153   -1.1809816611
      8  H        -1.4510204261   -0.6997988641   -1.3134131528
      9  H        -2.9842624262   -1.6406660726    0.7659551128
     10  H        -1.7225381090   -0.8002841833    3.0141603208
     11  H         0.4906614385    0.5663617577    2.1328294373
     12  C         3.1838310078    1.2698248431   -2.5910034030
     13  H         4.0029228038    1.4585423492   -3.2469053338
   Point Group: c1    Number of degrees of freedom:    33


   Energy is   -286.843665820


 Translations and Rotations Projected Out of Hessian

  6 Hessian modes will be used to form the next step
  Hessian Eigenvalues:
     0.057799    0.480148    1.003277    1.062589    1.321789    2.869502

 Minimum Search - Taking Simple RFO Step
 Searching for Lamda that Minimizes Along All modes
 Value Taken    Lamda =  -0.00000364
 Step Taken.  Stepsize is  0.005440

                             Maximum     Tolerance    Cnvgd?
         Gradient           0.000442      0.000600     YES
         Displacement       0.002371      0.002400     YES
         Energy change     -0.000003      0.000002      NO


                       Distance Matrix (Angstroms)
             C (  1)   C (  2)   C (  3)   C (  4)   C (  5)   N (  6)
   C (  2)  4.188316
   C (  3)  5.524839  1.458776
   C (  4)  5.586264  2.243533  1.363571
   C (  5)  4.313780  2.132394  2.244474  1.458693
   N (  6)  3.300618  1.347772  2.333559  2.332846  1.347471
   H (  7)  1.076272  3.184076  4.484331  4.527487  3.278601  2.231138
   H (  8)  4.137832  1.085817  2.281014  3.295942  3.167742  2.119919
   H (  9)  6.448247  2.273773  1.082692  2.206361  3.309181  3.364676
   H ( 10)  6.551733  3.308302  2.206939  1.082383  2.271862  3.362947
   H ( 11)  4.382573  3.168006  3.296619  2.280659  1.085781  2.120186
   C ( 12)  1.206683  5.345873  6.702256  6.777021  5.490869  4.501994
   H ( 13)  2.272860  6.383909  7.750101  7.833062  6.539702  5.565362
             H (  7)   H (  8)   H (  9)   H ( 10)   H ( 11)   C ( 12)
   H (  8)  3.280708
   H (  9)  5.435576  2.749515
   H ( 10)  5.505344  4.337247  2.711571
   H ( 11)  3.458244  4.153297  4.337558  2.746401
   C ( 12)  2.282862  5.195527  7.601678  7.731473  5.482939
   H ( 13)  3.349008  6.175947  8.633012  8.779758  6.486410  1.066177

 
 Final energy is   -286.843665819561     


 ******************************
 **  OPTIMIZATION CONVERGED  **
 ******************************

                       Coordinates (Angstroms)
     ATOM                X               Y               Z
      1  C         2.2575803101    1.0558716769   -1.8477891004
      2  C        -1.2602825502   -0.5639295182   -0.2531502081
      3  C        -2.0729625426   -1.0622926560    0.8510293457
      4  C        -1.4384477186   -0.6407784440    1.9819766703
      5  C        -0.2636933303    0.0875688939    1.5158793464
      6  N        -0.1806462599    0.1220881022    0.1714126260
      7  H         1.4388578029    0.8474921153   -1.1809816611
      8  H        -1.4510204261   -0.6997988641   -1.3134131528
      9  H        -2.9842624262   -1.6406660726    0.7659551128
     10  H        -1.7225381090   -0.8002841833    3.0141603208
     11  H         0.4906614385    0.5663617577    2.1328294373
     12  C         3.1838310078    1.2698248431   -2.5910034030
     13  H         4.0029228038    1.4585423492   -3.2469053338

Z-matrix Print:
$molecule
0 2
N 
C  1 1.347471
H  2 1.085781 1 120.852230
C  1 1.347772 2 104.589898 3 179.751413 0
H  4 1.085817 1 120.797440 2 -179.916096 0
C  2 1.458693 1 112.410802 3 -179.960268 0
H  6 1.082383 2 126.133656 1 -179.736968 0
C  6 1.363571 2 105.312684 1 0.377677 0
H  8 1.082692 6 128.460614 2 179.754747 0
H  1 2.231138 2 131.136822 3 7.776091 0
C  10 1.076272 1 172.160981 2 100.263920 0
C  11 1.206683 10 178.964387 1 -18.515931 0
H  12 1.066177 11 179.941567 10 -49.120949 0
$end

 
 --------------------------------------------------------------
 
                    Orbital Energies (a.u.)
 --------------------------------------------------------------
 
 Alpha MOs
 -- Occupied --
-14.331 -10.253 -10.253 -10.211 -10.210 -10.165 -10.161  -0.971
 -0.781  -0.734  -0.717  -0.582  -0.576  -0.540  -0.529  -0.462
 -0.429  -0.422  -0.415  -0.403  -0.286  -0.264  -0.257  -0.257
 -0.253
 -- Virtual --
  0.025   0.038   0.075   0.077   0.100   0.137   0.142   0.147
  0.153   0.200   0.222   0.236   0.302   0.348   0.452   0.466
  0.501   0.511   0.524   0.540   0.550   0.554   0.562   0.581
  0.583   0.605   0.651   0.652   0.669   0.676   0.688   0.777
  0.786   0.794   0.824   0.828   0.885   0.889   0.920   0.940
  0.960   1.053   1.105   1.114   1.242   1.256   1.312   1.343
  1.364   1.440   1.466   1.472   1.518   1.528   1.532   1.539
  1.575   1.575   1.577   1.675   1.775   1.934   1.968   1.968
  1.976   2.001   2.038   2.126   2.184   2.221   2.234   2.296
  2.370   2.463   2.512   2.513   2.517   2.579   2.600   2.617
  2.717   2.897   2.912   2.998   3.222   3.940   4.059   4.077
  4.180   4.311   4.368   4.429
 
 Beta MOs
 -- Occupied --
-14.334 -10.245 -10.245 -10.210 -10.209 -10.165 -10.161  -0.964
 -0.778  -0.717  -0.713  -0.576  -0.565  -0.539  -0.527  -0.462
 -0.426  -0.413  -0.397  -0.392  -0.287  -0.261  -0.257  -0.257
 -- Virtual --
 -0.145   0.056   0.066   0.076   0.077   0.103   0.137   0.147
  0.151   0.156   0.202   0.227   0.242   0.307   0.354   0.459
  0.466   0.502   0.532   0.534   0.543   0.551   0.554   0.588
  0.592   0.600   0.613   0.657   0.665   0.670   0.677   0.689
  0.778   0.792   0.795   0.819   0.830   0.889   0.894   0.923
  0.947   0.963   1.053   1.110   1.115   1.242   1.262   1.333
  1.363   1.376   1.440   1.468   1.478   1.526   1.529   1.532
  1.565   1.575   1.575   1.577   1.678   1.798   1.937   1.968
  1.968   1.984   2.004   2.043   2.152   2.199   2.234   2.268
  2.308   2.384   2.463   2.512   2.513   2.534   2.594   2.604
  2.625   2.719   2.900   2.915   3.000   3.222   3.939   4.067
  4.092   4.181   4.322   4.369   4.438
 --------------------------------------------------------------
 
          Ground-State Mulliken Net Atomic Charges

     Atom                 Charge (a.u.)    Spin (a.u.)
  --------------------------------------------------------
      1 C                    -0.111044      -0.000195
      2 C                     0.070717       0.534227
      3 C                    -0.154033       0.081197
      4 C                    -0.156668       0.081247
      5 C                     0.072392       0.534257
      6 N                    -0.413882      -0.167921
      7 H                     0.229527       0.001415
      8 H                     0.163814      -0.026262
      9 H                     0.152454      -0.005824
     10 H                     0.152416      -0.005871
     11 H                     0.163248      -0.026220
     12 C                    -0.342184      -0.000067
     13 H                     0.173244       0.000017
  --------------------------------------------------------
  Sum of atomic charges =    -0.000000
  Sum of spin   charges =     1.000000

 -----------------------------------------------------------------
                    Cartesian Multipole Moments
 -----------------------------------------------------------------
    Charge (ESU x 10^10)
                 0.0000
    Dipole Moment (Debye)
         X      -2.2511      Y      -1.2431      Z       1.8153
       Tot       3.1477
    Quadrupole Moments (Debye-Ang)
        XX     -37.1557     XY       2.6674     YY     -42.2679
        XZ      -0.6976     YZ       0.7636     ZZ     -35.2156
    Octopole Moments (Debye-Ang^2)
       XXX      -0.0993    XXY      -4.0463    XYY      -5.8719
       YYY      -8.0374    XXZ     -13.0134    XYZ      -2.8507
       YYZ       2.4623    XZZ       5.3364    YZZ      -0.2341
       ZZZ      12.8956
    Hexadecapole Moments (Debye-Ang^3)
      XXXX    -793.7503   XXXY    -134.3362   XXYY    -174.0121
      XYYY    -196.1720   YYYY    -228.0382   XXXZ     211.6816
      XXYZ       3.3428   XYYZ      99.0430   YYYZ     136.2594
      XXZZ    -178.0072   XYZZ     -30.4912   YYZZ    -150.5732
      XZZZ     244.0880   YZZZ     109.4577   ZZZZ    -625.1157
 -----------------------------------------------------------------
Archival summary:
1\1\c8-73\OPT\ProcedureUnspecified\6-31G*\166(2)\hpark21\TueMar106:03:092022TueMar106:03:092022\0\\#,OPT,ProcedureUnspecified,6-31G*,\\0,2\N\C,1,1.34747\H,2,1.08578,1,120.852\C,1,1.34777,2,104.59,3,179.751,0\H,4,1.08582,1,120.797,2,-179.916,0\C,2,1.45869,1,112.411,3,-179.96,0\H,6,1.08238,2,126.134,1,-179.737,0\C,6,1.36357,2,105.313,1,0.377677,0\H,8,1.08269,6,128.461,2,179.755,0\H,1,2.23114,2,131.137,3,7.77609,0\C,10,1.07627,1,172.161,2,100.264,0\C,11,1.20668,10,178.964,1,-18.5159,0\H,12,1.06618,11,179.942,10,-49.1209,0\\\@

 Total job time:  221.25s(wall), 181.95s(cpu) 
 Tue Mar  1 06:03:09 2022

        *************************************************************
        *                                                           *
        *  Thank you very much for using Q-Chem.  Have a nice day.  *
        *                                                           *
        *************************************************************


