13   
From optimize.out: Frame 1 / 6, Energy=    -286.8436405762
C       -0.1119210000   -0.0001920000   -0.0000000000
C        0.0709820000    0.5307660000   -0.0000000000
C       -0.1542200000    0.0879130000    0.0000000000
C       -0.1564650000    0.0746710000    0.0000000000
C        0.0723740000    0.5372080000    0.0000000000
N       -0.4137750000   -0.1676360000    0.0000000000
H        0.2297290000    0.0014110000   -0.0000000000
H        0.1637510000   -0.0261030000   -0.0000000000
H        0.1523040000   -0.0060980000    0.0000000000
H        0.1524460000   -0.0055840000    0.0000000000
H        0.1631020000   -0.0263050000    0.0000000000
C       -0.3417500000   -0.0000670000   -0.0000000000
H        0.1734430000    0.0000170000   -0.0000000000
13   
From optimize.out: Frame 2 / 6, Energy=    -286.8436444277
C       -0.1112950000   -0.0001930000   -0.0000000000
C        0.0708230000    0.5311860000   -0.0000000000
C       -0.1541340000    0.0872000000    0.0000000000
C       -0.1563950000    0.0753530000    0.0000000000
C        0.0722710000    0.5368800000    0.0000000000
N       -0.4136530000   -0.1676670000    0.0000000000
H        0.2298230000    0.0014110000   -0.0000000000
H        0.1637240000   -0.0261330000   -0.0000000000
H        0.1523320000   -0.0060690000    0.0000000000
H        0.1524570000   -0.0056140000    0.0000000000
H        0.1630720000   -0.0263040000    0.0000000000
C       -0.3424780000   -0.0000670000   -0.0000000000
H        0.1734530000    0.0000160000   -0.0000000000
13   
From optimize.out: Frame 3 / 6, Energy=    -286.8436520295
C       -0.1111260000   -0.0001940000   -0.0000000000
C        0.0705410000    0.5321180000   -0.0000000000
C       -0.1539930000    0.0856460000    0.0000000000
C       -0.1562990000    0.0768040000    0.0000000000
C        0.0721070000    0.5362010000    0.0000000000
N       -0.4134910000   -0.1677680000    0.0000000000
H        0.2296540000    0.0014130000   -0.0000000000
H        0.1636940000   -0.0261910000   -0.0000000000
H        0.1523850000   -0.0060050000    0.0000000000
H        0.1524700000   -0.0056770000    0.0000000000
H        0.1630400000   -0.0262970000    0.0000000000
C       -0.3423490000   -0.0000670000   -0.0000000000
H        0.1733660000    0.0000170000   -0.0000000000
13   
From optimize.out: Frame 4 / 6, Energy=    -286.8436587412
C       -0.1109300000   -0.0001950000   -0.0000000000
C        0.0703970000    0.5334720000   -0.0000000000
C       -0.1539410000    0.0833890000    0.0000000000
C       -0.1563440000    0.0788570000    0.0000000000
C        0.0721050000    0.5352840000    0.0000000000
N       -0.4135410000   -0.1679770000    0.0000000000
H        0.2294920000    0.0014170000   -0.0000000000
H        0.1637540000   -0.0262490000   -0.0000000000
H        0.1524350000   -0.0059120000    0.0000000000
H        0.1524600000   -0.0057670000    0.0000000000
H        0.1631080000   -0.0262680000    0.0000000000
C       -0.3422560000   -0.0000670000   -0.0000000000
H        0.1732600000    0.0000170000   -0.0000000000
13   
From optimize.out: Frame 5 / 6, Energy=    -286.8436624675
C       -0.1109220000   -0.0001950000   -0.0000000000
C        0.0704890000    0.5340740000   -0.0000000000
C       -0.1539800000    0.0820630000    0.0000000000
C       -0.1564830000    0.0802020000    0.0000000000
C        0.0722270000    0.5346820000    0.0000000000
N       -0.4136800000   -0.1679970000    0.0000000000
H        0.2294620000    0.0014170000   -0.0000000000
H        0.1637940000   -0.0262670000   -0.0000000000
H        0.1524530000   -0.0058590000    0.0000000000
H        0.1524400000   -0.0058260000    0.0000000000
H        0.1631760000   -0.0262420000    0.0000000000
C       -0.3422000000   -0.0000670000   -0.0000000000
H        0.1732250000    0.0000170000   -0.0000000000
