13   
From optimize.out: Frame 1 / 6, Energy=    -286.8436405762
C        2.2584288351    1.0597600824   -1.8455223180
C       -1.2580442138   -0.5676774256   -0.2536794732
C       -2.0718684429   -1.0625265242    0.8515765020
C       -1.4377198753   -0.6406995989    1.9822560023
C       -0.2667130182    0.0895782587    1.5155514022
N       -0.1820218247    0.1209062931    0.1704075197
H        1.4361456963    0.8485105028   -1.1831911370
H       -1.4479014462   -0.6947308190   -1.3140468850
H       -2.9828470110   -1.6405364081    0.7710972583
H       -1.7252001694   -0.8001890932    3.0134168747
H        0.4899452783    0.5624480991    2.1318997399
C        3.1831116185    1.2676206499   -2.5933326195
H        4.0046845735    1.4575359831   -3.2464328665
13   
From optimize.out: Frame 2 / 6, Energy=    -286.8436444277
C        2.2587778127    1.0595927315   -1.8460361508
C       -1.2582121323   -0.5672891183   -0.2534388995
C       -2.0719566572   -1.0626409481    0.8516897709
C       -1.4379882026   -0.6407234648    1.9822187287
C       -0.2665602418    0.0892689711    1.5154796739
N       -0.1817216647    0.1211046545    0.1704359782
H        1.4363256649    0.8484699058   -1.1830451599
H       -1.4481620499   -0.6951370751   -1.3142537849
H       -2.9829582040   -1.6405654418    0.7707582836
H       -1.7250003393   -0.8001734444    3.0134188018
H        0.4901425012    0.5628283351    2.1320597568
C        3.1827256878    1.2676729064   -2.5928143629
H        4.0045878252    1.4575919883   -3.2464726359
13   
From optimize.out: Frame 3 / 6, Energy=    -286.8436520295
C        2.2584399768    1.0589413556   -1.8462891189
C       -1.2586147982   -0.5664585050   -0.2531048501
C       -2.0721727414   -1.0628661070    0.8518537908
C       -1.4384975909   -0.6407557176    1.9821671631
C       -0.2660940236    0.0886791807    1.5154227107
N       -0.1811358194    0.1214996452    0.1705388254
H        1.4369050341    0.8484098757   -1.1828386291
H       -1.4487347654   -0.6960437220   -1.3145507433
H       -2.9832155867   -1.6406310467    0.7699714119
H       -1.7245503007   -0.8001457007    3.0134537126
H        0.4904895501    0.5636292499    2.1323573402
C        3.1830053579    1.2680593924   -2.5925643769
H        4.0041757077    1.4576820996   -3.2464172366
13   
From optimize.out: Frame 4 / 6, Energy=    -286.8436587412
C        2.2580380981    1.0578446856   -1.8468363579
C       -1.2593313341   -0.5652640341   -0.2531718580
C       -2.0725424072   -1.0630428087    0.8517698633
C       -1.4389281440   -0.6407319222    1.9821492316
C       -0.2649919711    0.0880667940    1.5156337825
N       -0.1805572550    0.1219301849    0.1708542134
H        1.4377579323    0.8482212234   -1.1823391872
H       -1.4496315752   -0.6975065256   -1.3144502742
H       -2.9836705007   -1.6407371338    0.7685757800
H       -1.7238114897   -0.8001372219    3.0136438567
H        0.4907303152    0.5647610646    2.1326386816
C        3.1833479289    1.2686989740   -2.5920250931
H        4.0035904027    1.4578967199   -3.2464426388
13   
From optimize.out: Frame 5 / 6, Energy=    -286.8436624675
C        2.2577844355    1.0569171145   -1.8473070168
C       -1.2598326491   -0.5644840248   -0.2532052615
C       -2.0727337054   -1.0628418282    0.8514515445
C       -1.4388522801   -0.6406992530    1.9820546939
C       -0.2642422929    0.0877312655    1.5157760150
N       -0.1804719453    0.1220675282    0.1711669993
H        1.4383383104    0.8479497926   -1.1817686931
H       -1.4503259377   -0.6986472861   -1.3140734182
H       -2.9840316953   -1.6407825710    0.7673565433
H       -1.7232185710   -0.8001822305    3.0139065933
H        0.4907738458    0.5655839579    2.1327811121
C        3.1835932130    1.2692337642   -2.5915447618
H        4.0032192724    1.4581537710   -3.2465943502
