13   
From optimize.out: Frame 23 / 24, Energy=    -286.8377615164
C        1.2126239819    0.0361848842    0.0372083026
C        0.6307112700   -1.0403686793    0.9196791699
C       -0.6974578799   -1.0713100486    0.7283916818
C       -1.0553629537   -0.1046590976   -0.3430008212
C       -0.3915535410    1.3476091104   -0.2059449721
N        0.7796220783    1.4033690950    0.5670903529
H        2.2831182215    0.0044716673   -0.1695556388
H        1.1910480792   -1.5545772926    1.6922047449
H       -1.4275877708   -1.6330782555    1.3010729747
H       -2.0251434222   -0.0928111491   -0.8308302739
H       -1.0008124281    2.2234186946   -0.4092886851
C        0.1727068698    0.2393605796   -1.1059357165
H        0.3280874955    0.2423904911   -2.1810911198
13   
From optimize.out: Frame 22 / 24, Energy=    -286.8377520210
C        1.2127536615    0.0364416369    0.0353003258
C        0.6306170744   -1.0390775436    0.9206437989
C       -0.6975705841   -1.0712569210    0.7279822447
C       -1.0554190419   -0.1045537755   -0.3440771414
C       -0.3903038094    1.3469784798   -0.2049979867
N        0.7791979863    1.4018925085    0.5706215261
H        2.2832792173    0.0056293309   -0.1716762742
H        1.1894937345   -1.5532038618    1.6944395641
H       -1.4266994333   -1.6338805932    1.3009913099
H       -2.0250518580   -0.0929048622   -0.8323202290
H       -0.9990945153    2.2230994748   -0.4082377392
C        0.1728073164    0.2399728758   -1.1064371719
H        0.3259902514    0.2408632505   -2.1822322270
13   
From optimize.out: Frame 21 / 24, Energy=    -286.8377116935
C        1.2116760100    0.0343725994    0.0378692588
C        0.6318190650   -1.0478856459    0.9137283428
C       -0.6984015420   -1.0721166352    0.7298011575
C       -1.0562201598   -0.1038256470   -0.3405012931
C       -0.3922264993    1.3492752417   -0.2046747620
N        0.7801259951    1.4047138240    0.5672891109
H        2.2825911225    0.0119974200   -0.1703905174
H        1.1912128220   -1.5603759976    1.6881156413
H       -1.4291091442   -1.6245131859    1.3104017115
H       -2.0198503948   -0.0985002979   -0.8410868643
H       -1.0007324922    2.2249620412   -0.4110861298
C        0.1715692131    0.2392951311   -1.1018853481
H        0.3275460046    0.2426011520   -2.1775803082
13   
From optimize.out: Frame 20 / 24, Energy=    -286.8375349105
C        1.2159287756    0.0312032240    0.0359663753
C        0.6317259013   -1.0412857283    0.9171537789
C       -0.6946594303   -1.0678722320    0.7246202277
C       -1.0576542721   -0.1026613405   -0.3471305628
C       -0.3979871435    1.3486729414   -0.2089589566
N        0.7770194971    1.4049015804    0.5598431603
H        2.2864660311    0.0003941700   -0.1680270364
H        1.1900806423   -1.5545628319    1.6905138641
H       -1.4284339635   -1.6229753237    1.3001584337
H       -2.0340392227   -0.0885953046   -0.8202051322
H       -1.0179294710    2.2211965731   -0.3921697222
C        0.1823322402    0.2375092756   -1.1097996790
H        0.3471504154    0.2340749965   -2.1819647509
13   
From optimize.out: Frame 19 / 24, Energy=    -286.8373933893
C        1.2061661085    0.0404177247    0.0348138454
C        0.6296809597   -1.0337867732    0.9333525038
C       -0.6957497505   -1.0662746746    0.7364640823
C       -1.0541762402   -0.1009841094   -0.3456514437
C       -0.3865447174    1.3545111731   -0.2100877032
N        0.7758139447    1.4085622717    0.5854482621
H        2.2756049358    0.0079187823   -0.1773378628
H        1.1943734684   -1.5676033955    1.6916015608
H       -1.4191314920   -1.6550941329    1.2880560286
H       -2.0283485738   -0.0889197083   -0.8254778445
H       -0.9885336238    2.2322719662   -0.4286435005
C        0.1677366803    0.2368849670   -1.1022887127
H        0.3231083003    0.2320959089   -2.1802492155
13   
From optimize.out: Frame 18 / 24, Energy=    -286.8371018224
C        1.2128874282    0.0294553913    0.0181893604
C        0.6317006953   -1.0524136310    0.9082797979
C       -0.6989183064   -1.0772887759    0.7232055845
C       -1.0547337355   -0.1133338297   -0.3541227362
C       -0.3852584076    1.3384149731   -0.2062877549
N        0.7789225473    1.3832549299    0.5915593040
H        2.2831427311    0.0063129482   -0.1923024434
H        1.1729447691   -1.5332360250    1.7162643552
H       -1.4242220139   -1.6007143110    1.3356676851
H       -2.0140292980   -0.1154040898   -0.8637352181
H       -0.9995836483    2.2160798655   -0.3840928611
C        0.1741267008    0.2570246221   -1.1072172708
H        0.3230205377    0.2618479322   -2.1854078027
13   
From optimize.out: Frame 17 / 24, Energy=    -286.8364606696
C        1.2118924170    0.0300638562    0.0346632875
C        0.6369517345   -1.0709692504    0.8843813605
C       -0.6985365674   -1.0710482022    0.7163478142
C       -1.0563057899   -0.0821213282   -0.3383090922
C       -0.4010595257    1.3603266522   -0.2054480109
N        0.7639314951    1.3907049873    0.5944570668
H        2.2849369784    0.0549393501   -0.1615948182
H        1.1966157055   -1.5668621502    1.6693027062
H       -1.4273983887   -1.5978043452    1.3234627674
H       -2.0079211733   -0.0977763987   -0.8621401247
H       -1.0026859153    2.2459819635   -0.3852503826
C        0.1775482412    0.2520121458   -1.0984077282
H        0.3220307886    0.1525527198   -2.1714648458
13   
From optimize.out: Frame 16 / 24, Energy=    -286.8344899147
C        1.2154765217    0.0377742506    0.0418595260
C        0.6430285060   -1.0765832010    0.8758077950
C       -0.6922653584   -1.0654516059    0.7196814011
C       -1.0588829749   -0.0632311496   -0.3163666394
C       -0.3993927707    1.3601328608   -0.2129061869
N        0.7433803273    1.3821994470    0.6214673059
H        2.2905894652    0.0804637371   -0.1358097977
H        1.2015734364   -1.5930798044    1.6481191061
H       -1.4232597579   -1.6085163254    1.3095299693
H       -1.9994030713   -0.0936701519   -0.8592704965
H       -0.9775430605    2.2535392557   -0.4283875147
C        0.1836267633    0.2835483655   -1.0981698096
H        0.2730719738    0.1028743214   -2.1655546587
13   
From optimize.out: Frame 15 / 24, Energy=    -286.8316826201
C        1.2142276631    0.0380809668    0.0390756421
C        0.6455158536   -1.0848809481    0.8698934898
C       -0.6821695049   -1.0745200841    0.6935987934
C       -1.0296643134   -0.0580700947   -0.3339505178
C       -0.4008360904    1.3637526101   -0.1937800522
N        0.7557523339    1.3855589297    0.6095114570
H        2.2922960685    0.0756693412   -0.1189544495
H        1.1756006020   -1.5768383344    1.6784949099
H       -1.4154213563   -1.5844718483    1.3092039356
H       -1.9623325418   -0.1040799435   -0.8907910638
H       -0.9914823945    2.2578199464   -0.3721382700
C        0.1972333575    0.2974010101   -1.1140100801
H        0.2012803227    0.0645784488   -2.1761537946
13   
From optimize.out: Frame 14 / 24, Energy=    -286.8270742286
C        1.2172748265    0.0450454879    0.0530767278
C        0.6529449956   -1.0981647145    0.8502584704
C       -0.6761866134   -1.0796758634    0.6841596519
C       -1.0284228449   -0.0387763782   -0.3162347273
C       -0.4037390269    1.3649361466   -0.1924410886
N        0.7467131312    1.3899163805    0.6173484388
H        2.2965697190    0.1097609752   -0.0848000850
H        1.1810114319   -1.5957693315    1.6565694843
H       -1.4143524920   -1.5911699228    1.2944137902
H       -1.9494891329   -0.0881450090   -0.8921640224
H       -0.9705479314    2.2670097262   -0.4055642585
C        0.2052604134    0.3100644212   -1.1113813313
H        0.1429635240    0.0049680817   -2.1532410501
13   
From optimize.out: Frame 13 / 24, Energy=    -286.8207140748
C        1.2189200028    0.0473249129    0.0526697001
C        0.6534514443   -1.1077891596    0.8418437828
C       -0.6710985630   -1.0935413949    0.6661049184
C       -1.0196123703   -0.0312094804   -0.3100471835
C       -0.4106477083    1.3627473396   -0.1758692782
N        0.7577466829    1.3957815182    0.6070853504
H        2.2998807677    0.1099058612   -0.0663523709
H        1.1644262380   -1.5872511313    1.6697789645
H       -1.4090967565   -1.5902196960    1.2908791980
H       -1.9289177415   -0.0891026624   -0.9028166413
H       -0.9686504892    2.2679258016   -0.4045325261
C        0.2287330345    0.3337904168   -1.1251217382
H        0.0848654587   -0.0183623257   -2.1436221760
13   
From optimize.out: Frame 12 / 24, Energy=    -286.8114052276
C        1.2173776012    0.0675407383    0.0443823013
C        0.6531300131   -1.1111176887    0.8226211465
C       -0.6754016347   -1.1023238964    0.6503622157
C       -1.0353382024   -0.0154814310   -0.2902776798
C       -0.4279510995    1.3672260073   -0.1309252125
N        0.7515650650    1.4013950522    0.6138157944
H        2.3016998862    0.1237045210   -0.0539308962
H        1.1577211156   -1.5800651217    1.6624047063
H       -1.4018735698   -1.5983785572    1.2899453533
H       -1.9333174614   -0.0750948289   -0.9015172135
H       -0.9600719554    2.2803392809   -0.3957031617
C        0.2672704937    0.3306660518   -1.1599607304
H        0.0851897483   -0.0884101276   -2.1512166233
13   
From optimize.out: Frame 11 / 24, Energy=    -286.8008814361
C        1.2290566621    0.0850036740    0.0321425920
C        0.6599100266   -1.1076532492    0.8134335428
C       -0.6734331992   -1.1163533209    0.5939474456
C       -1.0560790129    0.0041328147   -0.3121016354
C       -0.4481241368    1.3825496173   -0.0915739453
N        0.7638355164    1.4080046854    0.5882526761
H        2.3205338669    0.1135792206   -0.0433610040
H        1.1462507722   -1.5435780097    1.6860758230
H       -1.3779004866   -1.5967523387    1.2668200921
H       -1.9584351170   -0.0616104828   -0.9198315141
H       -0.9736548725    2.3110879728   -0.3269805307
C        0.3052139276    0.2915619418   -1.1607054944
H        0.0628260531   -0.1699725253   -2.1261180477
13   
From optimize.out: Frame 10 / 24, Energy=    -286.7930422755
C        1.2223803500    0.0906495926    0.0595496523
C        0.6577945295   -1.1224620209    0.7928471898
C       -0.6747639086   -1.1286585995    0.5806943586
C       -1.0692321509   -0.0058536192   -0.3077533288
C       -0.4315369869    1.3412842624   -0.1289207082
N        0.7711370462    1.4297909762    0.5483826385
H        2.3180615801    0.0752434395   -0.0045272590
H        1.1765847078   -1.5461105147    1.6547892960
H       -1.3671434634   -1.6065355772    1.2677687209
H       -1.9728785886   -0.0632718316   -0.9164102731
H       -0.9289792673    2.2662319715   -0.4335046675
C        0.2964194440    0.3787937275   -1.0857769260
H        0.0021567079   -0.1091018067   -2.0271386935
13   
From optimize.out: Frame 9 / 24, Energy=    -286.7836904830
C        1.2324969119    0.0920584965    0.0455440422
C        0.6682740365   -1.1056775731    0.8024375599
C       -0.6345105274   -1.0912480711    0.5519124268
C       -1.0128116450    0.0216340140   -0.3336788396
C       -0.4394822992    1.2952709532   -0.0941279267
N        0.7488876719    1.3968012445    0.5978440389
H        2.3222571421    0.0536431787    0.0077521449
H        1.1360198252   -1.5241380687    1.6842265633
H       -1.3379454332   -1.5483141702    1.2538377114
H       -1.8925637137   -0.0421145952   -0.9614909396
H       -0.9403471384    2.2154660126   -0.4014703016
C        0.2553535497    0.3474028570   -1.1211007817
H       -0.1056283803   -0.1107842783   -2.0316856983
13   
From optimize.out: Frame 8 / 24, Energy=    -286.7674826754
C        1.2324790764    0.0929746539    0.0050122940
C        0.6524069599   -1.0898147630    0.7808088244
C       -0.6555232790   -1.0792767719    0.5575458063
C       -1.0888773090    0.0344559750   -0.2793228924
C       -0.5016658118    1.2619725873   -0.0427500149
N        0.7196730183    1.3594417766    0.5962712817
H        2.3222570714    0.0270602855    0.0072329176
H        1.1058050375   -1.4854306330    1.6780075347
H       -1.3184251608   -1.5238970431    1.3082571042
H       -1.9962238921   -0.0232444974   -0.8631318875
H       -0.9996620793    2.1927123048   -0.3144033139
C        0.4020348492    0.3530982000   -1.2525891701
H        0.1257215191   -0.1200520747   -2.1809384841
13   
From optimize.out: Frame 7 / 24, Energy=    -286.7338247531
C        1.2386784353    0.0763909494   -0.0537444753
C        0.6276124833   -1.0775737245    0.7658350120
C       -0.6966507535   -1.0756275189    0.5906957811
C       -1.1856164762    0.0228160156   -0.2292741188
C       -0.5763694111    1.2238649655   -0.0150644952
N        0.6928941847    1.2867616285    0.5853787101
H        2.3283906805   -0.0232513612   -0.0179536589
H        1.0789550241   -1.4331260658    1.6811431465
H       -1.3028104321   -1.4939637076    1.4020807708
H       -2.1233042684   -0.0385803370   -0.7619393436
H       -1.0584367641    2.1715267358   -0.2482464911
C        0.5789703700    0.3972483085   -1.3642844482
H        0.3976869275   -0.0364858882   -2.3346263894
13   
From optimize.out: Frame 6 / 24, Energy=    -286.7232004389
C        1.2392416074    0.0887886674   -0.0853482513
C        0.6118253572   -1.0810610478    0.7562469747
C       -0.7374598113   -1.0846354320    0.5997549489
C       -1.2762717243   -0.0173005879   -0.2272755220
C       -0.5727023612    1.2146557297   -0.0226042866
N        0.6996588409    1.2720572539    0.5282058770
H        2.3406068084   -0.0201397738   -0.0399861744
H        1.0721895750   -1.4318556421    1.6824725187
H       -1.2913570734   -1.4931255633    1.4406567772
H       -2.2399207125   -0.0954328225   -0.7225208750
H       -1.0317008755    2.1794524343   -0.2437597173
C        0.6740048953    0.4419605501   -1.3306853431
H        0.5118854739    0.0266362341   -2.3351569267
13   
From optimize.out: Frame 5 / 24, Energy=    -286.7077808485
C        1.2324908452    0.0750442656   -0.1113485250
C        0.5910260006   -1.0740541327    0.7188526013
C       -0.7628527018   -1.0849969682    0.6208825746
C       -1.3358655798    0.0012300196   -0.1482095869
C       -0.6427220296    1.1972890087   -0.0100300783
N        0.6669354192    1.2496315705    0.5193872183
H        2.3275870706   -0.0517233227   -0.0420998987
H        1.0747948604   -1.4060974425    1.6350014436
H       -1.2887997510   -1.5009286176    1.4808621372
H       -2.3191933768   -0.0568910664   -0.6026494141
H       -1.0912196158    2.1627220630   -0.2355602492
C        0.8013027159    0.4686865736   -1.4151459917
H        0.7465161429    0.0200880492   -2.4099422312
13   
From optimize.out: Frame 4 / 24, Energy=    -286.6841359767
C        1.2465073778    0.0630334287   -0.1793126465
C        0.5676234329   -1.0646232442    0.7169476880
C       -0.7916298483   -1.0786852214    0.6440237783
C       -1.4154264573   -0.0163035487   -0.1337230492
C       -0.7026492291    1.1557939600    0.0107470732
N        0.6504203904    1.1682409469    0.5027419482
H        2.3369281759   -0.1003938568   -0.0714470487
H        1.0262853934   -1.3573344342    1.6610088641
H       -1.2477456626   -1.4473696013    1.5618224917
H       -2.4164651472   -0.0952823194   -0.5429441674
H       -1.1291614618    2.1399724776   -0.1719432152
C        0.9328038126    0.4973990127   -1.4829022768
H        0.9425092233    0.1355524002   -2.5150194396
13   
From optimize.out: Frame 3 / 24, Energy=    -286.6560779110
C        1.2572915290    0.0586740993   -0.2389782136
C        0.5521474969   -1.0653182417    0.7139285224
C       -0.8055897186   -1.0674830900    0.6623423898
C       -1.4842888841   -0.0229414014   -0.1395323604
C       -0.7636253688    1.1243491111    0.0323636921
N        0.6390505636    1.0906875503    0.5074481864
H        2.3438585609   -0.1284100327   -0.1058037741
H        0.9763803548   -1.3323305421    1.6838473246
H       -1.1902864657   -1.3737852521    1.6316115832
H       -2.4955918858   -0.1268434321   -0.5165759616
H       -1.1679420696    2.1253476780   -0.1035391725
C        1.0313388400    0.5206998250   -1.5407224958
H        1.1072570475    0.1973537284   -2.5863897204
13   
From optimize.out: Frame 2 / 24, Energy=    -286.6250330893
C        1.2839297894    0.0498085193   -0.2907740765
C        0.5449289156   -1.0603959567    0.7190177119
C       -0.8140875237   -1.0439524984    0.6722218054
C       -1.5619853618   -0.0263526361   -0.1590570865
C       -0.8257402880    1.0953440349    0.0587337148
N        0.6409936180    1.0131682800    0.5046363510
H        2.3695056818   -0.1501928335   -0.1399347139
H        0.9226851445   -1.3092933616    1.7175470453
H       -1.1292284190   -1.2910915285    1.6779459826
H       -2.5819396038   -0.1548017639   -0.5080252432
H       -1.2188311447    2.1089543976   -0.0145814130
C        1.1252772865    0.5243891031   -1.5874875350
H        1.2444919054    0.2444162436   -2.6502425428
13   
From optimize.out: Frame 1 / 24, Energy=    -286.5848744712
C        1.3169578718    0.0311569084   -0.3263818246
C        0.5362214947   -1.0472699670    0.7160423756
C       -0.8117444372   -1.0026563178    0.6633275502
C       -1.6359986005   -0.0268204364   -0.1851398834
C       -0.8817712245    1.0661723534    0.0880125212
N        0.6426407795    0.9420605948    0.4887731895
H        2.4027679769   -0.1797949262   -0.1651504624
H        0.8502295117   -1.2767778207    1.7473380196
H       -1.0354908266   -1.1994071124    1.6958024802
H       -2.6683867177   -0.1681235574   -0.5038627067
H       -1.2830623073    2.0806497566    0.0890369970
C        1.2117068073    0.5110562373   -1.6121061501
H        1.3559296718    0.2697542874   -2.6956921060
13   
C5H5N+CH->C6H6N atoms 1-13 frame 199 charge -0.000 sz -1.000 sz^2 0.929
C        1.3169578718    0.0311569084   -0.3263818246
C        0.5362214947   -1.0472699670    0.7160423756
C       -0.8117444372   -1.0026563178    0.6633275502
C       -1.6359986005   -0.0268204364   -0.1851398834
C       -0.8817712245    1.0661723534    0.0880125212
N        0.6426407795    0.9420605948    0.4887731895
H        2.4027679769   -0.1797949262   -0.1651504624
H        0.8502295117   -1.2767778207    1.7473380196
H       -1.0354908266   -1.1994071124    1.6958024802
H       -2.6683867177   -0.1681235574   -0.5038627067
H       -1.2830623073    2.0806497566    0.0890369970
C        1.2117068073    0.5110562373   -1.6121061501
H        1.3559296718    0.2697542874   -2.6956921060
13   
C5H5N+CH->C6H6N atoms 1-13 frame 200 charge +0.000 sz -1.000 sz^2 0.972
C        1.3198565411    0.0408800695   -0.3426501476
C        0.5406379112   -1.0516467008    0.7202567451
C       -0.8136314666   -1.0065184139    0.6531727338
C       -1.6500014756   -0.0366451255   -0.1802383266
C       -0.8902521248    1.0588582887    0.0924434800
N        0.6362073366    0.9297819441    0.4912878971
H        2.4059003613   -0.1647166373   -0.1504724225
H        0.8740853072   -1.2896352794    1.7165169641
H       -1.0477378237   -1.1633583768    1.6940004019
H       -2.6937745776   -0.1614692813   -0.4895466205
H       -1.2833922073    2.0750390526    0.0727836706
C        1.2162533775    0.5110979906   -1.6050609764
H        1.3858488407    0.2583324695   -2.6724933988
13   
C5H5N+CH->C6H6N atoms 1-13 frame 201 charge -0.000 sz -1.000 sz^2 0.668
C        1.3229319050    0.0502433510   -0.3588005064
C        0.5452172794   -1.0557676079    0.7237249581
C       -0.8156586190   -1.0105496920    0.6428202344
C       -1.6635183262   -0.0466730962   -0.1749851614
C       -0.8985115628    1.0518191558    0.0963935642
N        0.6292137072    0.9181091122    0.4939748170
H        2.4078189111   -0.1483203725   -0.1351089117
H        0.9016933157   -1.3024286824    1.6848709957
H       -1.0648991999   -1.1290193522    1.6926222929
H       -2.7179637937   -0.1543658794   -0.4743761648
H       -1.2823695948    2.0697534412    0.0558651307
C        1.2205554944    0.5113241620   -1.5995342420
H        1.4154904835    0.2458754604   -2.6474670067
13   
C5H5N+CH->C6H6N atoms 1-13 frame 202 charge +0.000 sz -1.000 sz^2 0.683
C        1.3260839035    0.0592269840   -0.3746145289
C        0.5497046024   -1.0595871498    0.7261769248
C       -0.8178826484   -1.0146723539    0.6323317826
C       -1.6766300789   -0.0567024287   -0.1693900021
C       -0.9066212693    1.0451098902    0.0997944101
N        0.6216847166    0.9070677712    0.4966209744
H        2.4081595415   -0.1310265363   -0.1195503167
H        0.9332889089   -1.3156002776    1.6542464286
H       -1.0864210677   -1.0966137667    1.6912411597
H       -2.7406045847   -0.1468061190   -0.4581652545
H       -1.2801540263    2.0649157766    0.0385363398
C        1.2243825835    0.5119023117   -1.5957046507
H        1.4450094188    0.2327858983   -2.6215232670
13   
C5H5N+CH->C6H6N atoms 1-13 frame 203 charge +0.000 sz -1.000 sz^2 0.674
C        1.3292372160    0.0678387359   -0.3899075200
C        0.5538492788   -1.0630211025    0.7273946098
C       -0.8204063716   -1.0188316729    0.6218217779
C       -1.6894171671   -0.0664765631   -0.1634252228
C       -0.9146301721    1.0388125377    0.1026880201
N        0.6135872817    0.8966401246    0.4992330574
H        2.4066913860   -0.1130626209   -0.1042243797
H        0.9690219906   -1.3295850124    1.6262755982
H       -1.1116941136   -1.0663074902    1.6893294259
H       -2.7614095620   -0.1387730569   -0.4407489406
H       -1.2768540878    2.0606959805    0.0210638954
C        1.2275903034    0.5129634717   -1.5937581820
H        1.4744340176    0.2191066684   -2.5957421397
13   
From optimize.out: Frame 1 / 54, Energy=    -286.5811491054
C        1.3323860895    0.0757006828   -0.4044789143
C        0.5574120400   -1.0660196403    0.7271777398
C       -0.8234054604   -1.0230135744    0.6116173150
C       -1.7019932745   -0.0758058368   -0.1569634813
C       -0.9225998883    1.0329096028    0.1050830705
N        0.6049153048    0.8867564012    0.5016916788
H        2.4036254456   -0.0945296474   -0.0886662572
H        1.0090779624   -1.3446254408    1.6020489563
H       -1.1401425207   -1.0379829852    1.6865071048
H       -2.7802271152   -0.1303579137   -0.4218357722
H       -1.2724840354    2.0571697800    0.0034850013
C        1.2298759725    0.5140196940   -1.5940924457
H        1.5035594798    0.2057788777   -2.5715739956
13   
From optimize.out: Frame 2 / 54, Energy=    -286.6297173087
C        1.2941539993    0.0990679757   -0.3845247949
C        0.5440880605   -1.0597208765    0.7214162493
C       -0.8299715080   -1.0629099883    0.6342571245
C       -1.6292633206   -0.0534464970   -0.1231104685
C       -0.8772596946    1.0695060628    0.1043882498
N        0.5893048379    0.9418588931    0.5367895093
H        2.3617225751   -0.0643108018   -0.0819367424
H        1.0357039580   -1.3539557431    1.6001302652
H       -1.1930359316   -1.1550124622    1.6836544958
H       -2.6864936642   -0.1025266128   -0.4147312289
H       -1.2191009393    2.0924300635   -0.0349159225
C        1.1636998259    0.5078357133   -1.6374830277
H        1.4464518015    0.1411842732   -2.6039337089
13   
From optimize.out: Frame 3 / 54, Energy=    -286.6621245938
C        1.2595006445    0.1145968692   -0.3493713786
C        0.5398745313   -1.0415322834    0.6960127369
C       -0.8272848864   -1.0779227747    0.6325353776
C       -1.5668965367   -0.0169191707   -0.0963977449
C       -0.8363049713    1.1110683083    0.1103917644
N        0.5686825365    0.9939450884    0.5623887061
H        2.3266614396   -0.0286271808   -0.0666931695
H        1.0692012688   -1.3534575271    1.5637455169
H       -1.2305781375   -1.2596167167    1.6467351079
H       -2.6100711874   -0.0579725447   -0.4101595206
H       -1.1779408424    2.1290098441   -0.0586037532
C        1.0895553866    0.4736947797   -1.6518181273
H        1.3956007543    0.0137333084   -2.5787655157
13   
From optimize.out: Frame 4 / 54, Energy=    -286.6845410421
C        1.2355878445    0.1262619769   -0.3141819021
C        0.5399096883   -1.0161694243    0.6611599289
C       -0.8240139075   -1.0771923176    0.6172837736
C       -1.5332311822    0.0271201420   -0.0674103562
C       -0.8121909387    1.1595513516    0.1229733752
N        0.5561744043    1.0516520626    0.5746011261
H        2.3057524067    0.0082532104   -0.0519419829
H        1.0984001712   -1.3554323650    1.5125149956
H       -1.2551205912   -1.3573157490    1.5900526655
H       -2.5691594780   -0.0073943151   -0.3934190307
H       -1.1599394164    2.1722060133   -0.0645783883
C        1.0362849378    0.4177493594   -1.6639446628
H        1.3815460612   -0.1492899452   -2.5231095420
13   
From optimize.out: Frame 5 / 54, Energy=    -286.7000759993
C        1.2185461463    0.1378828710   -0.2841838901
C        0.5419160234   -0.9937529742    0.6274941661
C       -0.8196804257   -1.0642516443    0.6015318045
C       -1.5185081130    0.0735708919   -0.0371873482
C       -0.8021561453    1.2098177523    0.1332368218
N        0.5504900063    1.1119873224    0.5734749653
H        2.2934980962    0.0502988385   -0.0432565375
H        1.1211878550   -1.3742976189    1.4557589231
H       -1.2708895313   -1.4445043782    1.5245804344
H       -2.5512800691    0.0430632195   -0.3673906512
H       -1.1593024947    2.2171207260   -0.0666102378
C        1.0015184925    0.3509785376   -1.6748052478
H        1.3946601593   -0.3179135436   -2.4426432025
13   
From optimize.out: Frame 6 / 54, Energy=    -286.7113361270
C        1.2058682170    0.1546498101   -0.2615945495
C        0.5423717912   -0.9830896145    0.6016317785
C       -0.8152495156   -1.0461895213    0.5927879145
C       -1.5126966702    0.1169753845   -0.0057423103
C       -0.7995550088    1.2581872746    0.1367075702
N        0.5493761869    1.1783718308    0.5560192239
H        2.2855398079    0.0986846990   -0.0407298980
H        1.1355116408   -1.4174518203    1.3982300974
H       -1.2831990409   -1.5184273918    1.4595089578
H       -2.5459293284    0.0882365203   -0.3324979222
H       -1.1706579219    2.2587734974   -0.0723182487
C        0.9839292766    0.2824974029   -1.6843891844
H        1.4246905654   -0.4712180715   -2.3476134291
13   
From optimize.out: Frame 7 / 54, Energy=    -286.7214160013
C        1.1922158178    0.1754898999   -0.2391482965
C        0.5422661237   -0.9840168903    0.5793414056
C       -0.8074266028   -1.0291664580    0.5846353362
C       -1.5014998903    0.1569037947    0.0189365299
C       -0.7970454283    1.3072623498    0.1349356782
N        0.5511960154    1.2559219324    0.5250708921
H        2.2758550544    0.1475923507   -0.0384682213
H        1.1453170215   -1.4754807095    1.3381086309
H       -1.2927358252   -1.5742118110    1.3942380771
H       -2.5372770988    0.1281024350   -0.2989464978
H       -1.1910259403    2.2989551978   -0.0756263134
C        0.9690306141    0.2077395836   -1.6866283225
H        1.4511301388   -0.6150916750   -2.2364488985
13   
From optimize.out: Frame 8 / 54, Energy=    -286.7318495863
C        1.1750955649    0.1974995788   -0.2102771209
C        0.5439157127   -0.9879984048    0.5544322822
C       -0.7948716473   -1.0160769359    0.5693213750
C       -1.4803413439    0.1974118245    0.0400228537
C       -0.7876725021    1.3601906958    0.1314312450
N        0.5559209677    1.3404086146    0.4901386130
H        2.2635952403    0.1999933047   -0.0420852054
H        1.1524796740   -1.5318785586    1.2760453101
H       -1.2990130552   -1.6250433412    1.3158071830
H       -2.5176402562    0.1681849660   -0.2732454359
H       -1.2075015044    2.3404364149   -0.0840089026
C        0.9364114479    0.1196409539   -1.6771090481
H        1.4596217015   -0.7627691127   -2.0904731491
13   
From optimize.out: Frame 9 / 54, Energy=    -286.7409247229
C        1.1612558800    0.2175291942   -0.1792745187
C        0.5491114332   -0.9844057468    0.5343861166
C       -0.7845144410   -1.0035977751    0.5510673083
C       -1.4574276973    0.2316754131    0.0590392759
C       -0.7707830146    1.4088772110    0.1256889453
N        0.5618425907    1.4188331199    0.4459238463
H        2.2537087630    0.2494172883   -0.0501830623
H        1.1611381530   -1.5770751789    1.2178059162
H       -1.3114224087   -1.6715128753    1.2243850482
H       -2.4963054890    0.2036686230   -0.2503481944
H       -1.2188917866    2.3771995890   -0.0889126303
C        0.8950798866    0.0242820418   -1.6573706422
H        1.4572081307   -0.8948909042   -1.9322074088
13   
From optimize.out: Frame 10 / 54, Energy=    -286.7478307256
C        1.1561875033    0.2312861520   -0.1717984005
C        0.5519946498   -0.9698521381    0.5252301240
C       -0.7872213196   -0.9825525475    0.5540941486
C       -1.4607037742    0.2567152299    0.0837892076
C       -0.7737178142    1.4388138850    0.1175818104
N        0.5566110669    1.4605096812    0.3937657371
H        2.2480111631    0.2792947902   -0.0513768286
H        1.1742423441   -1.6078502515    1.1603825433
H       -1.3316929159   -1.7038798154    1.1527090860
H       -2.5046173850    0.2299931537   -0.2057264091
H       -1.2433865509    2.4024878075   -0.0732740876
C        0.9123127142   -0.0529875556   -1.6528396085
H        1.5019803183   -0.9819783914   -1.8325373226
13   
From optimize.out: Frame 11 / 54, Energy=    -286.7539106231
C        1.1666062585    0.2466342718   -0.1348388330
C        0.5578204965   -0.9586532814    0.5291058650
C       -0.7826466582   -0.9711458636    0.5503592428
C       -1.4466280677    0.2633467935    0.1095185919
C       -0.7444457633    1.4568489738    0.0953379207
N        0.5681883517    1.5043679437    0.3438508491
H        2.2613495732    0.3075951983   -0.0494536782
H        1.1719295585   -1.6421073085    1.1243437819
H       -1.3508781602   -1.7358005378    1.0650579742
H       -2.4930046112    0.2378596493   -0.1757642170
H       -1.2396062915    2.4073258465   -0.1034618188
C        0.8592792893   -0.0929737505   -1.6186836040