13   
From optimize.out: Frame 1 / 2, Energy=    -286.8377615165
C        1.2126239819    0.0361848842    0.0372083026
C        0.6307112700   -1.0403686793    0.9196791699
C       -0.6974578799   -1.0713100486    0.7283916818
C       -1.0553629537   -0.1046590976   -0.3430008212
C       -0.3915535410    1.3476091104   -0.2059449721
N        0.7796220783    1.4033690950    0.5670903529
H        2.2831182215    0.0044716673   -0.1695556388
H        1.1910480792   -1.5545772926    1.6922047449
H       -1.4275877708   -1.6330782555    1.3010729747
H       -2.0251434222   -0.0928111491   -0.8308302739
H       -1.0008124281    2.2234186946   -0.4092886851
C        0.1727068698    0.2393605796   -1.1059357165
H        0.3280874955    0.2423904911   -2.1810911198
13   
From optimize.out: Frame 23 / 24, Energy=    -286.8377615164
C        1.2126239819    0.0361848842    0.0372083026
C        0.6307112700   -1.0403686793    0.9196791699
C       -0.6974578799   -1.0713100486    0.7283916818
C       -1.0553629537   -0.1046590976   -0.3430008212
C       -0.3915535410    1.3476091104   -0.2059449721
N        0.7796220783    1.4033690950    0.5670903529
H        2.2831182215    0.0044716673   -0.1695556388
H        1.1910480792   -1.5545772926    1.6922047449
H       -1.4275877708   -1.6330782555    1.3010729747
H       -2.0251434222   -0.0928111491   -0.8308302739
H       -1.0008124281    2.2234186946   -0.4092886851
C        0.1727068698    0.2393605796   -1.1059357165
H        0.3280874955    0.2423904911   -2.1810911198
13   
From optimize.out: Frame 22 / 24, Energy=    -286.8377520210
C        1.2070927733    0.0389063537    0.0325218366
C        0.6299594195   -1.0363548481    0.9298957433
C       -0.6961865976   -1.0677931828    0.7346361403
C       -1.0542531018   -0.1026867587   -0.3468193763
C       -0.3863673746    1.3522919986   -0.2095638063
N        0.7762425261    1.4050731620    0.5862907882
H        2.2766441676    0.0076973868   -0.1794010215
H        1.1914191051   -1.5628651846    1.6950018070
H       -1.4198333196   -1.6475968160    1.2946202221
H       -2.0263743829   -0.0925710958   -0.8307523681
H       -0.9900570847    2.2300395700   -0.4225013278
C        0.1686176690    0.2396616105   -1.1029682104
H        0.3230962005    0.2361978044   -2.1809604271
13   
From optimize.out: Frame 21 / 24, Energy=    -286.8377116935
C        1.2124277692    0.0297364800    0.0257997172
C        0.6341264850   -1.0609856541    0.8972395867
C       -0.6987419568   -1.0744058572    0.7200375434
C       -1.0554599676   -0.0989147861   -0.3468174062
C       -0.3925579510    1.3485373741   -0.2058998236
N        0.7719972249    1.3866965862    0.5928979653
H        2.2839716083    0.0287765821   -0.1781166344
H        1.1838798831   -1.5487700752    1.6945697767
H       -1.4256893839   -1.5993700123    1.3300294558
H       -2.0112075659   -0.1072607359   -0.8629983428
H       -1.0010167831    2.2298935502   -0.3846275941
C        0.1757073284    0.2547090399   -1.1031475816
H        0.3225633095    0.2113575084   -2.1789666623
13   
From optimize.out: Frame 20 / 24, Energy=    -286.8375349105
C        1.2149311411    0.0366009869    0.0407644997
C        0.6421038251   -1.0757289458    0.8771124044
C       -0.6932196263   -1.0663032203    0.7191741409
C       -1.0584908137   -0.0661056017   -0.3197055454
C       -0.3996463950    1.3601623494   -0.2117713024
N        0.7465075264    1.3834937052    0.6173572526
H        2.2897293461    0.0765797807   -0.1397334137
H        1.2008190359   -1.5890903560    1.6513425402
H       -1.4238895188   -1.6068863210    1.3116500742
H       -2.0006992410   -0.0942949850   -0.8597071577
H       -0.9813689604    2.2523892891   -0.4218234887
C        0.1827018159    0.2787496097   -1.0982060129
H        0.2805218648    0.1104337089   -2.1664539911
13   
From optimize.out: Frame 19 / 24, Energy=    -286.8373933893
C        1.2149378226    0.0397040897    0.0423386781
C        0.6472472592   -1.0879768086    0.8653174322
C       -0.6807751566   -1.0757216690    0.6913989456
C       -1.0293749818   -0.0535735797   -0.3298217478
C       -0.4015126369    1.3640284403   -0.1934679988
N        0.7536456941    1.3865744594    0.6113379120
H        2.2932920681    0.0836145985   -0.1109945724
H        1.1768616280   -1.5812503154    1.6733850596
H       -1.4151722511   -1.5860328743    1.3057570046
H       -1.9593393092   -0.1003662126   -0.8911110399
H       -0.9866034939    2.2599616790   -0.3799283947
C        0.1991041105    0.3003522931   -1.1133974346
H        0.1876892472    0.0506858995   -2.1708138437
13   
From optimize.out: Frame 18 / 24, Energy=    -286.8371018224
C        1.2188994631    0.0472964548    0.0526747817
C        0.6534451214   -1.1076690005    0.8419488384
C       -0.6711620862   -1.0933682867    0.6663303279
C       -1.0197223672   -0.0313039515   -0.3101244337
C       -0.4105614549    1.3627746664   -0.1760761737
N        0.7576089314    1.3957082932    0.6072134829
H        2.2998394300    0.1099040523   -0.0665826866
H        1.1646333006   -1.5873574792    1.6696140470
H       -1.4091623732   -1.5902315594    1.2909233267
H       -1.9291745709   -0.0890907063   -0.9026836456
H       -0.9686741783    2.2679143646   -0.4045454071
C        0.2284399838    0.3334942028   -1.1249501922
H        0.0855908006   -0.0180710505   -2.1437422656
13   
From optimize.out: Frame 17 / 24, Energy=    -286.8364606696
C        1.2219260561    0.0743417453    0.0396154998
C        0.6557705153   -1.1097684495    0.8190429992
C       -0.6746350200   -1.1077877093    0.6283912681
C       -1.0434157902   -0.0078425881   -0.2987771026
C       -0.4358075659    1.3731938457   -0.1155997113
N        0.7563438391    1.4039691991    0.6038601404
H        2.3090348518    0.1197611841   -0.0498144113
H        1.1532539466   -1.5658550767    1.6716235130
H       -1.3925371610   -1.5977452202    1.2809391320
H       -1.9430996282   -0.0698432989   -0.9086497878
H       -0.9653618743    2.2923144763   -0.3689388707
C        0.2820477089    0.3154368069   -1.1602507816
H        0.0764801218   -0.1201749147   -2.1414418872
13   
From optimize.out: Frame 16 / 24, Energy=    -286.8344899147
C        1.2268942709    0.0868323310    0.0410194668
C        0.6592248381   -1.1124496633    0.8067658274
C       -0.6738642028   -1.1203388785    0.5896549023
C       -1.0603391837    0.0008983079   -0.3106932620
C       -0.4427517236    1.3691841785   -0.1036701910
N        0.7662004094    1.4150610487    0.5753391668
H        2.3197331178    0.1011626417   -0.0307831395
H        1.1560756328   -1.5443982629    1.6759424275
H       -1.3744163936   -1.5999210325    1.2671273436
H       -1.9631132140   -0.0621485772   -0.9187234081
H       -0.9591848875    2.2965595593   -0.3614826410
C        0.3023654817    0.3198154511   -1.1364368750
H        0.0431758545   -0.1502571039   -2.0940596176
13   
From optimize.out: Frame 15 / 24, Energy=    -286.8316826201
C        1.2232717862    0.0907737403    0.0583155267
C        0.6587179472   -1.1209830338    0.7936922598
C       -0.6712169209   -1.1253621140    0.5781581950
C       -1.0642605724   -0.0034315047   -0.3100377945
C       -0.4322371001    1.3372297299   -0.1258548895
N        0.7691765089    1.4268840360    0.5527410049
H        2.3184312784    0.0733400997   -0.0034452407
H        1.1730102717   -1.5441743793    1.6573832054
H       -1.3645706347   -1.6014053096    1.2665411688
H       -1.9658015215   -0.0614075296   -0.9203826244
H       -0.9299809645    2.2617586520   -0.4306819108
C        0.2928008605    0.3760276733   -1.0888895411
H       -0.0073409387   -0.1092500602   -2.0275393597
13   
From optimize.out: Frame 14 / 24, Energy=    -286.8270742286
C        1.2313658891    0.0919009822    0.0471098571
C        0.6671024368   -1.1075540597    0.8013653650
C       -0.6390108201   -1.0954305353    0.5551302215
C       -1.0191194080    0.0185609208   -0.3307803903
C       -0.4385940203    1.3004152008   -0.0980177291
N        0.7513751324    1.4004894675    0.5923142978
H        2.3217880819    0.0560580689    0.0063793183
H        1.1405549434   -1.5265945689    1.6809355027
H       -1.3412097473   -1.5548232724    1.2553951860
H       -1.9015428462   -0.0444799557   -0.9564509606
H       -0.9390762204    2.2211416023   -0.4050517156
C        0.2599446807    0.3509123288   -1.1171516057
H       -0.0935781021   -0.1105961794   -2.0311773471
13   
From optimize.out: Frame 13 / 24, Energy=    -286.8207140748
C        1.2324901757    0.0924045128    0.0302359236
C        0.6622813246   -1.0996864726    0.7942687722
C       -0.6424466690   -1.0867267248    0.5540400538
C       -1.0415402900    0.0264766401   -0.3131495676
C       -0.4629679031    1.2826947541   -0.0747234055
N        0.7378538182    1.3826912396    0.5972500366
H        2.3222571154    0.0436032940    0.0075560420
H        1.1246082386   -1.5095189604    1.6818777471
H       -1.3305729744   -1.5390922567    1.2743909457
H       -1.9317143147   -0.0349876957   -0.9243424794
H       -0.9627493339    2.2068723429   -0.3685866529
C        0.3107524611    0.3495538865   -1.1707616014
H       -0.0182516485   -0.1142845597   -2.0880558142
13   
From optimize.out: Frame 12 / 24, Energy=    -286.8114052276
C        1.2324823454    0.0928067330    0.0124412862
C        0.6553152082   -1.0927222293    0.7847731170
C       -0.6516718890   -1.0814709701    0.5565132742
C       -1.0749353684    0.0321058605   -0.2892856975
C       -0.4902683061    1.2680757857   -0.0521669812
N        0.7250277204    1.3662893272    0.5965595496
H        2.3222570843    0.0319326168    0.0073280859
H        1.1113430523   -1.4925252502    1.6791474094
H       -1.3220029969   -1.5283724150    1.2982826703
H       -1.9772242019   -0.0267031642   -0.8811599436
H       -0.9887903490    2.1968827915   -0.3303616676
C        0.3751498941    0.3520543107   -1.2284888967
H        0.0833178066   -0.1183533967   -2.1535822059
13   
From optimize.out: Frame 11 / 24, Energy=    -286.8008814361
C        1.2338510719    0.0893044729   -0.0079913129
C        0.6469196325   -1.0871056682    0.7774949327
C       -0.6646253028   -1.0784691466    0.5648823098
C       -1.1102868951    0.0318799066   -0.2682464736
C       -0.5181986514    1.2535388946   -0.0366228636
N        0.7137465280    1.3433567520    0.5938606195
H        2.3236145157    0.0159256896    0.0016588136
H        1.0998627942   -1.4738549789    1.6787014848
H       -1.3149694263   -1.5172724221    1.3290214536
H       -2.0243483667   -0.0266385103   -0.8407367136
H       -1.0126696512    2.1880236738   -0.2997619827
C        0.4411928901    0.3628691705   -1.2773087303
H        0.1859108611   -0.1015578338   -2.2149515373
13   
From optimize.out: Frame 9 / 24, Energy=    -286.7836904830
C        1.2362063680    0.0830038966   -0.0303145226
C        0.6374995724   -1.0824549825    0.7718059958
C       -0.6802506894   -1.0770827015    0.5774768388
C       -1.1470405957    0.0274575863   -0.2492316558
C       -0.5465804724    1.2390608278   -0.0261044217
N        0.7035725595    1.3157436922    0.5897222511
H        2.3259448317   -0.0031890005   -0.0079102153
H        1.0896617827   -1.4539831270    1.6798927844
H       -1.3090369888   -1.5058999772    1.3646674805
H       -2.0726294740   -0.0324649906   -0.8022910604
H       -1.0349996674    2.1799747306   -0.2746273021
C        0.5084152505    0.3796429335   -1.3197446426
H        0.2892375228   -0.0698088878   -2.2733415299
13   
From optimize.out: Frame 8 / 24, Energy=    -286.7674826754
C        1.2385616641    0.0767033202   -0.0526377323
C        0.6280795123   -1.0778042968    0.7661170589
C       -0.6958760760   -1.0756962563    0.5900713678
C       -1.1837942964    0.0230352660   -0.2302168379
C       -0.5749622934    1.2245827610   -0.0155859799
N        0.6933985911    1.2881306325    0.5855838827
H        2.3282751478   -0.0223036906   -0.0174792443
H        1.0794607712   -1.4341112751    1.6810840841
H       -1.3031045513   -1.4945275322    1.4003135073
H       -2.1209105813   -0.0382914710   -0.7638454073
H       -1.0573296836    2.1719257874   -0.2494926216
C        0.5756376109    0.3964166966   -1.3621805549
H        0.3925641845   -0.0380599417   -2.3317315226
13   
From optimize.out: Frame 7 / 24, Energy=    -286.7338247531
C        1.2390586739    0.0847615533   -0.0750824903
C        0.6169534427   -1.0799282709    0.7593614285
C       -0.7242039258   -1.0817094182    0.5968122862
C       -1.2468244484   -0.0042696303   -0.2279247203
C       -0.5738935182    1.2176471385   -0.0201551585
N        0.6974614977    1.2768336324    0.5467771592
H        2.3366386797   -0.0211505015   -0.0328294176
H        1.0743871758   -1.4322683101    1.6820407026
H       -1.2950774340   -1.4933978152    1.4281262472
H       -2.2020405381   -0.0769655979   -0.7353250595
H       -1.0403854150    2.1768779531   -0.2452171427
C        0.6431351117    0.4274368049   -1.3415992410
H        0.4747906980    0.0061324619   -2.3349845938
13   
From optimize.out: Frame 6 / 24, Energy=    -286.7232004389
C        1.2374238336    0.0850877203   -0.0923493299
C        0.6062247266   -1.0791742999    0.7461778135
C       -0.7442973401   -1.0847327826    0.6054439724
C       -1.2923185271   -0.0123108620   -0.2059854837
C       -0.5915565165    1.2099794028   -0.0192184368
N        0.6908474242    1.2660187032    0.5258312819
H        2.3371009912   -0.0286442576   -0.0405553357
H        1.0728910987   -1.4249197467    1.6696900099
H       -1.2906684647   -1.4952266872    1.4514828511
H       -2.2612664166   -0.0850547063   -0.6902431566
H       -1.0477274520    2.1749474569   -0.2415518513
C        0.7082823053    0.4491570509   -1.3534280128
H        0.5750643374    0.0248730082   -2.3552943221
13   
From optimize.out: Frame 5 / 24, Energy=    -286.7077808485
C        1.2340746429    0.0782688425   -0.1052485954
C        0.5959057419   -1.0756980265    0.7276257030
C       -0.7568952705   -1.0849121481    0.6159258180
C       -1.3218842530   -0.0031174500   -0.1667592623
C       -0.6262947007    1.2013634187   -0.0129801159
N        0.6746126679    1.2548928647    0.5214561656
H        2.3306416340   -0.0443134998   -0.0416039974
H        1.0741836339   -1.4121405790    1.6461386423
H       -1.2893997249   -1.4990979414    1.4714295494
H       -2.3005952007   -0.0659333558   -0.6307724823
H       -1.0772559118    2.1666471788   -0.2374839281
C        0.7714373479    0.4624163757   -1.3953306615
H        0.6914693932    0.0216243202   -2.3923968354
13   
From optimize.out: Frame 4 / 24, Energy=    -286.6841359767
C        1.2359777671    0.0720563048   -0.1282561004
C        0.5852040953   -1.0717079910    0.7183787121
C       -0.7700116522   -1.0834267819    0.6266394598
C       -1.3556581042   -0.0031318425   -0.1446057409
C       -0.6576302433    1.1869661994   -0.0048613032
N        0.6628269412    1.2293838564    0.5152463400
H        2.3299108768   -0.0638311924   -0.0494006500
H        1.0627270597   -1.3939665678    1.6414713635
H       -1.2785866403   -1.4876046301    1.5010028124
H       -2.3433918767   -0.0664417380   -0.5877964161
H       -1.1006584875    2.1570626015   -0.2197341077
C        0.8340165163    0.4758294266   -1.4320018632
H        0.7952737478    0.0488123552   -2.4360825061
13   
From optimize.out: Frame 3 / 24, Energy=    -286.6560779110
C        1.2425929323    0.0663877366   -0.1603320715
C        0.5741591488   -1.0672570410    0.7174796797
C       -0.7835931552   -1.0804479248    0.6375610544
C       -1.3932072163   -0.0114068886   -0.1377687546
C       -0.6859131532    1.1673824255    0.0049445663
N        0.6550325995    1.1909711875    0.5073905303
H        2.3343194532   -0.0868014686   -0.0632511688
H        1.0398327998   -1.3709526479    1.6537456819
H       -1.2592109796   -1.4623272127    1.5392124139
H       -2.3892997239   -0.0845606616   -0.5596182579
H       -1.1185653114    2.1463258329   -0.1897097640
C        0.8960790472    0.4893803907   -1.4639797451
H        0.8877735589    0.1033062722   -2.4856741647
13   
From optimize.out: Frame 2 / 24, Energy=    -286.6250330893
C        1.2490224428    0.0620167518   -0.1932277685
C        0.5640141562   -1.0647853306    0.7162435624
C       -0.7948855502   -1.0760726756    0.6482960198
C       -1.4314864584   -0.0178516197   -0.1350778889
C       -0.7168700011    1.1484604353    0.0157884715
N        0.6477687350    1.1501540497    0.5038395307
H        2.3385444708   -0.1069277510   -0.0794596773
H        1.0146466085   -1.3515030607    1.6663352186
H       -1.2343451072   -1.4302083599    1.5780986082
H       -2.4349189770   -0.1026429590   -0.5367946105
H       -1.1382058222    2.1365617018   -0.1559901178
C        0.9557840170    0.5028331963   -1.4963870293
H        0.9809314858    0.1499656215   -2.5316643190
13   
From optimize.out: Frame 1 / 24, Energy=    -286.5848744712
C        1.2551828637    0.0595264952   -0.2273115827
C        0.5551735644   -1.0651823462    0.7145188711
C       -0.8028600931   -1.0696734845    0.6587604833
C       -1.4708239570   -0.0216434773   -0.1383964442
C       -0.7517024768    1.1304976397    0.0281369140
N        0.6412737483    1.1058518552    0.5065279581
H        2.3425034369   -0.1229319253   -0.0990858755
H        0.9861384731   -1.3372196464    1.6793816352
H       -1.2015216768   -1.3881734744    1.6179654619
H       -2.4801199395   -0.1206721701   -0.5217318352
H       -1.1603591527    2.1282073196   -0.1169144701
C        1.0120719186    0.5161437303   -1.5294166928
H        1.0750432910    0.1852694842   -2.5724344232
13   
C5H5N+CH->C6H6N atoms 1-13 frame 199 charge -0.000 sz -1.000 sz^2 0.929
C        1.2676542762    0.0552252343   -0.2591277063
C        0.5493393431   -1.0634033871    0.7159083057
C       -0.8088955128   -1.0583292801    0.6661856545
C       -1.5145141670   -0.0242684311   -0.1471278189
C       -0.7877891541    1.1130656314    0.0426220902
N        0.6398064456    1.0605312042    0.5063543335
H        2.3538357375   -0.1368839215   -0.1190813041
H        0.9554919829   -1.3233686777    1.6969571028
H       -1.1665338223   -1.3416159536    1.6496364715
H       -2.5291826518   -0.1377197101   -0.5132495832
H       -1.1877388060    2.1189704064   -0.0689330549
C        1.0678825315    0.5221350184   -1.5589149104
H        1.1606437971    0.2156618664   -2.6112295803
13   
C5H5N+CH->C6H6N atoms 1-13 frame 200 charge +0.000 sz -1.000 sz^2 0.972
C        1.2834101338    0.0499814679   -0.2897636499
C        0.5450697347   -1.0604919799    0.7189184327
C       -0.8139217497   -1.0444115299    0.6720290791
C       -1.5604696695   -0.0262860902   -0.1586762008
C       -0.8245285586    1.0959098620    0.0582192920
N        0.6409557131    1.0146805154    0.5046912039
H        2.3690053612   -0.1497678975   -0.1392688922
H        0.9237326233   -1.3097427677    1.7168896358
H       -1.1304195311   -1.2927047064    1.6770420975
H       -2.5802551443   -0.1542563566   -0.5081920494
H       -1.2178384075    2.1092741955   -0.0163167889
C        1.1234447481    0.5243171332   -1.5865752490
H        1.2418147465    0.2434981544   -2.6489969107
13   
C5H5N+CH->C6H6N atoms 1-13 frame 201 charge -0.000 sz -1.000 sz^2 0.668
C        1.3029965590    0.0390411377   -0.3113300604
C        0.5399022118   -1.0528184589    0.7173000811
C       -0.8127348842   -1.0201126414    0.6670872441
C       -1.6047124373   -0.0266226923   -0.1741144148
C       -0.8580863668    1.0785035256    0.0756360662
N        0.6419445073    0.9721185505    0.4954787123
H        2.3887076599   -0.1672818147   -0.1544915041
H        0.8808572588   -1.2905224769    1.7347450659
H       -1.0751146786   -1.2381630656    1.6882543536
H       -2.6318446265   -0.1624922972   -0.5056222540
H       -1.2559111290    2.0926144218    0.0452364209
C        1.1751721529    0.5166921779   -1.6016996063
H        1.3088237727    0.2590436336   -2.6764801045
13   
C5H5N+CH->C6H6N atoms 1-13 frame 202 charge +0.000 sz -1.000 sz^2 0.683
C        1.3187579631    0.0371950506   -0.3364845522
C        0.5389641162   -1.0499879453    0.7186595247
C       -0.8129162939   -1.0050547030    0.6570213474
C       -1.6446944712   -0.0329216281   -0.1820959868
C       -0.8870379152    1.0616302747    0.0907641736
N        0.6386455723    0.9344354780    0.4903348382
H        2.4047132067   -0.1704312170   -0.1560353103
H        0.8650441059   -1.2847623808    1.7281979565
H       -1.0430962863   -1.1770206282    1.6946833786
H       -2.6841527332   -0.1639912114   -0.4949723300
H       -1.2832671772    2.0771654753    0.0789435824
C        1.2145302551    0.5110821663   -1.6077310544
H        1.3745096578    0.2626612690   -2.6812855676
13   
C5H5N+CH->C6H6N atoms 1-13 frame 203 charge +0.000 sz -1.000 sz^2 0.674
C        1.3251337179    0.0565188232   -0.3698473132
C        0.5483518765   -1.0584357299    0.7254377672
C       -0.8172122037   -1.0134295569    0.6354935785
C       -1.6726774758   -0.0536790366   -0.1710766907
C       -0.9041765579    1.0471324316    0.0987692082
N        0.6239543683    0.9103962383    0.4958232771
H        2.4080568568   -0.1362398492   -0.1242405325
H        0.9237642602   -1.3116296347    1.6634783566
H       -1.0799331936   -1.1063825916    1.6916575092
H       -2.7337794056   -0.1490850464   -0.4630521140
H       -1.2808219204    2.0663741147    0.0437601900
C        1.2232288885    0.5117280256   -1.5968591001
H        1.4361107890    0.2367318119   -2.6293441363
13   
From optimize.out: Frame 1 / 54, Energy=    -286.5811491054
C        1.3315372559    0.0735813583   -0.4005509415
C        0.5564516358   -1.0652113323    0.7272362009
C       -0.8225970039   -1.0218862701    0.6143681054
C       -1.6986031660   -0.0732909688   -0.1587053561
C       -0.9204515127    1.0345008416    0.1044374430
N        0.6072529870    0.8894207307    0.5010289146
H        2.4044519232   -0.0995255327   -0.0928602197
H        0.9982801786   -1.3405710318    1.6085796689
H       -1.1324737579   -1.0456183481    1.6872679105
H       -2.7751545165   -0.1326263619   -0.4269341457
H       -1.2736620590    2.0581203287    0.0082236979
C        1.2292598306    0.5137349709   -1.5940023391
H        1.4957082050    0.2093716155   -2.5780889391
13   
From optimize.out: Frame 2 / 54, Energy=    -286.6297173087
C        1.3089317939    0.0900358497   -0.3922376319
C        0.5492381590   -1.0621555286    0.7236432299
C       -0.8274335431   -1.0474888850    0.6255061916
C       -1.6573755246   -0.0620890203   -0.1361956247
C       -0.8947849742    1.0553604860    0.1046568178
N        0.5953387291    0.9205602065    0.5232231955
H        2.3779192311   -0.0759912485   -0.0845378920
H        1.0254122504   -1.3503493148    1.6008718941
H       -1.1725911179   -1.1097772275    1.6847571106
H       -2.7227243196   -0.1132842053   -0.4174773378
H       -1.2397350303    2.0788009571   -0.0200728689
C        1.1892787962    0.5102259984   -1.6207113287
H        1.4685255499    0.1661519324   -2.5914257557
13   
From optimize.out: Frame 3 / 54, Energy=    -286.6621245938
C        1.2832964981    0.1039334492   -0.3735106157
C        0.5427678882   -1.0540220726    0.7134568852
C       -0.8291297425   -1.0676137564    0.6337176711
C       -1.6097227181   -0.0420018478   -0.1147409057
C       -0.8644278646    1.0825282402    0.1062692558
N        0.5828435107    0.9581784077    0.5448101847
H        2.3507373091   -0.0531305002   -0.0771606648
H        1.0461992505   -1.3537996433    1.5887302882
H       -1.2047985603   -1.1877868019    1.6720870068
H       -2.6625491676   -0.0885670452   -0.4132988328
H       -1.2062047622    2.1038911476   -0.0423377335
C        1.1404690783    0.4971387626   -1.6419744648
H        1.4305192804    0.1012516602   -2.5960480744
13   
From optimize.out: Frame 4 / 54, Energy=    -286.6845410421
C        1.2594153656    0.1146384698   -0.3492458843
C        0.5398746567   -1.0414418333    0.6958884433
C       -0.8272732213   -1.0779201697    0.6324809866
C       -1.5667764778   -0.0167621158   -0.0962943688
C       -0.8362189748    1.1112412107    0.1104366334
N        0.5686379294    0.9941508855    0.5624322585
H        2.3265868729   -0.0284956564   -0.0666405632
H        1.0693053992   -1.3534645699    1.5635628164
H       -1.2306656619   -1.2599651352    1.6465329645
H       -2.6099252863   -0.0577921704   -0.4100998199
H       -1.1778766449    2.1291638921   -0.0586250602
C        1.0893654113    0.4734952647   -1.6518613735
H        1.3955506318    0.0131519278   -2.5785670330
13   
From optimize.out: Frame 5 / 54, Energy=    -286.7000759993
C        1.2430897315    0.1226024172   -0.3252214909
C        0.5398986589   -1.0241262217    0.6720938985
C       -0.8250400740   -1.0774214755    0.6220684835
C       -1.5437926257    0.0133041961   -0.0765042354
C       -0.8197559561    1.1443413254    0.1190262915
N        0.5600984364    1.0335483189    0.5707698643
H        2.3123119566   -0.0033168496   -0.0565697026
H        1.0892399362   -1.3548128219    1.5285869564
H       -1.2474211701   -1.3266657579    1.6078349947
H       -2.5819942370   -0.0232616400   -0.3986708316
H       -1.1655867963    2.1586545771   -0.0627040349
C        1.0529968616    0.4353004712   -1.6601403446
H        1.3859552780   -0.0981465393   -2.5405698490
13   
From optimize.out: Frame 6 / 54, Energy=    -286.7113361270
C        1.2293583822    0.1305099058   -0.3032163586
C        0.5406430887   -1.0079752626    0.6488536671
C       -0.8224298364   -1.0724619536    0.6115257619
C       -1.5278492770    0.0440998579   -0.0563625670
C       -0.8085227968    1.1779258494    0.1267250995
N        0.5540965161    1.0737071548    0.5741894666
H        2.3012729374    0.0236226677   -0.0487670848
H        1.1067300345   -1.3623284141    1.4917682480
H       -1.2608848065   -1.3891868847    1.5661197928
H       -2.5626237970    0.0110500503   -0.3839045559
H       -1.1597065946    2.1886242426   -0.0653211153
C        1.0235763300    0.3933417968   -1.6679146665
H        1.3863398193   -0.2109290102   -2.4936956878
13   
From optimize.out: Frame 7 / 54, Energy=    -286.7214160013
C        1.2180014367    0.1386032657   -0.2832133348
C        0.5419356056   -0.9932948209    0.6263829836
C       -0.8194900508   -1.0634756017    0.6011561216
C       -1.5182584232    0.0754357742   -0.0358363061
C       -0.8020443870    1.2118959581    0.1333859432
N        0.5504421508    1.1148395455    0.5727249760
H        2.2931561668    0.0523777462   -0.0431479800
H        1.1218032792   -1.3761517474    1.4532871861
H       -1.2714184117   -1.4476804947    1.5217846259
H       -2.5510501735    0.0450040990   -0.3658914784
H       -1.1597903828    2.2189103453   -0.0668554836
C        1.0007627685    0.3480362325   -1.6752170235
H        1.3959504214   -0.3245003020   -2.4385602301
13   
From optimize.out: Frame 8 / 54, Energy=    -286.7318495863
C        1.2092019698    0.1502408228   -0.2675345792
C        0.5422519438   -0.9858936217    0.6084324794
C       -0.8164146553   -1.0509390865    0.5950871833
C       -1.5142248309    0.1055618608   -0.0140110093
C       -0.8002389963    1.2454681606    0.1357949119
N        0.5496690737    1.1609155465    0.5606093367
H        2.2876324971    0.0859612887   -0.0413942961
H        1.1317450983   -1.4061041125    1.4133577161
H       -1.2799621668   -1.4989888034    1.4766199709
H       -2.5473363442    0.0763578757   -0.3416732164
H       -1.1676719306    2.2478206014   -0.0708172862
C        0.9885544875    0.3005050101   -1.6818690193
H        1.4167938540   -0.4309055426   -2.3726021920
13   
From optimize.out: Frame 9 / 54, Energy=    -286.7409247229
C        1.2000484163    0.1635336090   -0.2520260688
C        0.5423267468   -0.9834848974    0.5921297469
C       -0.8119147323   -1.0389328601    0.5893126000
C       -1.5079236610    0.1339962309    0.0047778869
C       -0.7984852145    1.2791071989    0.1359522408
N        0.5501519509    1.2114302061    0.5428264421
H        2.2814113515    0.1195332533   -0.0397657812
H        1.1396915187   -1.4421886131    1.3726012721
H       -1.2872644204   -1.5422074028    1.4316850192
H       -2.5422410205    0.1052307258   -0.3181954834
H       -1.1793404843    2.2759023174   -0.0737284241
C        0.9775782136    0.2506293332   -1.6853436934
H        1.4359613351   -0.5325491011   -2.3002257572
13   
From optimize.out: Frame 10 / 54, Energy=    -286.7478307256
C        1.1904708233    0.1777332527   -0.2362055806
C        0.5424342593   -0.9844227091    0.5768025247
C       -0.8061469296   -1.0278322988    0.5830744494
C       -1.4993432898    0.1610326057    0.0210857691
C       -0.7960900858    1.3126571107    0.1345784862
N        0.5516776097    1.2645333001    0.5215103936
H        2.2746054638    0.1529333568   -0.0388368851
H        1.1460470801   -1.4812291021    1.3317827809
H       -1.2933756365   -1.5793928524    1.3862439501
H       -2.5352755991    0.1321878767   -0.2963268980
H       -1.1927052244    2.3031832016   -0.0764807150
C        0.9657058814    0.1987600654   -1.6856580634
H        1.4519956476   -0.6301438074   -2.2215702120
13   
From optimize.out: Frame 11 / 54, Energy=    -286.7539106231
C        1.1798328573    0.1914093484   -0.2182659749
C        0.5434592600   -0.9868966922    0.5613248089
C       -0.7983456903   -1.0196988972    0.5735588540
C       -1.4861960600    0.1862029724    0.0341881221
C       -0.7902660556    1.3455450563    0.1324009459
N        0.5546135407    1.3170305652    0.4998046163
H        2.2669876157    0.1854935982   -0.0410843609
H        1.1504977185   -1.5162728836    1.2932186603
H       -1.2972761023   -1.6109779052    1.3375095539
H       -2.5230739064    0.1570938524   -0.2803570975
H       -1.2029426018    2.3289582752   -0.0816893822
C        0.9454373969    0.1440184541   -1.6797430972