13   
From optimize.out: Frame 1 / 2, Energy=    -286.8377615165
C        1.2126239819    0.0361848842    0.0372083026
C        0.6307112700   -1.0403686793    0.9196791699
C       -0.6974578799   -1.0713100486    0.7283916818
C       -1.0553629537   -0.1046590976   -0.3430008212
C       -0.3915535410    1.3476091104   -0.2059449721
N        0.7796220783    1.4033690950    0.5670903529
H        2.2831182215    0.0044716673   -0.1695556388
H        1.1910480792   -1.5545772926    1.6922047449
H       -1.4275877708   -1.6330782555    1.3010729747
H       -2.0251434222   -0.0928111491   -0.8308302739
H       -1.0008124281    2.2234186946   -0.4092886851
C        0.1727068698    0.2393605796   -1.1059357165
H        0.3280874955    0.2423904911   -2.1810911198
13   
From optimize.out: Frame 23 / 24, Energy=    -286.8377615164
C        1.2130063983    0.0313231415    0.0292586756
C        0.6359703666   -1.0643934172    0.8925873916
C       -0.6974655259   -1.0725330145    0.7198379766
C       -1.0561605171   -0.0913312743   -0.3405507732
C       -0.3941963733    1.3512243698   -0.2072569567
N        0.7661055384    1.3859562726    0.5985514827
H        2.2853024513    0.0398258090   -0.1692447403
H        1.1877951973   -1.5580897011    1.6845782373
H       -1.4252733632   -1.6011073312    1.3257812473
H       -2.0087786727   -0.1042638334   -0.8622376186
H       -0.9964753872    2.2350932132   -0.3932250497
C        0.1773240336    0.2602657749   -1.1020053879
H        0.3128458539    0.1880299907   -2.1760744847
13   
From optimize.out: Frame 22 / 24, Energy=    -286.8377520210
C        1.2149335865    0.0377367030    0.0413406390
C        0.6439862894   -1.0802115862    0.8727955191
C       -0.6886650290   -1.0697503131    0.7090085949
C       -1.0478346032   -0.0615189609   -0.3234080116
C       -0.4003294277    1.3615773142   -0.2050724090
N        0.7491200507    1.3846212418    0.6151542120
H        2.2910332798    0.0791544796   -0.1292151794
H        1.1920507760   -1.5862209507    1.6594099630
H       -1.4206990539   -1.5992540913    1.3094932480
H       -1.9855617673   -0.0965170159   -0.8712007802
H       -0.9832847666    2.2551607360   -0.4064901491
C        0.1887049521    0.2866560553   -1.1037659772
H        0.2465457133    0.0885663882   -2.1680496696
13   
From optimize.out: Frame 21 / 24, Energy=    -286.8377116935
C        1.2170371988    0.0437274812    0.0478160478
C        0.6505316673   -1.0984122125    0.8529338074
C       -0.6756809410   -1.0850730700    0.6781144341
C       -1.0242598107   -0.0417723254   -0.3193836296
C       -0.4063078406    1.3633640330   -0.1842516190
N        0.7557459165    1.3914147151    0.6091522699
H        2.2967616852    0.0975460628   -0.0874595608
H        1.1703815197   -1.5844866601    1.6713867021
H       -1.4119874608   -1.5882578666    1.2978962534
H       -1.9433542311   -0.0943910290   -0.8972436642
H       -0.9771022839    2.2641760136   -0.3929735888
C        0.2146499516    0.3179150517   -1.1195195409
H        0.1335846289    0.0142498061   -2.1564679115
13   
From optimize.out: Frame 20 / 24, Energy=    -286.8375349105
C        1.2208327259    0.0645718709    0.0443330511
C        0.6549304871   -1.1090100419    0.8273175330
C       -0.6733804531   -1.1025788191    0.6420964213
C       -1.0348567486   -0.0163178002   -0.3028762266
C       -0.4266876293    1.3694300084   -0.1374463038
N        0.7568008426    1.4009850191    0.6050715060
H        2.3057130862    0.1162003815   -0.0558718040
H        1.1573646386   -1.5736226313    1.6708976110
H       -1.3985428733   -1.5950309760    1.2845458349
H       -1.9380693232   -0.0767962562   -0.9064945712
H       -0.9665584151    2.2835001496   -0.3818014202
C        0.2626823876    0.3219598830   -1.1474987528
H        0.0797712748   -0.0832907879   -2.1422728788
13   
From optimize.out: Frame 18 / 24, Energy=    -286.8371018224
C        1.2265336870    0.0872246608    0.0427411251
C        0.6591743819   -1.1132990792    0.8054644781
C       -0.6736006910   -1.1208388938    0.5885105144
C       -1.0607295207    0.0004673163   -0.3106280165
C       -0.4417050928    1.3660034170   -0.1058784668
N        0.7664966518    1.4162379146    0.5730897346
H        2.3196035320    0.0983931722   -0.0280619116
H        1.1577613151   -1.5443759774    1.6740950334
H       -1.3734363419   -1.6000687782    1.2670689954
H       -1.9633808095   -0.0620748129   -0.9188885673
H       -0.9562779147    2.2930954599   -0.3683707703
C        0.3014134146    0.3254108434   -1.1317039900
H        0.0381473881   -0.1461752426   -2.0874381584
13   
From optimize.out: Frame 17 / 24, Energy=    -286.8364606696
C        1.2249248807    0.0910039619    0.0560269432
C        0.6604303486   -1.1182403750    0.7952593721
C       -0.6646393264   -1.1192490552    0.5734550900
C       -1.0550411926    0.0010601057   -0.3142741466
C       -0.4335354021    1.3297109356   -0.1201695830
N        0.7655408550    1.4214933564    0.5608232336
H        2.3191168533    0.0698105141   -0.0014387275
H        1.1663817763   -1.5405839768    1.6621933954
H       -1.3597995372   -1.5918916539    1.2642647754
H       -1.9526776878   -0.0579503362   -0.9277490204
H       -0.9318385289    2.2534632522   -0.4254473426
C        0.2860904974    0.3708982554   -1.0946616276
H       -0.0249535363   -0.1095249841   -2.0282823620
13   
From optimize.out: Frame 16 / 24, Energy=    -286.8344899147
C        1.2316401081    0.0920237958    0.0429942224
C        0.6659265440   -1.1056351168    0.7996344714
C       -0.6398488404   -1.0933076335    0.5548643243
C       -1.0245879705    0.0204916033   -0.3264801466
C       -0.4445389292    1.2960930974   -0.0923361299
N        0.7480772179    1.3961483929    0.5935181486
H        2.3219024815    0.0530202886    0.0066663270
H        1.1366654643   -1.5224297447    1.6811653207
H       -1.3386153865   -1.5509864009    1.2600283445
H       -1.9089018145   -0.0421647472   -0.9486195454
H       -0.9448502082    2.2176612603   -0.3961577089
C        0.2723369462    0.3505809981   -1.1302273452
H       -0.0752056126   -0.1114957934   -2.0450502827
13   
From optimize.out: Frame 15 / 24, Energy=    -286.8316826201
C        1.2324872659    0.0925539836    0.0236231824
C        0.6596926164   -1.0970984604    0.7907400512
C       -0.6458748924   -1.0847736114    0.5549591378
C       -1.0539503777    0.0285685387   -0.3042814129
C       -0.4731131225    1.2772621368   -0.0663411163
N        0.7330874572    1.3765960549    0.5969934417
H        2.3222571038    0.0392663038    0.0074713303
H        1.1196787061   -1.5032038552    1.6808631147
H       -1.3273882485   -1.5351086105    1.2832694515
H       -1.9486264383   -0.0319090456   -0.9082952329
H       -0.9724265467    2.2031600830   -0.3543817028
C        0.3346834662    0.3504830798   -1.1922138882
H        0.0194930105   -0.1157965976   -2.1124063565
13   
From optimize.out: Frame 14 / 24, Energy=    -286.8270742286
C        1.2329937597    0.0914981400    0.0048068002
C        0.6521782649   -1.0906236438    0.7820536785
C       -0.6565118340   -1.0803493615    0.5596403010
C       -1.0881441987    0.0320214345   -0.2814245508
C       -0.5007042682    1.2626441864   -0.0463590393
N        0.7208125882    1.3577207441    0.5955511148
H        2.3227642783    0.0259517497    0.0052098052
H        1.1070535408   -1.4855492447    1.6789807930
H       -1.3193749565   -1.5242249867    1.3097679839
H       -1.9948317893   -0.0266790067   -0.8660561098
H       -0.9977126695    2.1935726492   -0.3189283270
C        0.3998263596    0.3560952012   -1.2467300579
H        0.1216509246   -0.1120778618   -2.1765123919
13   
From optimize.out: Frame 13 / 24, Energy=    -286.8207140748
C        1.2347427418    0.0869191958   -0.0164424513
C        0.6433533787   -1.0853450080    0.7753412105
C       -0.6705407740   -1.0779442651    0.5696503565
C       -1.1242011401    0.0302057011   -0.2610478289
C       -0.5289434636    1.2480577767   -0.0326407836
N        0.7098948590    1.3329029781    0.5922939127
H        2.3244967286    0.0086892352   -0.0019638369
H        1.0960008872   -1.4663318776    1.6791524879
H       -1.3127235194   -1.5129670329    1.3425163545
H       -2.0426266664   -0.0288443038   -0.8261819279
H       -1.0211233663    2.1849764985   -0.2902464755
C        0.4666419843    0.3692193949   -1.2933741514
H        0.2250283501   -0.0895382928   -2.2370568667
13   
From optimize.out: Frame 12 / 24, Energy=    -286.8114052276
C        1.2370927059    0.0806328829   -0.0387151249
C        0.6339546440   -1.0807048506    0.7696651524
C       -0.6861307873   -1.0765609586    0.5822163736
C       -1.1608716365    0.0257933922   -0.2420760574
C       -0.5572610329    1.2336124858   -0.0221461537
N        0.6997439227    1.3053524296    0.5881649129
H        2.3268217692   -0.0103821825   -0.0115112032
H        1.0858229691   -1.4465050122    1.6803410907
H       -1.3068045120   -1.5016203333    1.3780816848
H       -2.0907984733   -0.0346575940   -0.7878233093
H       -1.0434028311    2.1769457768   -0.2651686957
C        0.5337121645    0.3859551850   -1.3357139960
H        0.3281210976   -0.0578612210   -2.2953146742
13   
From optimize.out: Frame 11 / 24, Energy=    -286.8008814361
C        1.2387501920    0.0797600027   -0.0611515713
C        0.6238591252   -1.0786099715    0.7635544850
C       -0.7066215139   -1.0779771939    0.5926283610
C       -1.2077031559    0.0126778591   -0.2293473823
C       -0.5745568812    1.2219519118   -0.0173191797
N        0.6949397497    1.2838454074    0.5708635548
H        2.3314476375   -0.0218662581   -0.0233019359
H        1.0775362339   -1.4334121939    1.6814469526
H       -1.3000596718   -1.4940990033    1.4108635516
H       -2.1516851341   -0.0529615017   -0.7530269503
H       -1.0509023131    2.1738042635   -0.2478708292
C        0.6012410438    0.4081833732   -1.3543735653
H        0.4237546878   -0.0212966952   -2.3329654911
13   
From optimize.out: Frame 9 / 24, Energy=    -286.7836904830
C        1.2383503415    0.0849028727   -0.0825637484
C        0.6123049780   -1.0796015955    0.7536493220
C       -0.7329098629   -1.0830193609    0.6005521642
C       -1.2665358116   -0.0077536802   -0.2184190379
C       -0.5815464213    1.2143249144   -0.0197493021
N        0.6945957972    1.2721478138    0.5377018728
H        2.3368389869   -0.0243973449   -0.0361768505
H        1.0737389658   -1.4290843748    1.6766894790
H       -1.2931671460   -1.4941902164    1.4382460368
H       -2.2277015216   -0.0804703914   -0.7157922810
H       -1.0435665226    2.1760415209   -0.2436290703
C        0.6713616421    0.4368476045   -1.3467243303
H        0.5182365746    0.0142522376   -2.3437842540
13   
From optimize.out: Frame 7 / 24, Energy=    -286.7338247531
C        1.2357719268    0.0817244748   -0.0987115787
C        0.6011351385   -1.0774597126    0.7370274365
C       -0.7505109627   -1.0848212503    0.6106138876
C       -1.3069011019   -0.0077764353   -0.1866381046
C       -0.6086902805    1.2057297783   -0.0161415368
N        0.6828400257    1.2605311541    0.5236733623
H        2.3339150705   -0.0363727300   -0.0410725626
H        1.0735286102   -1.4186167332    1.6580738710
H       -1.2900426897   -1.4971360891    1.4613210746
H       -2.2806643822   -0.0756235655   -0.6609106938
H       -1.0622916462    2.1708535468   -0.2395454472
C        0.7394319931    0.4556968902   -1.3740954745
H        0.6324782983    0.0232706719   -2.3735942338
13   
From optimize.out: Frame 6 / 24, Energy=    -286.7232004389
C        1.2350624607    0.0750442211   -0.1171906546
C        0.5903510459   -1.0736269962    0.7228260468
C       -0.7637033363   -1.0841411679    0.6214867402
C       -1.3394145906   -0.0031249205   -0.1552604638
C       -0.6425594328    1.1938905334   -0.0087660413
N        0.6684952794    1.2416523987    0.5182329519
H        2.3302623340   -0.0544441698   -0.0456508546
H        1.0682370922   -1.4027073477    1.6437160885
H       -1.2837871869   -1.4931323313    1.4867795692
H       -2.3228088409   -0.0661972319   -0.6084657295
H       -1.0894030327    2.1616722982   -0.2282708732
C        0.8039191026    0.4693784278   -1.4143648707
H        0.7453491054    0.0357362860   -2.4150719089
13   
From optimize.out: Frame 5 / 24, Energy=    -286.7077808485
C        1.2395685733    0.0689793250   -0.1456673958
C        0.5792087405   -1.0692919518    0.7178907045
C       -0.7773838861   -1.0818098157    0.6325678574
C       -1.3760402987   -0.0076236557   -0.1408945271
C       -0.6729826108    1.1763358472    0.0004614629
N        0.6585960612    1.2085329109    0.5109820942
H        2.3323039150   -0.0762997865   -0.0569189095
H        1.0502997284   -1.3814742833    1.6481340389
H       -1.2680692549   -1.4738836869    1.5217435299
H       -2.3683113120   -0.0762769486   -0.5725009093
H       -1.1103785673    2.1512345301   -0.2034364650
C        0.8677049447    0.4831850835   -1.4493599143
H        0.8454839667    0.0783924318   -2.4630015669
13   
From optimize.out: Frame 4 / 24, Energy=    -286.6841359767
C        1.2460911827    0.0640095152   -0.1782303833
C        0.5686393314   -1.0659122012    0.7168071172
C       -0.7897372660   -1.0780673832    0.6434018718
C       -1.4140346762   -0.0149134203   -0.1363046740
C       -0.7027565511    1.1570871069    0.0108446570
N        0.6510803831    1.1687628768    0.5054584570
H        2.3366182548   -0.0977520339   -0.0720701015
H        1.0261291745   -1.3603702676    1.6605955582
H       -1.2456816376   -1.4448515763    1.5603701121
H       -2.4141208309   -0.0943991094   -0.5472000757
H       -1.1292515718    2.1410132395   -0.1713631474
C        0.9285640912    0.4966999653   -1.4816123150
H        0.9384601159    0.1286932881   -2.5106970764
13   
From optimize.out: Frame 3 / 24, Energy=    -286.6560779110
C        1.2523786271    0.0606600653   -0.2117965585
C        0.5591978205   -1.0650016239    0.7153039542
C       -0.7992300643   -1.0725864098    0.6539970375
C       -1.4529174446   -0.0199174157   -0.1368858308
C       -0.7358466603    1.1386743422    0.0225158769
N        0.6442302799    1.1260183077    0.5053041803
H        2.3407013072   -0.1156467914   -0.0901519886
H        0.9991154365   -1.3437214867    1.6734428788
H       -1.2164629716   -1.4073078430    1.5998179859
H       -2.4595443659   -0.1124652351   -0.5285884423
H       -1.1502749099    2.1320102520   -0.1347017874
C        0.9864495470    0.5100847471   -1.5143815202
H        1.0322033985    0.1691990914   -2.5538757857
13   
From optimize.out: Frame 2 / 24, Energy=    -286.6250330893
C        1.2619860882    0.0571801336   -0.2446674541
C        0.5519909644   -1.0642119142    0.7152768154
C       -0.8061524479   -1.0634851583    0.6628109553
C       -1.4946572082   -0.0230754041   -0.1431594574
C       -0.7713879588    1.1209883827    0.0360386577
N        0.6404733265    1.0811291894    0.5064332449
H        2.3486852696   -0.1305428164   -0.1099934924
H        0.9694206432   -1.3296638664    1.6889691500
H       -1.1824356087   -1.3627760893    1.6352421728
H       -2.5068839204   -0.1299716974   -0.5171047199
H       -1.1752949050    2.1231685324   -0.0907403428
C        1.0425169166    0.5194120111   -1.5455081336
H        1.1217388404    0.2018486968   -2.5935973960
13   
From optimize.out: Frame 1 / 24, Energy=    -286.5848744712
C        1.2762524976    0.0523636278   -0.2758462266
C        0.5470093501   -1.0618145860    0.7175509797
C       -0.8116384099   -1.0507341431    0.6693745040
C       -1.5395928135   -0.0253694996   -0.1534299541
C       -0.8078384298    1.1037034560    0.0511337305
N        0.6404336191    1.0355097562    0.5054467373
H        2.3621140418   -0.1439149116   -0.1300979911
H        0.9381603967   -1.3159328025    1.7078346022
H       -1.1468256808   -1.3149243103    1.6645921562
H       -2.5570537209   -0.1467440204   -0.5104896068
H       -1.2041646359    2.1136790303   -0.0402195241
C        1.0982037143    0.5233258331   -1.5740095958
H        1.2049400714    0.2308525702   -2.6318398114
13   
C5H5N+CH->C6H6N atoms 1-13 frame 199 charge -0.000 sz -1.000 sz^2 0.929
C        1.2940674023    0.0440286697   -0.3014982581
C        0.5422580078   -1.0563167017    0.7180378632
C       -0.8132759583   -1.0311901393    0.6693401524
C       -1.5845428248   -0.0264692405   -0.1670763652
C       -0.8427878667    1.0864388126    0.0676960207
N        0.6414937309    0.9915219102    0.4996785487
H        2.3797256782   -0.1592974833   -0.1475517443
H        0.9004034927   -1.2992847184    1.7266050438
H       -1.1003273292   -1.2630277794    1.6831428546
H       -2.6083257574   -0.1587376558   -0.5067937851
H       -1.2385543478    2.1002093621    0.0171752382
C        1.1515904069    0.5201682803   -1.5948046392
H        1.2782753654    0.2519566834   -2.6639509297
13   
C5H5N+CH->C6H6N atoms 1-13 frame 201 charge -0.000 sz -1.000 sz^2 0.668
C        1.3136134899    0.0377976077   -0.3282742044
C        0.5392703077   -1.0509118161    0.7182158065
C       -0.8128570824   -1.0099695672    0.6603068248
C       -1.6316444598   -0.0308656751   -0.1794908265
C       -0.8775882199    1.0671376512    0.0858264064
N        0.6397223344    0.9467351155    0.4920137827
H        2.3994890461   -0.1694032619   -0.1555314168
H        0.8702054697   -1.2866424582    1.7303349127
H       -1.0535469899   -1.1969773294    1.6925849648
H       -2.6670795300   -0.1635019705   -0.4984484321
H       -1.2743382482    2.0822079633    0.0679416698
C        1.2016838930    0.5129132567   -1.6057624085
H        1.3530699894    0.2614804840   -2.6797170794
13   
C5H5N+CH->C6H6N atoms 1-13 frame 202 charge +0.000 sz -1.000 sz^2 0.683
C        1.3234514751    0.0514202462   -0.3610445494
C        0.5458749162   -1.0562067821    0.7236493281
C       -0.8160787280   -1.0112198519    0.6411736799
C       -1.6652941606   -0.0482021948   -0.1739841318
C       -0.8996545274    1.0509576872    0.0966570800
N        0.6278306422    0.9167389912    0.4943751526
H        2.4071746348   -0.1452612409   -0.1326295840
H        0.9082709486   -1.3045407103    1.6805546218
H       -1.0702137763   -1.1250204361    1.6924558848
H       -2.7206854091   -0.1530180378   -0.4714742624
H       -1.2814671014    2.0692214150    0.0530433274
C        1.2209337542    0.5115576156   -1.5997276650
H        1.4198573317    0.2435732986   -2.6430488819
13   
C5H5N+CH->C6H6N atoms 1-13 frame 203 charge +0.000 sz -1.000 sz^2 0.674
C        1.3298448832    0.0690719497   -0.3924363674
C        0.5543109736   -1.0634206277    0.7267608980
C       -0.8211738704   -1.0196512696    0.6199512963
C       -1.6917513395   -0.0681077873   -0.1619749408
C       -0.9161502515    1.0378392084    0.1029394014
N        0.6116669473    0.8949642876    0.4996531316
H        2.4054046608   -0.1092286544   -0.1011536328
H        0.9785865796   -1.3329221927    1.6230886861
H       -1.1185879624   -1.0616775562    1.6884280250
H       -2.7642196068   -0.1369761806   -0.4364796603
H       -1.2755543183    2.0603016982    0.0176155357
C        1.2276659302    0.5132045611   -1.5947573443
H        1.4799573743    0.2166025635   -2.5916350286
13   
From optimize.out: Frame 1 / 54, Energy=    -286.5811491054
C        1.3121343684    0.0877046992   -0.3934154000
C        0.5502601110   -1.0625884522    0.7241522554
C       -0.8267483380   -1.0438616961    0.6239282300
C       -1.6632163516   -0.0636760294   -0.1393846368
C       -0.8984212194    1.0524052460    0.1046257384
N        0.5970266530    0.9161485961    0.5200788741
H        2.3816781865   -0.0793254117   -0.0857169378
H        1.0215683793   -1.3489640001    1.6019638746
H       -1.1669075873   -1.1006876724    1.6851128221
H       -2.7301522418   -0.1160244589   -0.4188171083
H       -1.2445415606    2.0758710788   -0.0160640208
C        1.1949430132    0.5107231237   -1.6169273968
H        1.4723765873    0.1722749771   -2.5895362942
13   
From optimize.out: Frame 2 / 54, Energy=    -286.6297173087
C        1.2858315028    0.1025591533   -0.3753624794
C        0.5434077157   -1.0548263680    0.7144641852
C       -0.8289620100   -1.0656236626    0.6329056602
C       -1.6144349745   -0.0439882136   -0.1168625045
C       -0.8674297966    1.0798416948    0.1061098062
N        0.5840791289    0.9544584461    0.5426755060
H        2.3534252555   -0.0553911374   -0.0778901787
H        1.0441436805   -1.3534584497    1.5899309386
H       -1.2016136539   -1.1800726472    1.6733399189
H       -2.6684997248   -0.0910112579   -0.4137120338
H       -1.2095204792    2.1014100469   -0.0401360216
C        1.1452957386    0.4984329238   -1.6398718111
H        1.4342776171    0.1076694717   -2.5955909859
13   
From optimize.out: Frame 3 / 54, Energy=    -286.6621245938
C        1.2617575875    0.1135885391   -0.3516257289
C        0.5401584201   -1.0426756823    0.6976115270
C       -0.8274553058   -1.0769093338    0.6326022786
C       -1.5709885739   -0.0192375869   -0.0981035746
C       -0.8389856559    1.1084250901    0.1100279039
N        0.5700311893    0.9906227646    0.5607039148
H        2.3289555077   -0.0309118010   -0.0676723573
H        1.0670391864   -1.3534974333    1.5660312003
H       -1.2281286594   -1.2528860039    1.6490392626
H       -2.6150865494   -0.0608105191   -0.4104135738
H       -1.1806550197    2.1266851832   -0.0570276262
C        1.0943775742    0.4758141798   -1.6508916819
H        1.3989802989    0.0217926035   -2.5802815445
13   
From optimize.out: Frame 4 / 54, Energy=    -286.6845410421
C        1.2447272769    0.1218035921   -0.3276312616
C        0.5398962514   -1.0258630669    0.6744806142
C       -0.8252640702   -1.0774714971    0.6231129113
C       -1.5460980248    0.0102883898   -0.0784892880
C       -0.8214072819    1.1410212130    0.1181647044
N        0.5609549916    1.0295965529    0.5699335594
H        2.3137438044   -0.0058424139   -0.0575798619
H        1.0872403992   -1.3546775853    1.5320952158
H       -1.2457405061   -1.3199753411    1.6117166008
H       -2.5847958654   -0.0267252305   -0.3998172181
H       -1.1668195315    2.1556965092   -0.0622948927
C        1.0566448149    0.4391316061   -1.6593099211
H        1.3869177416   -0.0869827284   -2.5443811627
13   
From optimize.out: Frame 5 / 54, Energy=    -286.7000759993
C        1.2306710852    0.1297539579   -0.3053200267
C        0.5405719220   -1.0095192778    0.6510754095
C       -0.8226793725   -1.0729360788    0.6125336353
C       -1.5293734449    0.0411558241   -0.0582880900
C       -0.8095966754    1.1747152032    0.1259891013
N        0.5546702936    1.0698680111    0.5738625561
H        2.3023282563    0.0210472774   -0.0495130071
H        1.1050579990   -1.3616099312    1.4952880789
H       -1.2595976966   -1.3832099288    1.5701077235
H       -2.5644755913    0.0077698877   -0.3853161968
H       -1.1602687358    2.1857591732   -0.0650709251
C        1.0263889028    0.3973530033   -1.6671714493
H        1.3863030576   -0.2001471212   -2.4981768097
13   
From optimize.out: Frame 6 / 54, Energy=    -286.7113361270
C        1.2190916124    0.1378263680   -0.2851334647
C        0.5418115343   -0.9947040256    0.6285399891
C       -0.8197722467   -1.0643382195    0.6021515239
C       -1.5191790683    0.0724277775   -0.0378066626
C       -0.8026662624    1.2086350999    0.1327465556
N        0.5507929406    1.1108911657    0.5728655554
H        2.2939353117    0.0496174892   -0.0436873690
H        1.1203563685   -1.3748248182    1.4569810596
H       -1.2704072700   -1.4420655770    1.5260404466
H       -2.5521611486    0.0417447825   -0.3676205894
H       -1.1597823398    2.2160031223   -0.0667081966
C        1.0029526875    0.3523852035   -1.6745160558
H        1.3950278807   -0.3135983684   -2.4438527921
13   
From optimize.out: Frame 8 / 54, Energy=    -286.7318495863
C        1.2100652299    0.1490991355   -0.2690727229
C        0.5422209098   -0.9866197066    0.6101934901
C       -0.8167163630   -1.0521689649    0.5956825685
C       -1.5146205412    0.1026063806   -0.0161521514
C       -0.8004161118    1.2421746038    0.1355585832
N        0.5497449155    1.1563953210    0.5617979256
H        2.2881743895    0.0826666194   -0.0415663389
H        1.1307697692   -1.4031656750    1.4172749444
H       -1.2791239929   -1.4939552691    1.4810507901
H       -2.5477006845    0.0732819546   -0.3440491172
H       -1.1668987217    2.2449843987   -0.0704286187
C        0.9897521649    0.3051679983   -1.6812164340
H        1.4147490364   -0.4204667962   -2.3790729187
13   
From optimize.out: Frame 9 / 54, Energy=    -286.7409247229
C        1.2009438483    0.1622332631   -0.2535431644
C        0.5423194293   -0.9837205271    0.5937245361
C       -0.8123549302   -1.0401073503    0.5898774895
C       -1.5085400630    0.1312146833    0.0029398927
C       -0.7986567754    1.2758165128    0.1359368504
N        0.5501047142    1.2064886889    0.5445660258
H        2.2820199253    0.1162491286   -0.0399250881
H        1.1389141726   -1.4386587035    1.3765882072
H       -1.2865500889   -1.5379796112    1.4360807102
H       -2.5427394625    0.1024062847   -0.3204921558
H       -1.1781990264    2.2731552677   -0.0734436466
C        0.9786519504    0.2555083429   -1.6850037888
H        1.4340863064   -0.5226059797   -2.3073058682
13   
From optimize.out: Frame 10 / 54, Energy=    -286.7478307256
C        1.1914113229    0.1763388773   -0.2377591195
C        0.5424237018   -0.9843306179    0.5783076259
C       -0.8067133158   -1.0289223507    0.5836870228
C       -1.5001858643    0.1583776901    0.0194843691
C       -0.7963252824    1.3093625793    0.1347133860
N        0.5515277932    1.2593186871    0.5236035851
H        2.2752737878    0.1496535363   -0.0389281008
H        1.1454229773   -1.4773954075    1.3357910716
H       -1.2927755278   -1.5757413189    1.3907061683
H       -2.5359595889    0.1295407407   -0.2984743474
H       -1.1913928348    2.3005042757   -0.0762104458
C        0.9668717197    0.2038535193   -1.6856271929
H        1.4504211116   -0.6205602108   -2.2292940225
13   
From optimize.out: Frame 11 / 54, Energy=    -286.7539106231
C        1.1808996433    0.1900378957   -0.2200649766
C        0.5433564719   -0.9866485987    0.5628769298
C       -0.7991280065   -1.0205145229    0.5745130875
C       -1.4875144775    0.1836788627    0.0328742049
C       -0.7908500952    1.3422470200    0.1326193118
N        0.5543191226    1.3117660866    0.5019812935
H        2.2677515412    0.1822284244   -0.0408589818
H        1.1500514040   -1.5127586579    1.2970859092
H       -1.2968849596   -1.6078105243    1.3423966882
H       -2.5242975044    0.1545962561   -0.2819585651
H       -1.2019159873    2.3263735249   -0.0811670518
C        0.9474699409    0.1495079980   -1.6803362560
H        1.4567429067   -0.7127037647   -2.1399615937
13   
From optimize.out: Frame 14 / 54, Energy=    -286.7796002471
C        1.1712676877    0.2031165630   -0.2014382794
C        0.5454857897   -0.9867701553    0.5488908687
C       -0.7919998146   -1.0125600036    0.5640702278
C       -1.4738036583    0.2069409544    0.0453504147
C       -0.7826803798    1.3738599483    0.1297428054
N        0.5576312031    1.3624485739    0.4773591910
H        2.2608615997    0.2139066107   -0.0445031494
H        1.1549732771   -1.5443657775    1.2596591816
H       -1.3026979244   -1.6380814303    1.2895560443
H       -2.5115512790    0.1781054135   -0.2668393127
H       -1.2105855032    2.3507158862   -0.0853007211
C        0.9244643804    0.0924345202   -1.6712349145
H        1.4586346217   -0.7997511036   -2.0453123564
13   
From optimize.out: Frame 15 / 54, Energy=    -286.7942036334
C        1.1625667897    0.2156319678   -0.1822111182
C        0.5486192890   -0.9847460472    0.5362849107
C       -0.7854954866   -1.0047798145    0.5527963529
C       -1.4595981022    0.2284299296    0.0572380202
C       -0.7723828048    1.4042655725    0.1262328620
N        0.5612816883    1.4114046673    0.4501119160
H        2.2546452207    0.2447357960   -0.0494160247
H        1.1603180127   -1.5727941069    1.2233224136
H       -1.3102469815   -1.6671112316    1.2330446500
H       -2.4983263408    0.2003075732   -0.2525170454
H       -1.2178128870    2.3737173420   -0.0884481440
C        0.8989948560    0.0333145394   -1.6592402850
H        1.4574367467   -0.8823761876   -1.9471985080
13   
From optimize.out: Frame 16 / 54, Energy=    -286.8077879506
C        1.1576710966    0.2273134626   -0.1740194981
C        0.5511589603   -0.9740005031    0.5278949139
C       -0.7864838214   -0.9885737949    0.5532900958
C       -1.4598432683    0.2494910916    0.0766945947
C       -0.7729357096    1.4301531101    0.1199042312
N        0.5580799718    1.4484196233    0.4087297461
H        2.2496614140    0.2706485577   -0.0510124434
H        1.1704903612   -1.5989619235    1.1768866876
H       -1.3258921198   -1.6945350217    1.1733674629
H       -2.5023204301    0.2224000299   -0.2184821346
H       -1.2363880430    2.3951853299   -0.0777046189
C        0.9075415348   -0.0307268686   -1.6541886758
H        1.4892600535   -0.9568130932   -1.8613603612
13   
From optimize.out: Frame 17 / 54, Energy=    -286.8183558252
C        1.1631002892    0.2412350652   -0.1475571728
C        0.5557969009   -0.9626427388    0.5278819830
C       -0.7841807381   -0.9752780935    0.5516026919
C       -1.4514040777    0.2608029497    0.1004487850
C       -0.7544208723    1.4503523898    0.1030322340
N        0.5642881065    1.4889132250    0.3614920097
H        2.2568523835    0.2975897591   -0.0500979762
H        1.1725754768   -1.6300554928    1.1372991417
H       -1.3440951542   -1.7245298813    1.0958160369
H       -2.4968829569    0.2348794130   -0.1865006843
H       -1.2406280651    2.4053924288   -0.0933140099
C        0.8772199735   -0.0784495773   -1.6304109235