
Running Job 1 of 1 optimize.in
qchem optimize.in_30087.0 ./optimize.d/ 1
/home/leeping/opt/qchem/5.0.2-openmp/exe/qcprog.exe_s optimize.in_30087.0 ./optimize.d/
Check license passed

                  Welcome to Q-Chem
     A Quantum Leap Into The Future Of Chemistry


 Q-Chem 5.0, Q-Chem, Inc., Pleasanton, CA (2017)

 Yihan Shao,  Zhengting Gan,  E. Epifanovsky,  A. T. B. Gilbert,  M. Wormit,  
 J. Kussmann,  A. W. Lange,  A. Behn,  Jia Deng,  Xintian Feng,  D. Ghosh,  
 M. Goldey,  P. R. Horn,  L. D. Jacobson,  I. Kaliman,  T. Kus,  A. Landau,  
 Jie Liu,  E. I. Proynov,  R. M. Richard,  R. P. Steele,  E. J. Sundstrom,  
 H. L. Woodcock III,  P. M. Zimmerman,  D. Zuev,  B. Albrecht,  E. Alguire,  
 S. A. Baeppler,  D. Barton,  Z. Benda,  Y. A. Bernard,  E. J. Berquist,  
 K. B. Bravaya,  H. Burton,  D. Casanova,  Chun-Min Chang,  Yunqing Chen,  
 A. Chien,  K. D. Closser,  M. P. Coons,  S. Dasgupta,  A. L. Dempwolff,  
 M. Diedenhofen,  Hainam Do,  R. G. Edgar,  Po-Tung Fang,  S. Fatehi,  
 Qingguo Feng,  J. Fosso-Tande,  Qinghui Ge,  A. Ghysels,  G. Gidofalvi,  
 J. Gomes,  J. Gonthier,  A. Gunina,  M. W. D. Hanson-Heine,  
 P. H. P. Harbach,  A. W. Hauser,  J. E. Herr,  E. G. Hohenstein,  
 Z. C. Holden,  Kerwin Hui,  T.-C. Jagau,  Hyunjun Ji,  B. Kaduk,  
 K. Khistyaev,  Jaehoon Kim,  P. Klunzinger,  K. Koh,  D. Kosenkov,  
 L. Koulias,  T. Kowalczyk,  C. M. Krauter,  A. Kunitsa,  Ka Un Lao,  
 A. Laurent,  K. V. Lawler,  Joonho Lee,  D. Lefrancois,  S. Lehtola,  
 D. S. Levine,  Yi-Pei Li,  You-Sheng Lin,  Fenglai Liu,  E. Livshits,  
 A. Luenser,  P. Manohar,  E. Mansoor,  S. F. Manzer,  Shan-Ping Mao,  
 Yuezhi Mao,  N. Mardirossian,  A. V. Marenich,  T. Markovich,  
 L. A. Martinez-Martinez,  S. A. Maurer,  N. J. Mayhall,  S. C. McKenzie,  
 J.-M. Mewes,  A. F. Morrison,  J. W. Mullinax,  K. Nanda,  
 T. S. Nguyen-Beck,  R. Olivares-Amaya,  J. A. Parkhill,  T. M. Perrine,  
 F. Plasser,  S. Prager,  A. Prociuk,  E. Ramos,  D. R. Rehn,  F. Rob,  
 M. Schneider,  N. Sergueev,  S. M. Sharada,  S. Sharma,  D. W. Small,  
 T. Stauch,  T. Stein,  Yu-Chuan Su,  A. J. W. Thom,  A. Tkatchenko,  
 T. Tsuchimochi,  L. Vogt,  O. Vydrov,  M. A. Watson,  J. Wenzel,  
 M. de Wergifosse,  T. A. Wesolowski,  A. White,  J. Witte,  A. Yamada,  
 Jun Yang,  K. Yao,  S. Yeganeh,  S. R. Yost,  Zhi-Qiang You,  A. Zech,  
 Igor Ying Zhang,  Xing Zhang,  Yan Zhao,  Ying Zhu,  B. R. Brooks,  
 G. K. L. Chan,  C. J. Cramer,  M. S. Gordon,  W. J. Hehre,  A. Klamt,  
 M. W. Schmidt,  C. D. Sherrill,  D. G. Truhlar,  A. Aspuru-Guzik,  R. Baer,  
 A. T. Bell,  N. A. Besley,  Jeng-Da Chai,  R. A. DiStasio Jr.,  A. Dreuw,  
 B. D. Dunietz,  T. R. Furlani,  Chao-Ping Hsu,  Yousung Jung,  Jing Kong,  
 D. S. Lambrecht,  WanZhen Liang,  C. Ochsenfeld,  V. A. Rassolov,  
 L. V. Slipchenko,  J. E. Subotnik,  T. Van Voorhis,  J. M. Herbert,  
 A. I. Krylov,  P. M. W. Gill,  M. Head-Gordon

 Contributors to earlier versions of Q-Chem not listed above: 
 R. D. Adamson,  B. Austin,  J. Baker,  G. J. O. Beran,  K. Brandhorst,  
 S. T. Brown,  E. F. C. Byrd,  A. K. Chakraborty,  C.-L. Cheng,  
 Siu Hung Chien,  D. M. Chipman,  D. L. Crittenden,  H. Dachsel,  
 R. J. Doerksen,  A. D. Dutoi,  L. Fusti-Molnar,  W. A. Goddard III,  
 A. Golubeva-Zadorozhnaya,  S. R. Gwaltney,  G. Hawkins,  A. Heyden,  
 S. Hirata,  G. Kedziora,  F. J. Keil,  C. Kelley,  Jihan Kim,  R. A. King,  
 R. Z. Khaliullin,  P. P. Korambath,  W. Kurlancheek,  A. M. Lee,  M. S. Lee,  
 S. V. Levchenko,  Ching Yeh Lin,  D. Liotard,  R. C. Lochan,  I. Lotan,  
 P. E. Maslen,  N. Nair,  D. P. O'Neill,  D. Neuhauser,  E. Neuscamman,  
 C. M. Oana,  R. Olson,  B. Peters,  R. Peverati,  P. A. Pieniazek,  
 Y. M. Rhee,  J. Ritchie,  M. A. Rohrdanz,  E. Rosta,  N. J. Russ,  
 H. F. Schaefer III,  N. E. Schultz,  N. Shenvi,  A. C. Simmonett,  A. Sodt,  
 D. Stuck,  K. S. Thanthiriwatte,  V. Vanovschi,  Tao Wang,  A. Warshel,  
 C. F. Williams,  Q. Wu,  X. Xu,  W. Zhang

 Please cite Q-Chem as follows:
 Y. Shao et al., Mol. Phys. 113, 184-215 (2015)
 DOI: 10.1080/00268976.2014.952696

 Q-Chem 5.0.2 for Intel X86 EM64T Linux

 Parts of Q-Chem use Armadillo 5.200.1 (Boston Tea Smuggler).
 http://arma.sourceforge.net/

 Q-Chem begins on Tue Mar  1 11:00:42 2022  

Host: 
0

     Scratch files written to ./optimize.d//
 Dec517 15110_ 26548  26544 5633   
Processing $rem in /home/leeping/opt/qchem/5.0.2-openmp/config/preferences.
 MEM_STATIC 2000
 MEM_TOTAL  8000
 SYMMETRY   OFF
 SYM_IGNORE TRUE 

Checking the input file for inconsistencies... 	...done.

--------------------------------------------------------------
User input:
--------------------------------------------------------------
$molecule
0 2
C        1.4409046990    0.0629981869   -0.5651728416
C        0.5581024731   -1.0998890994   -0.9627523535
C       -0.9203716989   -0.6618279646   -1.8719528887
C       -1.3285943967   -0.1110408063   -0.3868352949
C       -0.7608343953    0.7255995047   -1.3986268366
N        0.8419694141    1.2030975964   -1.3684242769
H        2.4761512958    0.1586498407   -0.0491117674
H        0.5807283859   -2.1956017844   -1.0287875738
H       -1.3496487149   -0.4236350327   -2.9133844742
H       -2.3868023414   -0.0087028593   -0.1698006820
H       -1.2505366251    1.6645343021   -1.6158442856
C        0.1309913711   -0.2585945210    0.2737761833
H        0.4092771381   -0.5369309427    1.2726827931
$end

$rem
method                b3lyp
basis                 6-31g(d)
unrestricted          true
symmetry              off
sym_ignore            true
incdft                false
incfock               0
scf_convergence       8
thresh                14
jobtype               opt
scf_guess             read
scf_algorithm         diis
max_scf_cycles        100
geom_opt_tol_gradient 600
geom_opt_tol_displacement 2400
geom_opt_tol_energy   200
geom_opt_max_cycles   100
$end

--------------------------------------------------------------
 ----------------------------------------------------------------
             Standard Nuclear Orientation (Angstroms)
    I     Atom           X                Y                Z
 ----------------------------------------------------------------
    1      C       1.4409046990     0.0629981869    -0.5651728416
    2      C       0.5581024731    -1.0998890994    -0.9627523535
    3      C      -0.9203716989    -0.6618279646    -1.8719528887
    4      C      -1.3285943967    -0.1110408063    -0.3868352949
    5      C      -0.7608343953     0.7255995047    -1.3986268366
    6      N       0.8419694141     1.2030975964    -1.3684242769
    7      H       2.4761512958     0.1586498407    -0.0491117674
    8      H       0.5807283859    -2.1956017844    -1.0287875738
    9      H      -1.3496487149    -0.4236350327    -2.9133844742
   10      H      -2.3868023414    -0.0087028593    -0.1698006820
   11      H      -1.2505366251     1.6645343021    -1.6158442856
   12      C       0.1309913711    -0.2585945210     0.2737761833
   13      H       0.4092771381    -0.5369309427     1.2726827931
 ----------------------------------------------------------------
 Nuclear Repulsion Energy =   277.9503914139 hartrees
 There are       25 alpha and       24 beta electrons
 Requested basis set is 6-31G(d)
 There are 40 shells and 117 basis functions

 Total QAlloc Memory Limit   8000 MB
 Mega-Array Size      1956 MB
 MEM_STATIC part      2000 MB
 A cutoff of  1.0D-14 yielded    812 shell pairs
 There are      7084 function pairs
 
 -------------------------------------------------------
 OpenMP Integral Computing Module                       
 Release: version 1.0, May 2013, Q-Chem Inc. Pittsburgh 
 -------------------------------------------------------
 Integral Job Info:
 Integral job number is                      11
 Integral operator is                         1
 short-range coefficients                     0
 long-range coefficients              100000000
 Omega coefficients                           0
 if combine SR and LR in K                    0
 Integral screening is                        0
 Integral computing path is                   2
 max size of driver memory is            800000
 size of driver memory is                593474
 size of scratch memory is              2361544
 max col of scratch BK array               1296
 max len of scratch array in speh3          155
 max len of scratch index in speh4           18
 max int batch size is                      520
 min int batch size is                       52
 fixed nKL is                                52
 max L of basis functions is                  2
 order of int derivative is                   0
 number of shells is                         40
 number of basis is                         117
 number of cartesian basis is               117
 number of contracted shell pairs           812
 number of primitive shell pairs           3599
 maxK2 (contraction) of shell pair           36
 max number of K2 of shell pair               1
 max number of CS2 of shell pair             84
 max number of PS2 of shell pair            420
 mem total for path MDJ                  535308
 -------------------------------------------------------
 Smallest overlap matrix eigenvalue = 2.13E-03

 Scale SEOQF with 1.000000e-01/1.000000e-01/1.000000e-01

 Standard Electronic Orientation quadrupole field applied
 Nucleus-field energy     =    -0.0000000031 hartrees
 Guess MOs from SCF MO coefficient file
 Reading MOs from coefficient file
 Reading MOs from coefficient file
 An unrestricted hybrid HF-DFT SCF calculation will be
 performed using Pulay DIIS extrapolation
 Exchange:     0.2000 Hartree-Fock + 0.0800 Slater + 0.7200 B88
 Correlation:  0.1900 VWN1RPA + 0.8100 LYP
 Using SG-1 standard quadrature grid
 SCF converges when DIIS error is below 1.0E-08
Using Q-Chem read-in guess as SCF_GUESS READ specified.

 using 4 threads for integral computing
 -------------------------------------------------------
 OpenMP Integral computing Module                
 Release: version 1.0, May 2013, Q-Chem Inc. Pittsburgh 
 -------------------------------------------------------
 -------------------------------------------------------
 OpenMP BLAS3 based DFT computing Module                
 Release: version 1.0, May 2013, Q-Chem Inc. Pittsburgh 
 -------------------------------------------------------
 ---------------------------------------
  Cycle       Energy         DIIS Error
 ---------------------------------------
    1    -286.6335618128      6.39E-10
    2    -286.6335618128      7.27E-10 Convergence criterion met
 ---------------------------------------
 <S^2> = 0.7556
 SCF time:  CPU 5.31 s  wall 3.59 s
 SCF   energy in the final basis set = -286.63356181
 Total energy in the final basis set = -286.63356181
 
 --------------------------------------------------------------
 
                    Orbital Energies (a.u.)
 --------------------------------------------------------------
 
 Alpha MOs
 -- Occupied --
-14.346 -10.251 -10.234 -10.229 -10.220 -10.219 -10.210  -0.951
 -0.828  -0.765  -0.641  -0.581  -0.561  -0.545  -0.523  -0.475
 -0.408  -0.388  -0.373  -0.354  -0.339  -0.284  -0.249  -0.228
 -0.211
 -- Virtual --
  0.008   0.039   0.070   0.103   0.121   0.129   0.133   0.141
  0.174   0.184   0.193   0.220   0.251   0.274   0.314   0.330
  0.489   0.499   0.525   0.547   0.564   0.571   0.585   0.598
  0.615   0.653   0.674   0.693   0.702   0.714   0.758   0.781
  0.794   0.799   0.831   0.836   0.847   0.852   0.901   0.916
  0.973   1.005   1.051   1.109   1.213   1.218   1.288   1.385
  1.423   1.448   1.486   1.567   1.583   1.628   1.680   1.719
  1.749   1.771   1.831   1.861   1.904   1.913   1.940   2.006
  2.028   2.041   2.098   2.178   2.222   2.283   2.328   2.349
  2.392   2.438   2.462   2.528   2.553   2.612   2.624   2.677
  2.702   2.734   2.755   2.818   2.847   3.724   4.160   4.290
  4.339   4.481   4.509   4.632
 
 Beta MOs
 -- Occupied --
-14.327 -10.252 -10.233 -10.229 -10.220 -10.217 -10.211  -0.944
 -0.820  -0.737  -0.638  -0.577  -0.558  -0.542  -0.517  -0.474
 -0.405  -0.377  -0.361  -0.343  -0.332  -0.278  -0.240  -0.208
 -- Virtual --
 -0.059   0.010   0.041   0.075   0.105   0.123   0.134   0.136
  0.146   0.176   0.187   0.196   0.225   0.256   0.275   0.317
  0.334   0.492   0.501   0.526   0.550   0.567   0.575   0.587
  0.599   0.617   0.655   0.679   0.697   0.704   0.734   0.759
  0.782   0.797   0.804   0.836   0.849   0.852   0.864   0.909
  0.925   0.976   1.012   1.056   1.115   1.219   1.224   1.291
  1.389   1.429   1.454   1.507   1.569   1.590   1.637   1.683
  1.727   1.756   1.783   1.844   1.871   1.909   1.923   1.944
  2.011   2.035   2.051   2.108   2.183   2.238   2.286   2.335
  2.355   2.402   2.440   2.472   2.535   2.555   2.615   2.630
  2.679   2.714   2.735   2.762   2.822   2.849   3.755   4.164
  4.291   4.340   4.482   4.510   4.633
 --------------------------------------------------------------
 
          Ground-State Mulliken Net Atomic Charges

     Atom                 Charge (a.u.)    Spin (a.u.)
  --------------------------------------------------------
      1 C                    -0.009347      -0.066329
      2 C                    -0.161770       0.032062
      3 C                    -0.157374       0.037555
      4 C                    -0.097495       0.003299
      5 C                    -0.087663      -0.054542
      6 N                    -0.290973       0.948995
      7 H                     0.178174       0.000925
      8 H                     0.158395       0.012122
      9 H                     0.184878      -0.002700
     10 H                     0.163841      -0.000329
     11 H                     0.147010       0.001036
     12 C                    -0.171654       0.084257
     13 H                     0.143978       0.003648
  --------------------------------------------------------
  Sum of atomic charges =    -0.000000
  Sum of spin   charges =     1.000000

 -----------------------------------------------------------------
                    Cartesian Multipole Moments
 -----------------------------------------------------------------
    Charge (ESU x 10^10)
                -0.0000
    Dipole Moment (Debye)
         X      -0.8109      Y      -1.1625      Z       1.0157
       Tot       1.7438
    Quadrupole Moments (Debye-Ang)
        XX     -36.6258     XY      -3.8234     YY     -44.6262
        XZ       4.1833     YZ       1.6052     ZZ     -41.5745
    Octopole Moments (Debye-Ang^2)
       XXX       4.0062    XXY       3.4150    XYY      -1.7840
       YYY      -2.0687    XXZ      37.6745    XYZ       5.8202
       YYZ      41.5848    XZZ      -7.6295    YZZ      -1.3681
       ZZZ     107.4891
    Hexadecapole Moments (Debye-Ang^3)
      XXXX    -266.1217   XXXY      -9.1019   XXYY     -91.7910
      XYYY     -20.8794   YYYY    -197.5683   XXXZ     -17.5867
      XXYZ       1.1627   XYYZ      -3.6454   YYYZ      16.4986
      XXZZ    -113.7463   XYZZ     -11.7877   YYZZ    -107.9186
      XZZZ      -1.1791   YZZZ      11.3023   ZZZZ    -360.1202
 -----------------------------------------------------------------
 Calculating analytic gradient of the SCF energy
 Gradient of SCF Energy
            1           2           3           4           5           6
    1   0.0669821   0.0225118  -0.0428078  -0.0387090  -0.0584486   0.0224729
    2  -0.0497319   0.0314086  -0.0354432  -0.0075109  -0.0944394   0.0189559
    3   0.0301890   0.0098712  -0.0323851   0.0094804   0.0307191  -0.0171874
            7           8           9          10          11          12
    1   0.0374311  -0.0216994  -0.0101087  -0.0058244   0.0098894   0.0068105
    2   0.0086295  -0.0081594   0.0424818  -0.0065302   0.0041446   0.0790093
    3   0.0233746  -0.0102823  -0.0268227  -0.0230961   0.0224168  -0.0055276
           13
    1   0.0115000
    2   0.0171852
    3  -0.0107497
 Max gradient component =       9.444E-02
 RMS gradient           =       3.323E-02
 Gradient time:  CPU 8.04 s  wall 2.52 s
 Geometry Optimization Parameters
   NAtoms,    NIC,     NZ,  NCons,   NDum,   NFix, NCnnct, MaxDiis
       13     151       0       0       0       0       0       0


** GEOMETRY OPTIMIZATION IN DELOCALIZED INTERNAL COORDINATES **
   Searching for a Minimum

   Optimization Cycle:   1

                       Coordinates (Angstroms)
     ATOM                X               Y               Z
      1  C         1.4409046990    0.0629981869   -0.5651728416
      2  C         0.5581024731   -1.0998890994   -0.9627523535
      3  C        -0.9203716989   -0.6618279646   -1.8719528887
      4  C        -1.3285943967   -0.1110408063   -0.3868352949
      5  C        -0.7608343953    0.7255995047   -1.3986268366
      6  N         0.8419694141    1.2030975964   -1.3684242769
      7  H         2.4761512958    0.1586498407   -0.0491117674
      8  H         0.5807283859   -2.1956017844   -1.0287875738
      9  H        -1.3496487149   -0.4236350327   -2.9133844742
     10  H        -2.3868023414   -0.0087028593   -0.1698006820
     11  H        -1.2505366251    1.6645343021   -1.6158442856
     12  C         0.1309913711   -0.2585945210    0.2737761833
     13  H         0.4092771381   -0.5369309427    1.2726827931
   Point Group: c1    Number of degrees of freedom:    33


   Energy is   -286.633561813


 Attempting to Generate Delocalized Internal Coordinates

 33 Hessian modes will be used to form the next step
  Hessian Eigenvalues:
     0.008749    0.009862    0.012603    0.016287    0.018528    0.021054
     0.022556    0.031276    0.047418    0.054219    0.060045    0.064080
     0.069527    0.081115    0.091751    0.101535    0.115920    0.131330
     0.152742    0.155988    0.184034    0.201758    0.207662    0.232031
     0.260551    0.270035    0.277724    0.285871    0.324321    0.339116
     0.353884    0.358721    0.367723

 Minimum Search - Taking Simple RFO Step
 Searching for Lamda that Minimizes Along All modes
 Value Taken    Lamda =  -0.10025471
 Calculated Step too Large.  Step scaled by  0.417458
 Step Taken.  Stepsize is  0.300000

                             Maximum     Tolerance    Cnvgd?
         Gradient           0.072110      0.000600      NO
         Displacement       0.132423      0.002400      NO
         Energy change     *********      0.000002      NO


 New Cartesian Coordinates Obtained by Inverse Iteration

 Displacement from previous Coordinates is:  0.288554
 ----------------------------------------------------------------
             Standard Nuclear Orientation (Angstroms)
    I     Atom           X                Y                Z
 ----------------------------------------------------------------
    1      C       1.3983528936     0.0735970718    -0.5814558577
    2      C       0.5492817036    -1.1047252244    -0.9614636271
    3      C      -0.8933700308    -0.6575160746    -1.8517646150
    4      C      -1.3070591570    -0.0986534652    -0.3792006698
    5      C      -0.7432424010     0.7537553006    -1.4068904049
    6      N       0.8178480693     1.2180567403    -1.3715252517
    7      H       2.4168162647     0.1671552186    -0.0900227104
    8      H       0.5955355030    -2.1959787123    -1.0190603265
    9      H      -1.3062021274    -0.4444500617    -2.8821572224
   10      H      -2.3607442676     0.0090695352    -0.1445587749
   11      H      -1.2407559085     1.6845175368    -1.6525732502
   12      C       0.1190752843    -0.2902682444     0.2796211609
   13      H       0.3958007786    -0.5959032002     1.2768172511
 ----------------------------------------------------------------
 Nuclear Repulsion Energy =   279.6707440100 hartrees
 There are       25 alpha and       24 beta electrons
 Applying Cartesian multipole field
    Component          Value
    ---------          -----
     (2,0,0)        1.00000E-11
     (0,2,0)        2.00000E-11
     (0,0,2)       -3.00000E-11
 Nucleus-field energy     =    -0.0000000031 hartrees
 Requested basis set is 6-31G(d)
 There are 40 shells and 117 basis functions
 A cutoff of  1.0D-14 yielded    812 shell pairs
 There are      7084 function pairs
 Smallest overlap matrix eigenvalue = 1.90E-03
 Guess MOs from SCF MO coefficient file
 Reading MOs from coefficient file
 Reading MOs from coefficient file
 An unrestricted hybrid HF-DFT SCF calculation will be
 performed using Pulay DIIS extrapolation
 Exchange:     0.2000 Hartree-Fock + 0.0800 Slater + 0.7200 B88
 Correlation:  0.1900 VWN1RPA + 0.8100 LYP
 Using SG-1 standard quadrature grid
 SCF converges when DIIS error is below 1.0E-08
 Geometry optimization detected.  Setting ReadMinima to 0
 Setting SaveMinima to 0
Using Q-Chem read-in guess as SCF_GUESS READ specified.

 using 4 threads for integral computing
 -------------------------------------------------------
 OpenMP Integral computing Module                
 Release: version 1.0, May 2013, Q-Chem Inc. Pittsburgh 
 -------------------------------------------------------
 -------------------------------------------------------
 OpenMP BLAS3 based DFT computing Module                
 Release: version 1.0, May 2013, Q-Chem Inc. Pittsburgh 
 -------------------------------------------------------
 ---------------------------------------
  Cycle       Energy         DIIS Error
 ---------------------------------------
    1    -286.7247719625      2.28E-03
    2    -286.6714514866      7.65E-04
    3    -286.6715143769      7.89E-04
    4    -286.6725533035      1.36E-04
    5    -286.6725830942      5.44E-05
    6    -286.6725889212      9.91E-06
    7    -286.6725896200      5.73E-06
    8    -286.6725898997      2.15E-06
    9    -286.6725900485      1.42E-06
   10    -286.6725900716      7.06E-07
   11    -286.6725900759      1.26E-07
   12    -286.6725900762      7.41E-08
   13    -286.6725900763      2.74E-08
   14    -286.6725900763      5.35E-09 Convergence criterion met
 ---------------------------------------
 <S^2> = 0.7553
 SCF time:  CPU 36.91 s  wall 29.02 s
 SCF   energy in the final basis set = -286.67259008
 Total energy in the final basis set = -286.67259008
 
 --------------------------------------------------------------
 
                    Orbital Energies (a.u.)
 --------------------------------------------------------------
 
 Alpha MOs
 -- Occupied --
-14.347 -10.245 -10.230 -10.228 -10.217 -10.215 -10.210  -0.955
 -0.823  -0.775  -0.643  -0.582  -0.563  -0.545  -0.526  -0.474
 -0.408  -0.391  -0.377  -0.358  -0.342  -0.285  -0.252  -0.228
 -0.218
 -- Virtual --
  0.025   0.047   0.082   0.109   0.128   0.131   0.140   0.152
  0.174   0.187   0.193   0.224   0.262   0.270   0.320   0.337
  0.489   0.502   0.527   0.549   0.565   0.575   0.586   0.598
  0.615   0.644   0.677   0.693   0.702   0.717   0.765   0.782
  0.800   0.802   0.831   0.836   0.839   0.856   0.903   0.914
  0.971   1.005   1.046   1.110   1.213   1.230   1.301   1.402
  1.433   1.451   1.495   1.582   1.593   1.649   1.691   1.722
  1.750   1.762   1.853   1.868   1.910   1.927   1.947   2.003
  2.035   2.038   2.102   2.185   2.232   2.296   2.357   2.364
  2.401   2.436   2.476   2.532   2.552   2.624   2.630   2.688
  2.699   2.738   2.766   2.841   2.851   3.738   4.167   4.291
  4.346   4.492   4.523   4.642
 
 Beta MOs
 -- Occupied --
-14.328 -10.246 -10.229 -10.228 -10.217 -10.213 -10.211  -0.947
 -0.815  -0.748  -0.640  -0.578  -0.559  -0.543  -0.520  -0.472
 -0.406  -0.379  -0.365  -0.347  -0.334  -0.278  -0.242  -0.214
 -- Virtual --
 -0.064   0.027   0.050   0.086   0.110   0.129   0.136   0.142
  0.158   0.177   0.190   0.196   0.229   0.266   0.273   0.323
  0.341   0.491   0.504   0.529   0.552   0.568   0.578   0.588
  0.599   0.617   0.646   0.683   0.700   0.705   0.734   0.767
  0.786   0.801   0.806   0.835   0.841   0.854   0.866   0.911
  0.925   0.973   1.011   1.051   1.115   1.218   1.238   1.304
  1.406   1.440   1.457   1.514   1.585   1.601   1.657   1.694
  1.730   1.765   1.770   1.863   1.876   1.919   1.937   1.951
  2.007   2.038   2.055   2.111   2.190   2.248   2.301   2.363
  2.370   2.410   2.437   2.489   2.540   2.554   2.628   2.637
  2.691   2.712   2.739   2.771   2.843   2.856   3.769   4.172
  4.293   4.347   4.493   4.524   4.644
 --------------------------------------------------------------
 
          Ground-State Mulliken Net Atomic Charges

     Atom                 Charge (a.u.)    Spin (a.u.)
  --------------------------------------------------------
      1 C                    -0.003517      -0.069209
      2 C                    -0.165372       0.038397
      3 C                    -0.150431       0.050619
      4 C                    -0.092420       0.011088
      5 C                    -0.096668      -0.058732
      6 N                    -0.288429       0.938337
      7 H                     0.173013       0.001236
      8 H                     0.157754       0.009779
      9 H                     0.183865      -0.003508
     10 H                     0.160720      -0.000600
     11 H                     0.148517       0.001304
     12 C                    -0.172225       0.078908
     13 H                     0.145195       0.002383
  --------------------------------------------------------
  Sum of atomic charges =     0.000000
  Sum of spin   charges =     1.000000

 -----------------------------------------------------------------
                    Cartesian Multipole Moments
 -----------------------------------------------------------------
    Charge (ESU x 10^10)
                 0.0000
    Dipole Moment (Debye)
         X      -0.8271      Y      -1.2226      Z       0.9699
       Tot       1.7662
    Quadrupole Moments (Debye-Ang)
        XX     -37.0436     XY      -3.7626     YY     -44.2668
        XZ       3.9264     YZ       1.5371     ZZ     -41.4033
    Octopole Moments (Debye-Ang^2)
       XXX       3.9506    XXY       3.1287    XYY      -1.6349
       YYY      -2.6538    XXZ      37.6647    XYZ       5.6849
       YYZ      41.1921    XZZ      -7.1315    YZZ      -1.7384
       ZZZ     107.2761
    Hexadecapole Moments (Debye-Ang^3)
      XXXX    -258.4389   XXXY      -8.2025   XXYY     -89.6497
      XYYY     -19.8249   YYYY    -200.0219   XXXZ     -17.3027
      XXYZ       1.9001   XYYZ      -2.6532   YYYZ      18.4486
      XXZZ    -111.9043   XYZZ     -11.2987   YYZZ    -107.2322
      XZZZ      -0.7360   YZZZ      13.8556   ZZZZ    -358.8323
 -----------------------------------------------------------------
 Calculating analytic gradient of the SCF energy
 Gradient of SCF Energy
            1           2           3           4           5           6
    1   0.0602395   0.0269304  -0.0402698  -0.0334815  -0.0551539   0.0243545
    2  -0.0483081   0.0289999  -0.0364132  -0.0140601  -0.0838136   0.0246561
    3   0.0232529   0.0161095  -0.0392440   0.0186666   0.0209981  -0.0188329
            7           8           9          10          11          12
    1   0.0262877  -0.0220106  -0.0058001  -0.0056941   0.0112882   0.0021992
    2   0.0077274  -0.0060327   0.0410706  -0.0054212   0.0079151   0.0706021
    3   0.0175160  -0.0078298  -0.0185459  -0.0211901   0.0203441  -0.0052818
           13
    1   0.0111106
    2   0.0130776
    3  -0.0059627
 Max gradient component =       8.381E-02
 RMS gradient           =       3.068E-02
 Gradient time:  CPU 7.97 s  wall 4.16 s
 Geometry Optimization Parameters
   NAtoms,    NIC,     NZ,  NCons,   NDum,   NFix, NCnnct, MaxDiis
       13     151       0       0       0       0       0       0

 Cartesian Hessian Update
 Hessian Updated using BFGS Update


** GEOMETRY OPTIMIZATION IN DELOCALIZED INTERNAL COORDINATES **
   Searching for a Minimum

   Optimization Cycle:   2

                       Coordinates (Angstroms)
     ATOM                X               Y               Z
      1  C         1.3983528936    0.0735970718   -0.5814558577
      2  C         0.5492817036   -1.1047252244   -0.9614636271
      3  C        -0.8933700308   -0.6575160746   -1.8517646150
      4  C        -1.3070591570   -0.0986534652   -0.3792006698
      5  C        -0.7432424010    0.7537553006   -1.4068904049
      6  N         0.8178480693    1.2180567403   -1.3715252517
      7  H         2.4168162647    0.1671552186   -0.0900227104
      8  H         0.5955355030   -2.1959787123   -1.0190603265
      9  H        -1.3062021274   -0.4444500617   -2.8821572224
     10  H        -2.3607442676    0.0090695352   -0.1445587749
     11  H        -1.2407559085    1.6845175368   -1.6525732502
     12  C         0.1190752843   -0.2902682444    0.2796211609
     13  H         0.3958007786   -0.5959032002    1.2768172511
   Point Group: c1    Number of degrees of freedom:    33


   Energy is   -286.672590076

 Hessian Updated using BFGS Update

 33 Hessian modes will be used to form the next step
  Hessian Eigenvalues:
     0.008799    0.009616    0.012742    0.016290    0.018552    0.020884
     0.022600    0.031392    0.042398    0.048999    0.061125    0.067071
     0.071000    0.081024    0.088823    0.096800    0.113836    0.121958
     0.137404    0.154073    0.173405    0.201701    0.209410    0.234496
     0.250581    0.270432    0.282457    0.296082    0.337163    0.344180
     0.353884    0.359772    0.375611

 Minimum Search - Taking Simple RFO Step
 Searching for Lamda that Minimizes Along All modes
 Value Taken    Lamda =  -0.09735722
 Calculated Step too Large.  Step scaled by  0.374441
 Step Taken.  Stepsize is  0.300000

                             Maximum     Tolerance    Cnvgd?
         Gradient           0.058779      0.000600      NO
         Displacement       0.110557      0.002400      NO
         Energy change     -0.039028      0.000002      NO


 New Cartesian Coordinates Obtained by Inverse Iteration

 Displacement from previous Coordinates is:  0.275216
 ----------------------------------------------------------------
             Standard Nuclear Orientation (Angstroms)
    I     Atom           X                Y                Z
 ----------------------------------------------------------------
    1      C       1.3547182980     0.0832274083    -0.5975813149
    2      C       0.5360639867    -1.1087311723    -0.9649390183
    3      C      -0.8657721947    -0.6538723421    -1.8265698812
    4      C      -1.2846851366    -0.0869989566    -0.3749826495
    5      C      -0.7221119716     0.7825641559    -1.4101881505
    6      N       0.7867105994     1.2210329649    -1.3674710521
    7      H       2.3603335090     0.1749687397    -0.1274537005
    8      H       0.6074552922    -2.1961130968    -1.0158517686
    9      H      -1.2583455071    -0.4671524641    -2.8506769084
   10      H      -2.3333012575     0.0260997205    -0.1223033551
   11      H      -1.2305174436     1.7012488527    -1.6819418619
   12      C       0.1070543823    -0.3168114924     0.2810609633
   13      H       0.3837340482    -0.6408058973     1.2746643988
 ----------------------------------------------------------------
 Nuclear Repulsion Energy =   282.2403396085 hartrees
 There are       25 alpha and       24 beta electrons
 Applying Cartesian multipole field
    Component          Value
    ---------          -----
     (2,0,0)        1.00000E-11
     (0,2,0)        2.00000E-11
     (0,0,2)       -3.00000E-11
 Nucleus-field energy     =    -0.0000000031 hartrees
 Requested basis set is 6-31G(d)
 There are 40 shells and 117 basis functions
 A cutoff of  1.0D-14 yielded    814 shell pairs
 There are      7086 function pairs
 Smallest overlap matrix eigenvalue = 1.66E-03
 Guess MOs from SCF MO coefficient file
 Reading MOs from coefficient file
 Reading MOs from coefficient file
 An unrestricted hybrid HF-DFT SCF calculation will be
 performed using Pulay DIIS extrapolation
 Exchange:     0.2000 Hartree-Fock + 0.0800 Slater + 0.7200 B88
 Correlation:  0.1900 VWN1RPA + 0.8100 LYP
 Using SG-1 standard quadrature grid
 SCF converges when DIIS error is below 1.0E-08
 Geometry optimization detected.  Setting ReadMinima to 0
 Setting SaveMinima to 0
Using Q-Chem read-in guess as SCF_GUESS READ specified.

 using 4 threads for integral computing
 -------------------------------------------------------
 OpenMP Integral computing Module                
 Release: version 1.0, May 2013, Q-Chem Inc. Pittsburgh 
 -------------------------------------------------------
 -------------------------------------------------------
 OpenMP BLAS3 based DFT computing Module                
 Release: version 1.0, May 2013, Q-Chem Inc. Pittsburgh 
 -------------------------------------------------------
 ---------------------------------------
  Cycle       Energy         DIIS Error
 ---------------------------------------
    1    -286.7692503080      2.53E-03
    2    -286.7052915139      7.41E-04
    3    -286.7053902512      7.47E-04
    4    -286.7063148909      1.26E-04
    5    -286.7063388107      5.00E-05
    6    -286.7063438129      9.69E-06
    7    -286.7063444257      4.57E-06
    8    -286.7063445936      1.64E-06
    9    -286.7063446742      7.50E-07
   10    -286.7063446891      5.50E-07
   11    -286.7063446916      1.61E-07
   12    -286.7063446920      6.60E-08
   13    -286.7063446920      3.60E-08
   14    -286.7063446920      6.51E-09 Convergence criterion met
 ---------------------------------------
 <S^2> = 0.7551
 SCF time:  CPU 37.02 s  wall 36.12 s
 SCF   energy in the final basis set = -286.70634469
 Total energy in the final basis set = -286.70634469
 
 --------------------------------------------------------------
 
                    Orbital Energies (a.u.)
 --------------------------------------------------------------
 
 Alpha MOs
 -- Occupied --
-14.345 -10.239 -10.226 -10.225 -10.214 -10.210 -10.209  -0.964
 -0.821  -0.786  -0.647  -0.584  -0.565  -0.544  -0.529  -0.472
 -0.410  -0.395  -0.382  -0.363  -0.345  -0.286  -0.255  -0.225
 -0.222
 -- Virtual --
  0.043   0.054   0.092   0.115   0.133   0.135   0.148   0.164
  0.175   0.190   0.196   0.230   0.258   0.285   0.327   0.345
  0.489   0.505   0.529   0.553   0.567   0.575   0.588   0.600
  0.616   0.637   0.681   0.692   0.703   0.723   0.771   0.780
  0.801   0.806   0.824   0.836   0.842   0.861   0.908   0.914
  0.972   1.004   1.043   1.114   1.211   1.243   1.316   1.416
  1.442   1.463   1.510   1.588   1.606   1.676   1.703   1.722
  1.739   1.779   1.863   1.888   1.916   1.942   1.971   2.007
  2.037   2.055   2.111   2.194   2.246   2.318   2.376   2.395
  2.428   2.438   2.493   2.531   2.562   2.629   2.651   2.697
  2.705   2.748   2.780   2.849   2.881   3.765   4.180   4.296
  4.355   4.498   4.545   4.658
 
 Beta MOs
 -- Occupied --
-14.327 -10.240 -10.225 -10.224 -10.213 -10.210 -10.209  -0.955
 -0.811  -0.762  -0.643  -0.581  -0.561  -0.542  -0.523  -0.470
 -0.407  -0.384  -0.369  -0.353  -0.336  -0.276  -0.245  -0.218
 -- Virtual --
 -0.068   0.046   0.058   0.096   0.116   0.135   0.138   0.150
  0.169   0.181   0.195   0.199   0.235   0.260   0.290   0.331
  0.349   0.491   0.507   0.531   0.557   0.569   0.579   0.592
  0.602   0.619   0.639   0.685   0.702   0.707   0.737   0.773
  0.785   0.803   0.808   0.828   0.842   0.855   0.870   0.916
  0.925   0.975   1.010   1.048   1.119   1.215   1.252   1.320
  1.422   1.449   1.468   1.526   1.595   1.612   1.682   1.707
  1.729   1.757   1.785   1.868   1.897   1.923   1.949   1.979
  2.011   2.042   2.072   2.118   2.198   2.260   2.325   2.381
  2.403   2.435   2.442   2.508   2.535   2.567   2.635   2.659
  2.706   2.709   2.750   2.783   2.852   2.886   3.795   4.184
  4.299   4.356   4.500   4.546   4.660
 --------------------------------------------------------------
 
          Ground-State Mulliken Net Atomic Charges

     Atom                 Charge (a.u.)    Spin (a.u.)
  --------------------------------------------------------
      1 C                     0.001802      -0.070530
      2 C                    -0.167642       0.045332
      3 C                    -0.143207       0.070244
      4 C                    -0.087867       0.021392
      5 C                    -0.101376      -0.064336
      6 N                    -0.287943       0.916093
      7 H                     0.167294       0.001414
      8 H                     0.156728       0.007338
      9 H                     0.182182      -0.004702
     10 H                     0.157511      -0.000955
     11 H                     0.149499       0.001573
     12 C                    -0.172870       0.075904
     13 H                     0.145890       0.001235
  --------------------------------------------------------
  Sum of atomic charges =     0.000000
  Sum of spin   charges =     1.000000

 -----------------------------------------------------------------
                    Cartesian Multipole Moments
 -----------------------------------------------------------------
    Charge (ESU x 10^10)
                -0.0000
    Dipole Moment (Debye)
         X      -0.8473      Y      -1.2794      Z       0.9210
       Tot       1.7897
    Quadrupole Moments (Debye-Ang)
        XX     -37.4178     XY      -3.6893     YY     -43.9148
        XZ       3.6891     YZ       1.5170     ZZ     -41.1933
    Octopole Moments (Debye-Ang^2)
       XXX       4.1075    XXY       2.9157    XYY      -1.4742
       YYY      -3.0554    XXZ      37.6425    XYZ       5.5190
       YYZ      40.7149    XZZ      -6.5632    YZZ      -2.0759
       ZZZ     106.8337
    Hexadecapole Moments (Debye-Ang^3)
      XXXX    -249.7715   XXXY      -7.1231   XXYY     -87.2217
      XYYY     -18.5086   YYYY    -201.4990   XXXZ     -17.0350
      XXYZ       2.3497   XYYZ      -1.8003   YYYZ      19.6553
      XXZZ    -109.6854   XYZZ     -10.6669   YYZZ    -105.9710
      XZZZ      -0.5867   YZZZ      15.7972   ZZZZ    -355.7810
 -----------------------------------------------------------------
 Calculating analytic gradient of the SCF energy
 Gradient of SCF Energy
            1           2           3           4           5           6
    1   0.0516535   0.0283506  -0.0355303  -0.0236393  -0.0501629   0.0226906
    2  -0.0441103   0.0286949  -0.0361168  -0.0186859  -0.0742482   0.0227920
    3   0.0156687   0.0202859  -0.0421403   0.0245093   0.0147434  -0.0172639
            7           8           9          10          11          12
    1   0.0157754  -0.0221222  -0.0014557  -0.0053141   0.0127164  -0.0036107
    2   0.0067496  -0.0045830   0.0392746  -0.0044604   0.0103063   0.0642546
    3   0.0124036  -0.0058832  -0.0111542  -0.0191950   0.0188261  -0.0068400
           13
    1   0.0106487
    2   0.0101328
    3  -0.0039604
 Max gradient component =       7.425E-02
 RMS gradient           =       2.794E-02
 Gradient time:  CPU 7.71 s  wall 3.34 s
 Geometry Optimization Parameters
   NAtoms,    NIC,     NZ,  NCons,   NDum,   NFix, NCnnct, MaxDiis
       13     151       0       0       0       0       0       0

 Cartesian Hessian Update
 Hessian Updated using BFGS Update


** GEOMETRY OPTIMIZATION IN DELOCALIZED INTERNAL COORDINATES **
   Searching for a Minimum

   Optimization Cycle:   3

                       Coordinates (Angstroms)
     ATOM                X               Y               Z
      1  C         1.3547182980    0.0832274083   -0.5975813149
      2  C         0.5360639867   -1.1087311723   -0.9649390183
      3  C        -0.8657721947   -0.6538723421   -1.8265698812
      4  C        -1.2846851366   -0.0869989566   -0.3749826495
      5  C        -0.7221119716    0.7825641559   -1.4101881505
      6  N         0.7867105994    1.2210329649   -1.3674710521
      7  H         2.3603335090    0.1749687397   -0.1274537005
      8  H         0.6074552922   -2.1961130968   -1.0158517686
      9  H        -1.2583455071   -0.4671524641   -2.8506769084
     10  H        -2.3333012575    0.0260997205   -0.1223033551
     11  H        -1.2305174436    1.7012488527   -1.6819418619
     12  C         0.1070543823   -0.3168114924    0.2810609633
     13  H         0.3837340482   -0.6408058973    1.2746643988
   Point Group: c1    Number of degrees of freedom:    33


   Energy is   -286.706344692

 Hessian Updated using BFGS Update

 33 Hessian modes will be used to form the next step
  Hessian Eigenvalues:
     0.008763    0.009634    0.012736    0.016292    0.018469    0.020914
     0.022587    0.031397    0.041502    0.049047    0.061229    0.067840
     0.071671    0.081264    0.088990    0.095782    0.114342    0.121587
     0.137363    0.156039    0.173566    0.201728    0.214398    0.235319
     0.254575    0.270320    0.282950    0.312527    0.337272    0.349194
     0.353890    0.360211    0.381714

 Minimum Search - Taking Simple RFO Step
 Searching for Lamda that Minimizes Along All modes
 Value Taken    Lamda =  -0.07921234
 Calculated Step too Large.  Step scaled by  0.373023
 Step Taken.  Stepsize is  0.300000

                             Maximum     Tolerance    Cnvgd?
         Gradient           0.040966      0.000600      NO
         Displacement       0.118877      0.002400      NO
         Energy change     -0.033755      0.000002      NO


 New Cartesian Coordinates Obtained by Inverse Iteration

 Displacement from previous Coordinates is:  0.247713
 ----------------------------------------------------------------
             Standard Nuclear Orientation (Angstroms)
    I     Atom           X                Y                Z
 ----------------------------------------------------------------
    1      C       1.3179941709     0.0930016932    -0.6088898591
    2      C       0.5244822459    -1.1135915948    -0.9701456917
    3      C      -0.8440429612    -0.6500779773    -1.7999330200
    4      C      -1.2671778454    -0.0710674244    -0.3730098816
    5      C      -0.7042277459     0.8128393050    -1.4139394764
    6      N       0.7567681047     1.2239945063    -1.3599994452
    7      H       2.3189950882     0.1823387346    -0.1567688753
    8      H       0.6223794699    -2.1974696587    -1.0168268132
    9      H      -1.2187392661    -0.4947803888    -2.8240184500
   10      H      -2.3107636898     0.0481374733    -0.1033452292
   11      H      -1.2267790080     1.7156621452    -1.7133961845
   12      C       0.0988959519    -0.3437965042     0.2834302543
   13      H       0.3735520897    -0.6865338891     1.2726083732
 ----------------------------------------------------------------
 Nuclear Repulsion Energy =   284.3166529761 hartrees
 There are       25 alpha and       24 beta electrons
 Applying Cartesian multipole field
    Component          Value
    ---------          -----
     (2,0,0)        1.00000E-11
     (0,2,0)        2.00000E-11
     (0,0,2)       -3.00000E-11
 Nucleus-field energy     =    -0.0000000031 hartrees
 Requested basis set is 6-31G(d)
 There are 40 shells and 117 basis functions
 A cutoff of  1.0D-14 yielded    814 shell pairs
 There are      7086 function pairs
 Smallest overlap matrix eigenvalue = 1.47E-03
 Guess MOs from SCF MO coefficient file
 Reading MOs from coefficient file
 Reading MOs from coefficient file
 An unrestricted hybrid HF-DFT SCF calculation will be
 performed using Pulay DIIS extrapolation
 Exchange:     0.2000 Hartree-Fock + 0.0800 Slater + 0.7200 B88
 Correlation:  0.1900 VWN1RPA + 0.8100 LYP
 Using SG-1 standard quadrature grid
 SCF converges when DIIS error is below 1.0E-08
 Geometry optimization detected.  Setting ReadMinima to 0
 Setting SaveMinima to 0
Using Q-Chem read-in guess as SCF_GUESS READ specified.

 using 4 threads for integral computing
 -------------------------------------------------------
 OpenMP Integral computing Module                
 Release: version 1.0, May 2013, Q-Chem Inc. Pittsburgh 
 -------------------------------------------------------
 -------------------------------------------------------
 OpenMP BLAS3 based DFT computing Module                
 Release: version 1.0, May 2013, Q-Chem Inc. Pittsburgh 
 -------------------------------------------------------
 ---------------------------------------
  Cycle       Energy         DIIS Error
 ---------------------------------------
    1    -286.7842546339      2.42E-03
    2    -286.7327769838      6.56E-04
    3    -286.7328626590      6.62E-04
    4    -286.7335898758      1.14E-04
    5    -286.7336096780      4.16E-05
    6    -286.7336135031      1.07E-05
    7    -286.7336142029      3.96E-06
    8    -286.7336143466      1.65E-06
    9    -286.7336144060      5.88E-07
   10    -286.7336144166      4.32E-07
   11    -286.7336144187      1.40E-07
   12    -286.7336144192      8.05E-08
   13    -286.7336144192      3.37E-08
   14    -286.7336144193      6.25E-09 Convergence criterion met
 ---------------------------------------
 <S^2> = 0.7553
 SCF time:  CPU 37.02 s  wall 29.21 s
 SCF   energy in the final basis set = -286.73361442
 Total energy in the final basis set = -286.73361442
 
 --------------------------------------------------------------
 
                    Orbital Energies (a.u.)
 --------------------------------------------------------------
 
 Alpha MOs
 -- Occupied --
-14.342 -10.234 -10.224 -10.221 -10.212 -10.209 -10.207  -0.971
 -0.821  -0.793  -0.650  -0.586  -0.568  -0.544  -0.532  -0.469
 -0.412  -0.400  -0.385  -0.369  -0.347  -0.287  -0.257  -0.226
 -0.221
 -- Virtual --
  0.059   0.059   0.099   0.120   0.136   0.139   0.154   0.171
  0.176   0.193   0.204   0.235   0.252   0.301   0.335   0.351
  0.488   0.509   0.531   0.557   0.567   0.574   0.593   0.602
  0.617   0.631   0.682   0.695   0.705   0.728   0.772   0.778
  0.801   0.806   0.820   0.835   0.845   0.865   0.911   0.916
  0.973   1.001   1.043   1.119   1.209   1.256   1.331   1.424
  1.448   1.477   1.525   1.592   1.616   1.694   1.705   1.724
  1.734   1.800   1.859   1.908   1.921   1.951   1.994   2.007
  2.046   2.074   2.114   2.198   2.255   2.340   2.384   2.427
  2.437   2.458   2.508   2.530   2.572   2.636   2.659   2.705
  2.715   2.756   2.789   2.857   2.904   3.791   4.190   4.300
  4.358   4.498   4.566   4.672
 
 Beta MOs
 -- Occupied --
-14.324 -10.235 -10.224 -10.220 -10.211 -10.210 -10.205  -0.962
 -0.808  -0.774  -0.646  -0.583  -0.564  -0.541  -0.526  -0.467
 -0.408  -0.389  -0.373  -0.359  -0.337  -0.275  -0.247  -0.222
 -- Virtual --
 -0.071   0.061   0.064   0.102   0.121   0.139   0.141   0.156
  0.173   0.185   0.197   0.208   0.240   0.255   0.304   0.340
  0.354   0.490   0.511   0.533   0.561   0.569   0.578   0.596
  0.605   0.621   0.633   0.684   0.707   0.710   0.740   0.776
  0.783   0.803   0.807   0.825   0.842   0.856   0.874   0.922
  0.924   0.976   1.008   1.048   1.124   1.213   1.266   1.334
  1.432   1.457   1.483   1.538   1.601   1.621   1.699   1.710
  1.731   1.751   1.807   1.864   1.916   1.925   1.957   2.004
  2.010   2.052   2.091   2.120   2.202   2.268   2.351   2.389
  2.435   2.441   2.468   2.524   2.533   2.578   2.644   2.670
  2.708   2.718   2.758   2.792   2.860   2.909   3.820   4.195
  4.303   4.358   4.500   4.567   4.674
 --------------------------------------------------------------
 
          Ground-State Mulliken Net Atomic Charges

     Atom                 Charge (a.u.)    Spin (a.u.)
  --------------------------------------------------------
      1 C                     0.002290      -0.071011
      2 C                    -0.166895       0.051789
      3 C                    -0.137180       0.093926
      4 C                    -0.086340       0.033993
      5 C                    -0.101822      -0.071525
      6 N                    -0.287451       0.889591
      7 H                     0.162238       0.001509
      8 H                     0.155679       0.004740
      9 H                     0.179769      -0.006095
     10 H                     0.154773      -0.001309
     11 H                     0.150256       0.001769
     12 C                    -0.171960       0.072387
     13 H                     0.146645       0.000236
  --------------------------------------------------------
  Sum of atomic charges =     0.000000
  Sum of spin   charges =     1.000000

 -----------------------------------------------------------------
                    Cartesian Multipole Moments
 -----------------------------------------------------------------
    Charge (ESU x 10^10)
                 0.0000
    Dipole Moment (Debye)
         X      -0.8825      Y      -1.3422      Z       0.8706
       Tot       1.8271
    Quadrupole Moments (Debye-Ang)
        XX     -37.7053     XY      -3.6533     YY     -43.6109
        XZ       3.5391     YZ       1.5095     ZZ     -40.9780
    Octopole Moments (Debye-Ang^2)
       XXX       4.3237    XXY       2.7253    XYY      -1.3505
       YYY      -3.5493    XXZ      37.5700    XYZ       5.3696
       YYZ      40.2139    XZZ      -6.1491    YZZ      -2.4373
       ZZZ     106.2476
    Hexadecapole Moments (Debye-Ang^3)
      XXXX    -242.7647   XXXY      -6.0314   XXYY     -85.3300
      XYYY     -17.2214   YYYY    -203.4881   XXXZ     -16.8771
      XXYZ       2.7441   XYYZ      -1.0968   YYYZ      20.7537
      XXZZ    -107.7399   XYZZ      -9.9999   YYZZ    -104.6611
      XZZZ      -0.5764   YZZZ      17.6320   ZZZZ    -352.4263
 -----------------------------------------------------------------
 Calculating analytic gradient of the SCF energy
 Gradient of SCF Energy
            1           2           3           4           5           6
    1   0.0424084   0.0278537  -0.0293802  -0.0148874  -0.0437952   0.0175525
    2  -0.0379176   0.0269971  -0.0353045  -0.0200179  -0.0637752   0.0184912
    3   0.0079059   0.0214055  -0.0400247   0.0269940   0.0091118  -0.0148924
            7           8           9          10          11          12
    1   0.0091464  -0.0217479   0.0018796  -0.0048656   0.0132010  -0.0076853
    2   0.0058325  -0.0039335   0.0370359  -0.0034473   0.0119602   0.0567567
    3   0.0092270  -0.0039690  -0.0069580  -0.0172435   0.0172400  -0.0060363
           13
    1   0.0103201
    2   0.0073224
    3  -0.0027605
 Max gradient component =       6.378E-02
 RMS gradient           =       2.472E-02
 Gradient time:  CPU 7.82 s  wall 6.66 s
 Geometry Optimization Parameters
   NAtoms,    NIC,     NZ,  NCons,   NDum,   NFix, NCnnct, MaxDiis
       13     151       0       0       0       0       0       0

 Cartesian Hessian Update
 Hessian Updated using BFGS Update


** GEOMETRY OPTIMIZATION IN DELOCALIZED INTERNAL COORDINATES **
   Searching for a Minimum

   Optimization Cycle:   4

                       Coordinates (Angstroms)
     ATOM                X               Y               Z
      1  C         1.3179941709    0.0930016932   -0.6088898591
      2  C         0.5244822459   -1.1135915948   -0.9701456917
      3  C        -0.8440429612   -0.6500779773   -1.7999330200
      4  C        -1.2671778454   -0.0710674244   -0.3730098816
      5  C        -0.7042277459    0.8128393050   -1.4139394764
      6  N         0.7567681047    1.2239945063   -1.3599994452
      7  H         2.3189950882    0.1823387346   -0.1567688753
      8  H         0.6223794699   -2.1974696587   -1.0168268132
      9  H        -1.2187392661   -0.4947803888   -2.8240184500
     10  H        -2.3107636898    0.0481374733   -0.1033452292
     11  H        -1.2267790080    1.7156621452   -1.7133961845
     12  C         0.0988959519   -0.3437965042    0.2834302543
     13  H         0.3735520897   -0.6865338891    1.2726083732
   Point Group: c1    Number of degrees of freedom:    33


   Energy is   -286.733614419

 Hessian Updated using BFGS Update

 33 Hessian modes will be used to form the next step
  Hessian Eigenvalues:
     0.008928    0.009766    0.012753    0.016297    0.018602    0.021169
     0.022663    0.031390    0.040400    0.049358    0.061365    0.068376
     0.072570    0.081603    0.089831    0.096647    0.115495    0.122515
     0.138264    0.158053    0.175587    0.202078    0.216682    0.235960
     0.256097    0.270362    0.283032    0.318958    0.337306    0.351384
     0.353929    0.360541    0.387339

 Minimum Search - Taking Simple RFO Step
 Searching for Lamda that Minimizes Along All modes
 Value Taken    Lamda =  -0.06258891
 Calculated Step too Large.  Step scaled by  0.379135
 Step Taken.  Stepsize is  0.300000

                             Maximum     Tolerance    Cnvgd?
         Gradient           0.029784      0.000600      NO
         Displacement       0.119950      0.002400      NO
         Energy change     -0.027270      0.000002      NO


 New Cartesian Coordinates Obtained by Inverse Iteration

 Displacement from previous Coordinates is:  0.225750
 ----------------------------------------------------------------
             Standard Nuclear Orientation (Angstroms)
    I     Atom           X                Y                Z
 ----------------------------------------------------------------
    1      C       1.2882241257     0.1021765658    -0.6152564497
    2      C       0.5149465808    -1.1185146057    -0.9772167597
    3      C      -0.8285193888    -0.6452208705    -1.7734104606
    4      C      -1.2538044689    -0.0520520999    -0.3729994145
    5      C      -0.6891536673     0.8439976547    -1.4177583018
    6      N       0.7340632969     1.2296274647    -1.3502821783
    7      H       2.2884229314     0.1871107428    -0.1786817511
    8      H       0.6414562193    -2.1984256215    -1.0218170346
    9      H      -1.1884748699    -0.5283699986    -2.8002233241
   10      H      -2.2920364677     0.0725610552    -0.0853307113
   11      H      -1.2291146762     1.7269179757    -1.7457547578
   12      C       0.0933111471    -0.3702292292     0.2847719553
   13      H       0.3620158425    -0.7309226130     1.2697248896
 ----------------------------------------------------------------
 Nuclear Repulsion Energy =   285.8328554471 hartrees
 There are       25 alpha and       24 beta electrons
 Applying Cartesian multipole field
    Component          Value
    ---------          -----
     (2,0,0)        1.00000E-11
     (0,2,0)        2.00000E-11
     (0,0,2)       -3.00000E-11
 Nucleus-field energy     =    -0.0000000030 hartrees
 Requested basis set is 6-31G(d)
 There are 40 shells and 117 basis functions
 A cutoff of  1.0D-14 yielded    814 shell pairs
 There are      7086 function pairs
 Smallest overlap matrix eigenvalue = 1.33E-03
 Guess MOs from SCF MO coefficient file
 Reading MOs from coefficient file
 Reading MOs from coefficient file
 An unrestricted hybrid HF-DFT SCF calculation will be
 performed using Pulay DIIS extrapolation
 Exchange:     0.2000 Hartree-Fock + 0.0800 Slater + 0.7200 B88
 Correlation:  0.1900 VWN1RPA + 0.8100 LYP
 Using SG-1 standard quadrature grid
 SCF converges when DIIS error is below 1.0E-08
 Geometry optimization detected.  Setting ReadMinima to 0
 Setting SaveMinima to 0
Using Q-Chem read-in guess as SCF_GUESS READ specified.

 using 4 threads for integral computing
 -------------------------------------------------------
 OpenMP Integral computing Module                
 Release: version 1.0, May 2013, Q-Chem Inc. Pittsburgh 
 -------------------------------------------------------
 -------------------------------------------------------
 OpenMP BLAS3 based DFT computing Module                
 Release: version 1.0, May 2013, Q-Chem Inc. Pittsburgh 
 -------------------------------------------------------
 ---------------------------------------
  Cycle       Energy         DIIS Error
 ---------------------------------------
    1    -286.7950133076      2.18E-03
    2    -286.7547633103      5.63E-04
    3    -286.7548212811      5.75E-04
    4    -286.7553721321      1.01E-04
    5    -286.7553878456      3.50E-05
    6    -286.7553907333      1.15E-05
    7    -286.7553913723      3.88E-06
    8    -286.7553914827      1.64E-06
    9    -286.7553915210      5.35E-07
   10    -286.7553915278      2.94E-07
   11    -286.7553915291      8.58E-08
   12    -286.7553915295      5.75E-08
   13    -286.7553915296      2.86E-08
   14    -286.7553915296      6.69E-09 Convergence criterion met
 ---------------------------------------
 <S^2> = 0.7556
 SCF time:  CPU 36.91 s  wall 31.22 s
 SCF   energy in the final basis set = -286.75539153
 Total energy in the final basis set = -286.75539153
 
 --------------------------------------------------------------
 
                    Orbital Energies (a.u.)
 --------------------------------------------------------------
 
 Alpha MOs
 -- Occupied --
-14.339 -10.230 -10.223 -10.217 -10.212 -10.209 -10.204  -0.977
 -0.822  -0.797  -0.651  -0.588  -0.570  -0.542  -0.533  -0.466
 -0.414  -0.404  -0.387  -0.374  -0.348  -0.286  -0.259  -0.231
 -0.217
 -- Virtual --
  0.063   0.071   0.102   0.125   0.138   0.143   0.158   0.174
  0.178   0.194   0.212   0.240   0.247   0.310   0.345   0.355
  0.487   0.513   0.532   0.559   0.565   0.574   0.597   0.606
  0.618   0.628   0.679   0.700   0.709   0.732   0.770   0.778
  0.799   0.805   0.818   0.834   0.847   0.866   0.909   0.922
  0.972   0.998   1.045   1.125   1.206   1.269   1.344   1.429
  1.454   1.491   1.536   1.596   1.624   1.691   1.704   1.732
  1.739   1.819   1.858   1.913   1.930   1.955   2.000   2.014
  2.057   2.091   2.116   2.201   2.261   2.360   2.389   2.436
  2.455   2.477   2.522   2.537   2.576   2.641   2.663   2.716
  2.720   2.760   2.800   2.864   2.920   3.813   4.199   4.303
  4.356   4.492   4.583   4.683
 
 Beta MOs
 -- Occupied --
-14.322 -10.231 -10.222 -10.216 -10.210 -10.210 -10.203  -0.968
 -0.804  -0.784  -0.647  -0.585  -0.566  -0.540  -0.527  -0.464
 -0.411  -0.393  -0.376  -0.363  -0.337  -0.273  -0.248  -0.226
 -- Virtual --
 -0.073   0.069   0.074   0.105   0.126   0.142   0.145   0.160
  0.175   0.187   0.198   0.217   0.245   0.251   0.313   0.351
  0.358   0.489   0.515   0.535   0.563   0.569   0.577   0.599
  0.611   0.621   0.630   0.682   0.713   0.715   0.743   0.776
  0.781   0.801   0.807   0.823   0.842   0.856   0.876   0.919
  0.928   0.976   1.006   1.050   1.129   1.210   1.280   1.347
  1.438   1.464   1.497   1.547   1.606   1.629   1.700   1.707
  1.742   1.749   1.826   1.863   1.918   1.935   1.960   2.004
  2.023   2.063   2.107   2.121   2.206   2.273   2.373   2.394
  2.438   2.463   2.488   2.534   2.544   2.583   2.654   2.668
  2.720   2.723   2.763   2.802   2.868   2.925   3.841   4.204
  4.306   4.357   4.494   4.585   4.686
 --------------------------------------------------------------
 
          Ground-State Mulliken Net Atomic Charges

     Atom                 Charge (a.u.)    Spin (a.u.)
  --------------------------------------------------------
      1 C                    -0.001474      -0.070723
      2 C                    -0.163430       0.056860
      3 C                    -0.132589       0.117818
      4 C                    -0.087688       0.046632
      5 C                    -0.098572      -0.078423
      6 N                    -0.286742       0.862247
      7 H                     0.158135       0.001511
      8 H                     0.154620       0.002423
      9 H                     0.176738      -0.007392
     10 H                     0.152475      -0.001509
     11 H                     0.150597       0.001836
     12 C                    -0.169356       0.069252
     13 H                     0.147287      -0.000532
  --------------------------------------------------------
  Sum of atomic charges =    -0.000000
  Sum of spin   charges =     1.000000

 -----------------------------------------------------------------
                    Cartesian Multipole Moments
 -----------------------------------------------------------------
    Charge (ESU x 10^10)
                -0.0000
    Dipole Moment (Debye)
         X      -0.9335      Y      -1.4131      Z       0.8224
       Tot       1.8827
    Quadrupole Moments (Debye-Ang)
        XX     -37.9200     XY      -3.6523     YY     -43.3583
        XZ       3.4595     YZ       1.5214     ZZ     -40.7747
    Octopole Moments (Debye-Ang^2)
       XXX       4.4660    XXY       2.4850    XYY      -1.2968
       YYY      -4.2205    XXZ      37.4580    XYZ       5.2450
       YYZ      39.7177    XZZ      -5.9068    YZZ      -2.8419
       ZZZ     105.6314
    Hexadecapole Moments (Debye-Ang^3)
      XXXX    -237.5443   XXXY      -5.1124   XXYY     -83.9694
      XYYY     -16.1675   YYYY    -206.1124   XXXZ     -16.6778
      XXYZ       3.1688   XYYZ      -0.4505   YYYZ      21.8701
      XXZZ    -106.0750   XYZZ      -9.3542   YYZZ    -103.3537
      XZZZ      -0.5278   YZZZ      19.4341   ZZZZ    -349.0713
 -----------------------------------------------------------------
 Calculating analytic gradient of the SCF energy
 Gradient of SCF Energy
            1           2           3           4           5           6
    1   0.0336978   0.0260442  -0.0233770  -0.0081227  -0.0362854   0.0111462
    2  -0.0311110   0.0239980  -0.0340171  -0.0187713  -0.0525469   0.0136340
    3   0.0015951   0.0200753  -0.0342632   0.0264387   0.0047279  -0.0125255
            7           8           9          10          11          12
    1   0.0048195  -0.0208110   0.0045849  -0.0044327   0.0125617  -0.0096704
    2   0.0050513  -0.0036994   0.0341078  -0.0025528   0.0127085   0.0484255
    3   0.0070658  -0.0020937  -0.0049356  -0.0152532   0.0155279  -0.0041189
           13
    1   0.0098450
    2   0.0047733
    3  -0.0022407
 Max gradient component =       5.255E-02
 RMS gradient           =       2.117E-02
 Gradient time:  CPU 8.01 s  wall 2.83 s
 Geometry Optimization Parameters
   NAtoms,    NIC,     NZ,  NCons,   NDum,   NFix, NCnnct, MaxDiis
       13     151       0       0       0       0       0       0

 Cartesian Hessian Update
 Hessian Updated using BFGS Update


** GEOMETRY OPTIMIZATION IN DELOCALIZED INTERNAL COORDINATES **
   Searching for a Minimum

   Optimization Cycle:   5

                       Coordinates (Angstroms)
     ATOM                X               Y               Z
      1  C         1.2882241257    0.1021765658   -0.6152564497
      2  C         0.5149465808   -1.1185146057   -0.9772167597
      3  C        -0.8285193888   -0.6452208705   -1.7734104606
      4  C        -1.2538044689   -0.0520520999   -0.3729994145
      5  C        -0.6891536673    0.8439976547   -1.4177583018
      6  N         0.7340632969    1.2296274647   -1.3502821783
      7  H         2.2884229314    0.1871107428   -0.1786817511
      8  H         0.6414562193   -2.1984256215   -1.0218170346
      9  H        -1.1884748699   -0.5283699986   -2.8002233241
     10  H        -2.2920364677    0.0725610552   -0.0853307113
     11  H        -1.2291146762    1.7269179757   -1.7457547578
     12  C         0.0933111471   -0.3702292292    0.2847719553
     13  H         0.3620158425   -0.7309226130    1.2697248896
   Point Group: c1    Number of degrees of freedom:    33


   Energy is   -286.755391530

 Hessian Updated using BFGS Update

 33 Hessian modes will be used to form the next step
  Hessian Eigenvalues:
     0.009049    0.010002    0.012775    0.016293    0.018755    0.021334
     0.022775    0.031347    0.038982    0.049766    0.061534    0.068652
     0.073250    0.081679    0.090395    0.098250    0.116197    0.125414
     0.139379    0.159586    0.179596    0.202826    0.218452    0.236276
     0.256516    0.270542    0.283076    0.321874    0.337417    0.352624
     0.354030    0.360880    0.391696

 Minimum Search - Taking Simple RFO Step
 Searching for Lamda that Minimizes Along All modes
 Value Taken    Lamda =  -0.04866305
 Calculated Step too Large.  Step scaled by  0.386191
 Step Taken.  Stepsize is  0.300000

                             Maximum     Tolerance    Cnvgd?
         Gradient           0.025971      0.000600      NO
         Displacement       0.116487      0.002400      NO
         Energy change     -0.021777      0.000002      NO


 New Cartesian Coordinates Obtained by Inverse Iteration

 Displacement from previous Coordinates is:  0.209214
 ----------------------------------------------------------------
             Standard Nuclear Orientation (Angstroms)
    I     Atom           X                Y                Z
 ----------------------------------------------------------------
    1      C       1.2650417435     0.1103440174    -0.6167307086
    2      C       0.5076225697    -1.1224786945    -0.9863130597
    3      C      -0.8189657507    -0.6387276630    -1.7486810398
    4      C      -1.2434294473    -0.0310890944    -0.3743654641
    5      C      -0.6765532224     0.8747418097    -1.4220139966
    6      N       0.7210004754     1.2384345254    -1.3387512198
    7      H       2.2663346594     0.1879467235    -0.1932025546
    8      H       0.6651727211    -2.1974633443    -1.0311791120
    9      H      -1.1690394684    -0.5674782149    -2.7781590608
   10      H      -2.2756825319     0.0972996372    -0.0667065334
   11      H      -1.2363312237     1.7341164183    -1.7785258107
   12      C       0.0889872717    -0.3949844545     0.2842899026
   13      H       0.3471788083    -0.7720052454     1.2661043586
 ----------------------------------------------------------------
 Nuclear Repulsion Energy =   286.8062895398 hartrees
 There are       25 alpha and       24 beta electrons
 Applying Cartesian multipole field
    Component          Value
    ---------          -----
     (2,0,0)        1.00000E-11
     (0,2,0)        2.00000E-11
     (0,0,2)       -3.00000E-11
 Nucleus-field energy     =    -0.0000000030 hartrees
 Requested basis set is 6-31G(d)
 There are 40 shells and 117 basis functions
 A cutoff of  1.0D-14 yielded    813 shell pairs
 There are      7085 function pairs
 Smallest overlap matrix eigenvalue = 1.23E-03
 Guess MOs from SCF MO coefficient file
 Reading MOs from coefficient file
 Reading MOs from coefficient file
 An unrestricted hybrid HF-DFT SCF calculation will be
 performed using Pulay DIIS extrapolation
 Exchange:     0.2000 Hartree-Fock + 0.0800 Slater + 0.7200 B88
 Correlation:  0.1900 VWN1RPA + 0.8100 LYP
 Using SG-1 standard quadrature grid
 SCF converges when DIIS error is below 1.0E-08
 Geometry optimization detected.  Setting ReadMinima to 0
 Setting SaveMinima to 0
Using Q-Chem read-in guess as SCF_GUESS READ specified.

 using 4 threads for integral computing
 -------------------------------------------------------
 OpenMP Integral computing Module                
 Release: version 1.0, May 2013, Q-Chem Inc. Pittsburgh 
 -------------------------------------------------------
 -------------------------------------------------------
 OpenMP BLAS3 based DFT computing Module                
 Release: version 1.0, May 2013, Q-Chem Inc. Pittsburgh 
 -------------------------------------------------------
 ---------------------------------------
  Cycle       Energy         DIIS Error
 ---------------------------------------
    1    -286.8017717077      1.84E-03
    2    -286.7721279073      4.63E-04
    3    -286.7721574137      4.79E-04
    4    -286.7725429484      8.48E-05
    5    -286.7725540332      2.92E-05
    6    -286.7725560053      1.04E-05
    7    -286.7725564352      3.66E-06
    8    -286.7725565073      1.41E-06
    9    -286.7725565296      4.05E-07
   10    -286.7725565330      1.92E-07
   11    -286.7725565335      3.82E-08
   12    -286.7725565336      1.54E-08
   13    -286.7725565336      1.02E-08
   14    -286.7725565336      3.90E-09 Convergence criterion met
 ---------------------------------------
 <S^2> = 0.7561
 SCF time:  CPU 36.94 s  wall 37.25 s
 SCF   energy in the final basis set = -286.77255653
 Total energy in the final basis set = -286.77255653
 
 --------------------------------------------------------------
 
                    Orbital Energies (a.u.)
 --------------------------------------------------------------
 
 Alpha MOs
 -- Occupied --
-14.336 -10.227 -10.222 -10.214 -10.211 -10.210 -10.203  -0.981
 -0.826  -0.797  -0.652  -0.589  -0.572  -0.541  -0.534  -0.464
 -0.417  -0.407  -0.388  -0.378  -0.348  -0.286  -0.259  -0.236
 -0.213
 -- Virtual --
  0.067   0.080   0.105   0.129   0.141   0.146   0.160   0.176
  0.178   0.196   0.217   0.243   0.246   0.313   0.355   0.359
  0.486   0.516   0.533   0.559   0.562   0.574   0.598   0.612
  0.617   0.628   0.676   0.704   0.716   0.735   0.766   0.778
  0.797   0.805   0.816   0.834   0.848   0.867   0.907   0.927
  0.972   0.995   1.049   1.131   1.204   1.280   1.356   1.433
  1.460   1.502   1.544   1.599   1.630   1.680   1.703   1.730
  1.752   1.829   1.864   1.915   1.937   1.954   1.994   2.021
  2.064   2.100   2.120   2.206   2.264   2.374   2.392   2.436
  2.473   2.485   2.533   2.547   2.579   2.635   2.674   2.713
  2.733   2.762   2.811   2.869   2.929   3.828   4.206   4.306
  4.352   4.484   4.596   4.691
 
 Beta MOs
 -- Occupied --
-14.320 -10.228 -10.221 -10.212 -10.211 -10.209 -10.202  -0.971
 -0.803  -0.790  -0.647  -0.586  -0.567  -0.538  -0.529  -0.461
 -0.413  -0.395  -0.379  -0.367  -0.336  -0.272  -0.248  -0.231
 -- Virtual --
 -0.075   0.073   0.083   0.108   0.130   0.144   0.148   0.162
  0.177   0.188   0.200   0.222   0.247   0.252   0.315   0.359
  0.364   0.488   0.519   0.538   0.562   0.567   0.577   0.600
  0.618   0.621   0.630   0.679   0.716   0.722   0.745   0.775
  0.780   0.799   0.807   0.821   0.842   0.856   0.877   0.914
  0.933   0.976   1.004   1.053   1.135   1.207   1.291   1.359
  1.443   1.470   1.509   1.554   1.609   1.634   1.691   1.706
  1.743   1.759   1.837   1.867   1.918   1.942   1.958   1.998
  2.031   2.071   2.115   2.127   2.211   2.275   2.388   2.396
  2.440   2.481   2.499   2.542   2.559   2.587   2.650   2.676
  2.717   2.735   2.765   2.814   2.874   2.935   3.855   4.212
  4.309   4.353   4.486   4.598   4.693
 --------------------------------------------------------------
 
          Ground-State Mulliken Net Atomic Charges

     Atom                 Charge (a.u.)    Spin (a.u.)
  --------------------------------------------------------
      1 C                    -0.008001      -0.070151
      2 C                    -0.158214       0.060162
      3 C                    -0.129544       0.137550
      4 C                    -0.091176       0.056926
      5 C                    -0.092540      -0.083665
      6 N                    -0.285992       0.838579
      7 H                     0.155077       0.001437
      8 H                     0.153575       0.000717
      9 H                     0.173124      -0.008331
     10 H                     0.150512      -0.001442
     11 H                     0.150597       0.001768
     12 C                    -0.165120       0.067538
     13 H                     0.147703      -0.001087
  --------------------------------------------------------
  Sum of atomic charges =    -0.000000
  Sum of spin   charges =     1.000000

 -----------------------------------------------------------------
                    Cartesian Multipole Moments
 -----------------------------------------------------------------
    Charge (ESU x 10^10)
                -0.0000
    Dipole Moment (Debye)
         X      -0.9914      Y      -1.4875      Z       0.7796
       Tot       1.9502
    Quadrupole Moments (Debye-Ang)
        XX     -38.0755     XY      -3.6791     YY     -43.1586
        XZ       3.4268     YZ       1.5481     ZZ     -40.5977
    Octopole Moments (Debye-Ang^2)
       XXX       4.5003    XXY       2.1639    XYY      -1.3165
       YYY      -5.0764    XXZ      37.3191    XYZ       5.1548
       YYZ      39.2430    XZZ      -5.8169    YZZ      -3.2717
       ZZZ     105.0834
    Hexadecapole Moments (Debye-Ang^3)
      XXXX    -233.9978   XXXY      -4.4561   XXYY     -83.0706
      XYYY     -15.4293   YYYY    -209.2285   XXXZ     -16.3972
      XXYZ       3.6461   XYYZ       0.1545   YYYZ      23.0267
      XXZZ    -104.6807   XYZZ      -8.7767   YYZZ    -102.0849
      XZZZ      -0.4136   YZZZ      21.1341   ZZZZ    -346.1095
 -----------------------------------------------------------------
 Calculating analytic gradient of the SCF energy
 Gradient of SCF Energy
            1           2           3           4           5           6
    1   0.0261345   0.0237151  -0.0186991  -0.0032189  -0.0291895   0.0059754
    2  -0.0247249   0.0202987  -0.0323687  -0.0159464  -0.0411035   0.0094284
    3  -0.0026398   0.0169271  -0.0261278   0.0237117   0.0014629  -0.0104032
            7           8           9          10          11          12
    1   0.0020255  -0.0193599   0.0068496  -0.0040233   0.0108548  -0.0101978
    2   0.0044302  -0.0036957   0.0305730  -0.0018811   0.0125154   0.0399015
    3   0.0055119  -0.0003581  -0.0042857  -0.0132115   0.0136851  -0.0021971
           13
    1   0.0091336
    2   0.0025729
    3  -0.0020755
 Max gradient component =       4.110E-02
 RMS gradient           =       1.764E-02
 Gradient time:  CPU 7.98 s  wall 3.34 s
 Geometry Optimization Parameters
   NAtoms,    NIC,     NZ,  NCons,   NDum,   NFix, NCnnct, MaxDiis
       13     151       0       0       0       0       0       0

 Cartesian Hessian Update
 Hessian Updated using BFGS Update


** GEOMETRY OPTIMIZATION IN DELOCALIZED INTERNAL COORDINATES **
   Searching for a Minimum

   Optimization Cycle:   6

                       Coordinates (Angstroms)
     ATOM                X               Y               Z
      1  C         1.2650417435    0.1103440174   -0.6167307086
      2  C         0.5076225697   -1.1224786945   -0.9863130597
      3  C        -0.8189657507   -0.6387276630   -1.7486810398
      4  C        -1.2434294473   -0.0310890944   -0.3743654641
      5  C        -0.6765532224    0.8747418097   -1.4220139966
      6  N         0.7210004754    1.2384345254   -1.3387512198
      7  H         2.2663346594    0.1879467235   -0.1932025546
      8  H         0.6651727211   -2.1974633443   -1.0311791120
      9  H        -1.1690394684   -0.5674782149   -2.7781590608
     10  H        -2.2756825319    0.0972996372   -0.0667065334
     11  H        -1.2363312237    1.7341164183   -1.7785258107
     12  C         0.0889872717   -0.3949844545    0.2842899026
     13  H         0.3471788083   -0.7720052454    1.2661043586
   Point Group: c1    Number of degrees of freedom:    33


   Energy is   -286.772556534

 Hessian Updated using BFGS Update

 33 Hessian modes will be used to form the next step
  Hessian Eigenvalues:
     0.009119    0.010324    0.012804    0.016272    0.018923    0.021378
     0.022948    0.031176    0.037591    0.050467    0.061728    0.068912
     0.073611    0.081658    0.090508    0.100432    0.116453    0.128495
     0.139957    0.160201    0.183115    0.203514    0.220199    0.236358
     0.256387    0.270681    0.283091    0.323046    0.337619    0.353351
     0.354291    0.361302    0.395517

 Minimum Search - Taking Simple RFO Step
 Searching for Lamda that Minimizes Along All modes
 Value Taken    Lamda =  -0.03739461
 Calculated Step too Large.  Step scaled by  0.395091
 Step Taken.  Stepsize is  0.300000

                             Maximum     Tolerance    Cnvgd?
         Gradient           0.021296      0.000600      NO
         Displacement       0.128293      0.002400      NO
         Energy change     -0.017165      0.000002      NO


 New Cartesian Coordinates Obtained by Inverse Iteration

 Displacement from previous Coordinates is:  0.198049
 ----------------------------------------------------------------
             Standard Nuclear Orientation (Angstroms)
    I     Atom           X                Y                Z
 ----------------------------------------------------------------
    1      C       1.2470595377     0.1174107704    -0.6139969784
    2      C       0.5020831178    -1.1249046248    -0.9971089929
    3      C      -0.8142053557    -0.6303564394    -1.7274431768
    4      C      -1.2351364564    -0.0096664695    -0.3765854690
    5      C      -0.6651976330     0.9034002586    -1.4265493957
    6      N       0.7160959047     1.2492840870    -1.3256214030
    7      H       2.2505934919     0.1847987484    -0.2015486686
    8      H       0.6934178077    -2.1935326807    -1.0449120051
    9      H      -1.1610722698    -0.6101729617    -2.7572935355
   10      H      -2.2606736081     0.1205463417    -0.0470502179
   11      H      -1.2451514332     1.7368214414    -1.8108950797
   12      C       0.0849740419    -0.4172094767     0.2822264437
   13      H       0.3285494594    -0.8077625742     1.2625441801
 ----------------------------------------------------------------
 Nuclear Repulsion Energy =   287.3774842951 hartrees
 There are       25 alpha and       24 beta electrons
 Applying Cartesian multipole field
    Component          Value
    ---------          -----
     (2,0,0)        1.00000E-11
     (0,2,0)        2.00000E-11
     (0,0,2)       -3.00000E-11
 Nucleus-field energy     =    -0.0000000029 hartrees
 Requested basis set is 6-31G(d)
 There are 40 shells and 117 basis functions
 A cutoff of  1.0D-14 yielded    813 shell pairs
 There are      7085 function pairs
 Smallest overlap matrix eigenvalue = 1.17E-03
 Guess MOs from SCF MO coefficient file
 Reading MOs from coefficient file
 Reading MOs from coefficient file
 An unrestricted hybrid HF-DFT SCF calculation will be
 performed using Pulay DIIS extrapolation
 Exchange:     0.2000 Hartree-Fock + 0.0800 Slater + 0.7200 B88
 Correlation:  0.1900 VWN1RPA + 0.8100 LYP
 Using SG-1 standard quadrature grid
 SCF converges when DIIS error is below 1.0E-08
 Geometry optimization detected.  Setting ReadMinima to 0
 Setting SaveMinima to 0
Using Q-Chem read-in guess as SCF_GUESS READ specified.

 using 4 threads for integral computing
 -------------------------------------------------------
 OpenMP Integral computing Module                
 Release: version 1.0, May 2013, Q-Chem Inc. Pittsburgh 
 -------------------------------------------------------
 -------------------------------------------------------
 OpenMP BLAS3 based DFT computing Module                
 Release: version 1.0, May 2013, Q-Chem Inc. Pittsburgh 
 -------------------------------------------------------
 ---------------------------------------
  Cycle       Energy         DIIS Error
 ---------------------------------------
    1    -286.8067913657      1.51E-03
    2    -286.7856955499      3.72E-04
    3    -286.7857082356      3.90E-04
    4    -286.7859643280      6.67E-05
    5    -286.7859711552      2.35E-05
    6    -286.7859723763      8.79E-06
    7    -286.7859726393      3.17E-06
    8    -286.7859726872      1.15E-06
    9    -286.7859727025      3.15E-07
   10    -286.7859727050      2.09E-07
   11    -286.7859727052      6.01E-08
   12    -286.7859727053      3.56E-08
   13    -286.7859727053      1.94E-08
   14    -286.7859727053      4.08E-09 Convergence criterion met
 ---------------------------------------
 <S^2> = 0.7564
 SCF time:  CPU 37.10 s  wall 26.65 s
 SCF   energy in the final basis set = -286.78597271
 Total energy in the final basis set = -286.78597271
 
 --------------------------------------------------------------
 
                    Orbital Energies (a.u.)
 --------------------------------------------------------------
 
 Alpha MOs
 -- Occupied --
-14.335 -10.224 -10.221 -10.211 -10.211 -10.211 -10.202  -0.983
 -0.829  -0.796  -0.653  -0.590  -0.573  -0.540  -0.535  -0.461
 -0.420  -0.410  -0.389  -0.382  -0.347  -0.285  -0.260  -0.240
 -0.211
 -- Virtual --
  0.069   0.086   0.107   0.132   0.143   0.149   0.160   0.176
  0.180   0.197   0.220   0.243   0.249   0.312   0.359   0.366
  0.485   0.520   0.534   0.557   0.559   0.574   0.598   0.615
  0.618   0.628   0.674   0.707   0.722   0.738   0.763   0.779
  0.795   0.805   0.814   0.834   0.849   0.865   0.904   0.931
  0.972   0.993   1.053   1.138   1.202   1.287   1.366   1.437
[...]
     0.077067    0.082792    0.085400    0.107737    0.116316    0.136367
     0.151909    0.154126    0.183675    0.205044    0.229183    0.235237
     0.258904    0.269662    0.283143    0.325162    0.338260    0.353813
     0.355465    0.362094    0.401638

 Minimum Search - Taking Simple RFO Step
 Searching for Lamda that Minimizes Along All modes
 Value Taken    Lamda =   0.00000000
 Step Taken.  Stepsize is  0.005819

                             Maximum     Tolerance    Cnvgd?
         Gradient           0.000113      0.000600     YES
         Displacement       0.002636      0.002400      NO
         Energy change     -0.000002      0.000002      NO


 New Cartesian Coordinates Obtained by Inverse Iteration

 Displacement from previous Coordinates is:  0.004756
 ----------------------------------------------------------------
             Standard Nuclear Orientation (Angstroms)
    I     Atom           X                Y                Z
 ----------------------------------------------------------------
    1      C       1.1893155155     0.1461264019    -0.5312222662
    2      C       0.4722841667    -1.1165868988    -1.0480909451
    3      C      -0.7899603988    -0.5180313124    -1.7184823969
    4      C      -1.2077140032     0.0763992858    -0.4023701805
    5      C      -0.5955859002     0.9922823653    -1.4791982644
    6      N       0.7522059172     1.3141478817    -1.1975220882
    7      H       2.2147713922     0.0934408260    -0.1822843415
    8      H       0.9737547745    -2.0508101909    -1.2746338395
    9      H      -1.3818511740    -0.9350169302    -2.5255631238
   10      H      -2.1925934540     0.2183112947     0.0282744469
   11      H      -1.2104569175     1.7171772710    -2.0011366060
   12      C       0.0543736489    -0.5219095178     0.2682108704
   13      H       0.1627930375    -0.8968740558     1.2797844359
 ----------------------------------------------------------------
 Nuclear Repulsion Energy =   288.0323860105 hartrees
 There are       25 alpha and       24 beta electrons
 Applying Cartesian multipole field
    Component          Value
    ---------          -----
     (2,0,0)        1.00000E-11
     (0,2,0)        2.00000E-11
     (0,0,2)       -3.00000E-11
 Nucleus-field energy     =    -0.0000000027 hartrees
 Requested basis set is 6-31G(d)
 There are 40 shells and 117 basis functions
 A cutoff of  1.0D-14 yielded    812 shell pairs
 There are      7084 function pairs
 Smallest overlap matrix eigenvalue = 1.00E-03
 Guess MOs from SCF MO coefficient file
 Reading MOs from coefficient file
 Reading MOs from coefficient file
 An unrestricted hybrid HF-DFT SCF calculation will be
 performed using Pulay DIIS extrapolation
 Exchange:     0.2000 Hartree-Fock + 0.0800 Slater + 0.7200 B88
 Correlation:  0.1900 VWN1RPA + 0.8100 LYP
 Using SG-1 standard quadrature grid
 SCF converges when DIIS error is below 1.0E-08
 Geometry optimization detected.  Setting ReadMinima to 0
 Setting SaveMinima to 0
Using Q-Chem read-in guess as SCF_GUESS READ specified.

 using 4 threads for integral computing
 -------------------------------------------------------
 OpenMP Integral computing Module                
 Release: version 1.0, May 2013, Q-Chem Inc. Pittsburgh 
 -------------------------------------------------------
 -------------------------------------------------------
 OpenMP BLAS3 based DFT computing Module                
 Release: version 1.0, May 2013, Q-Chem Inc. Pittsburgh 
 -------------------------------------------------------
 ---------------------------------------
  Cycle       Energy         DIIS Error
 ---------------------------------------
    1    -286.8247378685      2.51E-05
    2    -286.8249747432      6.05E-06
    3    -286.8249747177      7.47E-06
    4    -286.8249748128      7.96E-07
    5    -286.8249748139      3.39E-07
    6    -286.8249748142      9.17E-08
    7    -286.8249748142      6.26E-08
    8    -286.8249748142      1.53E-08
    9    -286.8249748142      7.63E-09 Convergence criterion met
 ---------------------------------------
 <S^2> = 0.7558
 SCF time:  CPU 23.76 s  wall 19.16 s
 SCF   energy in the final basis set = -286.82497481
 Total energy in the final basis set = -286.82497481
 
 --------------------------------------------------------------
 
                    Orbital Energies (a.u.)
 --------------------------------------------------------------
 
 Alpha MOs
 -- Occupied --
-14.335 -10.215 -10.215 -10.207 -10.207 -10.207 -10.206  -0.986
 -0.836  -0.793  -0.649  -0.588  -0.574  -0.542  -0.533  -0.455
 -0.427  -0.415  -0.395  -0.384  -0.337  -0.275  -0.274  -0.248
 -0.212
 -- Virtual --
  0.090   0.094   0.117   0.147   0.150   0.156   0.167   0.180
  0.184   0.197   0.217   0.251   0.255   0.302   0.364   0.378
  0.477   0.520   0.537   0.541   0.562   0.565   0.574   0.608
  0.621   0.630   0.676   0.728   0.729   0.742   0.743   0.781
  0.786   0.801   0.828   0.831   0.848   0.856   0.918   0.938
  0.983   1.005   1.137   1.161   1.195   1.235   1.399   1.455
  1.490   1.538   1.622   1.629   1.653   1.658   1.667   1.691
  1.754   1.824   1.854   1.942   1.967   1.974   1.978   1.984
  2.043   2.127   2.134   2.241   2.272   2.404   2.412   2.489
  2.516   2.522   2.536   2.560   2.570   2.638   2.710   2.719
  2.757   2.769   2.837   2.881   2.932   3.847   4.233   4.317
  4.370   4.460   4.639   4.673
 
 Beta MOs
 -- Occupied --
-14.319 -10.217 -10.216 -10.205 -10.205 -10.205 -10.205  -0.976
 -0.811  -0.789  -0.644  -0.585  -0.568  -0.537  -0.529  -0.453
 -0.423  -0.392  -0.389  -0.378  -0.322  -0.269  -0.257  -0.244
 -- Virtual --
 -0.078   0.091   0.101   0.120   0.147   0.152   0.157   0.176
  0.182   0.188   0.202   0.225   0.259   0.259   0.302   0.367
  0.384   0.479   0.522   0.540   0.542   0.568   0.568   0.576
  0.613   0.621   0.639   0.679   0.732   0.733   0.743   0.782
  0.787   0.794   0.801   0.830   0.839   0.849   0.857   0.919
  0.944   1.003   1.007   1.140   1.164   1.205   1.236   1.401
  1.474   1.507   1.541   1.626   1.634   1.658   1.661   1.691
  1.697   1.759   1.827   1.858   1.947   1.970   1.979   1.982
  1.987   2.058   2.130   2.156   2.247   2.282   2.403   2.431
  2.502   2.523   2.529   2.541   2.565   2.603   2.640   2.714
  2.721   2.760   2.772   2.839   2.887   2.937   3.872   4.239
  4.320   4.369   4.462   4.641   4.676
 --------------------------------------------------------------
 
          Ground-State Mulliken Net Atomic Charges

     Atom                 Charge (a.u.)    Spin (a.u.)
  --------------------------------------------------------
      1 C                    -0.044941      -0.080296
      2 C                    -0.124732       0.089413
      3 C                    -0.125061       0.089511
      4 C                    -0.124802       0.088810
      5 C                    -0.044605      -0.080269
      6 N                    -0.285927       0.811651
      7 H                     0.149323       0.001045
      8 H                     0.144029      -0.002497
      9 H                     0.144014      -0.002498
     10 H                     0.143986      -0.002461
     11 H                     0.149348       0.001045
     12 C                    -0.124577       0.089027
     13 H                     0.143944      -0.002482
  --------------------------------------------------------
  Sum of atomic charges =     0.000000
  Sum of spin   charges =     1.000000

 -----------------------------------------------------------------
                    Cartesian Multipole Moments
 -----------------------------------------------------------------
    Charge (ESU x 10^10)
                 0.0000
    Dipole Moment (Debye)
         X      -1.1830      Y      -1.9352      Z       0.5005
       Tot       2.3227
    Quadrupole Moments (Debye-Ang)
        XX     -38.0045     XY      -3.7425     YY     -42.8935
        XZ       3.1628     YZ       1.9775     ZZ     -39.8236
    Octopole Moments (Debye-Ang^2)
       XXX       3.2388    XXY      -2.3877    XYY      -2.2813
       YYY     -10.5544    XXZ      34.8283    XYZ       4.5356
       YYZ      35.6600    XZZ      -5.9160    YZZ      -5.4529
       ZZZ     104.6288
    Hexadecapole Moments (Debye-Ang^3)
      XXXX    -225.6788   XXXY      -4.4313   XXYY     -79.9451
      XYYY     -14.6889   YYYY    -228.4441   XXXZ     -14.8981
      XXYZ       9.4250   XYYZ       1.5767   YYYZ      28.9667
      XXZZ     -96.6456   XYZZ      -5.8022   YYZZ     -92.4090
      XZZZ      -3.4289   YZZZ      25.3247   ZZZZ    -347.1973
 -----------------------------------------------------------------
 Calculating analytic gradient of the SCF energy
 Gradient of SCF Energy
            1           2           3           4           5           6
    1   0.0000431  -0.0000858   0.0000223   0.0001629  -0.0001956  -0.0000075
    2  -0.0000125  -0.0002487  -0.0000282   0.0001019   0.0000907  -0.0000051
    3   0.0000394  -0.0001069   0.0000191  -0.0000571   0.0000195   0.0000001
            7           8           9          10          11          12
    1  -0.0000020   0.0000101   0.0000526   0.0000081   0.0000113  -0.0000582
    2  -0.0000283  -0.0000023  -0.0000609  -0.0000026   0.0000167   0.0001655
    3  -0.0000130   0.0000175   0.0000195   0.0000127  -0.0000124   0.0000571
           13
    1   0.0000388
    2   0.0000138
    3   0.0000044
 Max gradient component =       2.487E-04
 RMS gradient           =       7.473E-05
 Gradient time:  CPU 7.78 s  wall 2.59 s
 Geometry Optimization Parameters
   NAtoms,    NIC,     NZ,  NCons,   NDum,   NFix, NCnnct, MaxDiis
       13     151       0       0       0       0       0       0

 Cartesian Hessian Update
 Hessian Updated using BFGS Update


** GEOMETRY OPTIMIZATION IN DELOCALIZED INTERNAL COORDINATES **
   Searching for a Minimum

   Optimization Cycle:  20

                       Coordinates (Angstroms)
     ATOM                X               Y               Z
      1  C         1.1893155155    0.1461264019   -0.5312222662
      2  C         0.4722841667   -1.1165868988   -1.0480909451
      3  C        -0.7899603988   -0.5180313124   -1.7184823969
      4  C        -1.2077140032    0.0763992858   -0.4023701805
      5  C        -0.5955859002    0.9922823653   -1.4791982644
      6  N         0.7522059172    1.3141478817   -1.1975220882
      7  H         2.2147713922    0.0934408260   -0.1822843415
      8  H         0.9737547745   -2.0508101909   -1.2746338395
      9  H        -1.3818511740   -0.9350169302   -2.5255631238
     10  H        -2.1925934540    0.2183112947    0.0282744469
     11  H        -1.2104569175    1.7171772710   -2.0011366060
     12  C         0.0543736489   -0.5219095178    0.2682108704
     13  H         0.1627930375   -0.8968740558    1.2797844359
   Point Group: c1    Number of degrees of freedom:    33


   Energy is   -286.824974814

 Hessian Updated using BFGS Update

 33 Hessian modes will be used to form the next step
  Hessian Eigenvalues:
     0.008364    0.009719    0.011758    0.016722    0.018201    0.020334
     0.024613    0.026956    0.037411    0.044228    0.061694    0.071329
     0.074702    0.081669    0.092842    0.115981    0.127719    0.149708
     0.151668    0.166877    0.188511    0.208658    0.225627    0.236422
     0.258377    0.276239    0.286390    0.328397    0.338245    0.353897
     0.356784    0.362077    0.403067

 Minimum Search - Taking Simple RFO Step
 Searching for Lamda that Minimizes Along All modes
 Value Taken    Lamda =   0.00000000
 Step Taken.  Stepsize is  0.003135

                             Maximum     Tolerance    Cnvgd?
         Gradient           0.000175      0.000600     YES
         Displacement       0.001300      0.002400     YES
         Energy change     -0.000000      0.000002     YES


                       Distance Matrix (Angstroms)
             C (  1)   C (  2)   C (  3)   C (  4)   C (  5)   N (  6)
   C (  2)  1.541341
   C (  3)  2.401713  1.549501
   C (  4)  2.401503  2.159297  1.503335
   C (  5)  2.191007  2.402817  1.541456  1.540487
   N (  6)  1.413964  2.451358  2.450828  2.450627  1.414030
   H (  7)  1.084478  2.291299  3.429609  3.429597  3.223044  2.158687
   H (  8)  2.329304  1.084236  2.378467  3.169333  3.430028  3.373125
   H (  9)  3.428872  2.377753  1.084247  2.358227  2.329716  3.372927
   H ( 10)  3.428638  3.168925  2.358122  1.084242  2.328506  3.372726
   H ( 11)  3.223004  3.430763  2.291914  2.290898  1.084416  2.158767
   C ( 12)  1.540603  1.503643  2.158672  1.549360  2.401804  2.450806
   H ( 13)  2.328378  2.358614  3.168732  2.378065  3.428708  3.372399
             H (  7)   H (  8)   H (  9)   H ( 10)   H ( 11)   C ( 12)
   H (  8)  2.707612
   H (  9)  4.414111  2.891141
   H ( 10)  4.414158  4.107584  2.917114
   H ( 11)  4.204394  4.415463  2.708973  2.707342
   C ( 12)  2.291052  2.358637  3.168371  2.377889  3.429759
   H ( 13)  2.707210  2.917924  4.107073  2.890979  4.414014  1.084267

 
 Final energy is   -286.824974814226     


 ******************************
 **  OPTIMIZATION CONVERGED  **
 ******************************

                       Coordinates (Angstroms)
     ATOM                X               Y               Z
      1  C         1.1893155155    0.1461264019   -0.5312222662
      2  C         0.4722841667   -1.1165868988   -1.0480909451
      3  C        -0.7899603988   -0.5180313124   -1.7184823969
      4  C        -1.2077140032    0.0763992858   -0.4023701805
      5  C        -0.5955859002    0.9922823653   -1.4791982644
      6  N         0.7522059172    1.3141478817   -1.1975220882
      7  H         2.2147713922    0.0934408260   -0.1822843415
      8  H         0.9737547745   -2.0508101909   -1.2746338395
      9  H        -1.3818511740   -0.9350169302   -2.5255631238
     10  H        -2.1925934540    0.2183112947    0.0282744469
     11  H        -1.2104569175    1.7171772710   -2.0011366060
     12  C         0.0543736489   -0.5219095178    0.2682108704
     13  H         0.1627930375   -0.8968740558    1.2797844359

Z-matrix Print:
$molecule
0 2
N 
C  1 1.413964
H  2 1.084478 1 118.951233
C  1 1.414030 2 101.565918 3 -179.991245 0
H  4 1.084416 1 118.957766 2 179.975499 0
C  4 1.540487 1 112.013948 2 31.691191 0
H  6 1.084242 4 124.108868 1 135.415270 0
C  6 1.503335 4 60.836916 1 -103.005093 0
H  8 1.084247 6 130.695445 4 -111.530496 0
C  2 1.540603 1 112.023301 3 148.288986 0
H  10 1.084267 2 124.084271 1 -135.335565 0
C  10 1.503643 2 60.822705 1 103.060679 0
H  12 1.084236 10 130.709826 2 111.489037 0
$end

 
 --------------------------------------------------------------
 
                    Orbital Energies (a.u.)
 --------------------------------------------------------------
 
 Alpha MOs
 -- Occupied --
-14.335 -10.215 -10.215 -10.207 -10.207 -10.207 -10.206  -0.986
 -0.836  -0.793  -0.649  -0.588  -0.574  -0.542  -0.533  -0.455
 -0.427  -0.415  -0.395  -0.384  -0.337  -0.275  -0.274  -0.248
 -0.212
 -- Virtual --
  0.090   0.094   0.117   0.147   0.150   0.156   0.167   0.180
  0.184   0.197   0.217   0.251   0.255   0.302   0.364   0.378
  0.477   0.520   0.537   0.541   0.562   0.565   0.574   0.608
  0.621   0.630   0.676   0.728   0.729   0.742   0.743   0.781
  0.786   0.801   0.828   0.831   0.848   0.856   0.918   0.938
  0.983   1.005   1.137   1.161   1.195   1.235   1.399   1.455
  1.490   1.538   1.622   1.629   1.653   1.658   1.667   1.691
  1.754   1.824   1.854   1.942   1.967   1.974   1.978   1.984
  2.043   2.127   2.134   2.241   2.272   2.404   2.412   2.489
  2.516   2.522   2.536   2.560   2.570   2.638   2.710   2.719
  2.757   2.769   2.837   2.881   2.932   3.847   4.233   4.317
  4.370   4.460   4.639   4.673
 
 Beta MOs
 -- Occupied --
-14.319 -10.217 -10.216 -10.205 -10.205 -10.205 -10.205  -0.976
 -0.811  -0.789  -0.644  -0.585  -0.568  -0.537  -0.529  -0.453
 -0.423  -0.392  -0.389  -0.378  -0.322  -0.269  -0.257  -0.244
 -- Virtual --
 -0.078   0.091   0.101   0.120   0.147   0.152   0.157   0.176
  0.182   0.188   0.202   0.225   0.259   0.259   0.302   0.367
  0.384   0.479   0.522   0.540   0.542   0.568   0.568   0.576
  0.613   0.621   0.639   0.679   0.732   0.733   0.743   0.782
  0.787   0.794   0.801   0.830   0.839   0.849   0.857   0.919
  0.944   1.003   1.007   1.140   1.164   1.205   1.236   1.401
  1.474   1.507   1.541   1.626   1.634   1.658   1.661   1.691
  1.697   1.759   1.827   1.858   1.947   1.970   1.979   1.982
  1.987   2.058   2.130   2.156   2.247   2.282   2.403   2.431
  2.502   2.523   2.529   2.541   2.565   2.603   2.640   2.714
  2.721   2.760   2.772   2.839   2.887   2.937   3.872   4.239
  4.320   4.369   4.462   4.641   4.676
 --------------------------------------------------------------
 
          Ground-State Mulliken Net Atomic Charges

     Atom                 Charge (a.u.)    Spin (a.u.)
  --------------------------------------------------------
      1 C                    -0.044941      -0.080296
      2 C                    -0.124732       0.089413
      3 C                    -0.125061       0.089511
      4 C                    -0.124802       0.088810
      5 C                    -0.044605      -0.080269
      6 N                    -0.285927       0.811651
      7 H                     0.149323       0.001045
      8 H                     0.144029      -0.002497
      9 H                     0.144014      -0.002498
     10 H                     0.143986      -0.002461
     11 H                     0.149348       0.001045
     12 C                    -0.124577       0.089027
     13 H                     0.143944      -0.002482
  --------------------------------------------------------
  Sum of atomic charges =     0.000000
  Sum of spin   charges =     1.000000

 -----------------------------------------------------------------
                    Cartesian Multipole Moments
 -----------------------------------------------------------------
    Charge (ESU x 10^10)
                 0.0000
    Dipole Moment (Debye)
         X      -1.1830      Y      -1.9352      Z       0.5005
       Tot       2.3227
    Quadrupole Moments (Debye-Ang)
        XX     -38.0045     XY      -3.7425     YY     -42.8935
        XZ       3.1628     YZ       1.9775     ZZ     -39.8236
    Octopole Moments (Debye-Ang^2)
       XXX       3.2388    XXY      -2.3877    XYY      -2.2813
       YYY     -10.5544    XXZ      34.8283    XYZ       4.5356
       YYZ      35.6600    XZZ      -5.9160    YZZ      -5.4529
       ZZZ     104.6288
    Hexadecapole Moments (Debye-Ang^3)
      XXXX    -225.6788   XXXY      -4.4313   XXYY     -79.9451
      XYYY     -14.6889   YYYY    -228.4441   XXXZ     -14.8981
      XXYZ       9.4250   XYYZ       1.5767   YYYZ      28.9667
      XXZZ     -96.6456   XYZZ      -5.8022   YYZZ     -92.4090
      XZZZ      -3.4289   YZZZ      25.3247   ZZZZ    -347.1973
 -----------------------------------------------------------------
Archival summary:
1\1\c8-66\OPT\ProcedureUnspecified\6-31G*\166(2)\hpark21\TueMar111:13:242022TueMar111:13:242022\0\\#,OPT,ProcedureUnspecified,6-31G*,\\0,2\N\C,1,1.41396\H,2,1.08448,1,118.951\C,1,1.41403,2,101.566,3,-179.991,0\H,4,1.08442,1,118.958,2,179.975,0\C,4,1.54049,1,112.014,2,31.6912,0\H,6,1.08424,4,124.109,1,135.415,0\C,6,1.50334,4,60.8369,1,-103.005,0\H,8,1.08425,6,130.695,4,-111.53,0\C,2,1.5406,1,112.023,3,148.289,0\H,10,1.08427,2,124.084,1,-135.336,0\C,10,1.50364,2,60.8227,1,103.061,0\H,12,1.08424,10,130.71,2,111.489,0\\\@

 Total job time:  762.20s(wall), 834.97s(cpu) 
 Tue Mar  1 11:13:25 2022

        *************************************************************
        *                                                           *
        *  Thank you very much for using Q-Chem.  Have a nice day.  *
        *                                                           *
        *************************************************************


