13   
From optimize.out: Frame 1 / 20, Energy=    -286.6335618128
C       -0.0093470000   -0.0663290000   -0.0000000000
C       -0.1617700000    0.0320620000   -0.0000000000
C       -0.1573740000    0.0375550000   -0.0000000000
C       -0.0974950000    0.0032990000   -0.0000000000
C       -0.0876630000   -0.0545420000   -0.0000000000
N       -0.2909730000    0.9489950000   -0.0000000000
H        0.1781740000    0.0009250000   -0.0000000000
H        0.1583950000    0.0121220000   -0.0000000000
H        0.1848780000   -0.0027000000   -0.0000000000
H        0.1638410000   -0.0003290000   -0.0000000000
H        0.1470100000    0.0010360000   -0.0000000000
C       -0.1716540000    0.0842570000    0.0000000000
H        0.1439780000    0.0036480000    0.0000000000
13   
From optimize.out: Frame 2 / 20, Energy=    -286.6725900763
C       -0.0035170000   -0.0692090000   -0.0000000000
C       -0.1653720000    0.0383970000   -0.0000000000
C       -0.1504310000    0.0506190000   -0.0000000000
C       -0.0924200000    0.0110880000   -0.0000000000
C       -0.0966680000   -0.0587320000   -0.0000000000
N       -0.2884290000    0.9383370000   -0.0000000000
H        0.1730130000    0.0012360000   -0.0000000000
H        0.1577540000    0.0097790000   -0.0000000000
H        0.1838650000   -0.0035080000   -0.0000000000
H        0.1607200000   -0.0006000000   -0.0000000000
H        0.1485170000    0.0013040000   -0.0000000000
C       -0.1722250000    0.0789080000    0.0000000000
H        0.1451950000    0.0023830000    0.0000000000
13   
From optimize.out: Frame 3 / 20, Energy=    -286.7063446920
C        0.0018020000   -0.0705300000   -0.0000000000
C       -0.1676420000    0.0453320000   -0.0000000000
C       -0.1432070000    0.0702440000   -0.0000000000
C       -0.0878670000    0.0213920000   -0.0000000000
C       -0.1013760000   -0.0643360000   -0.0000000000
N       -0.2879430000    0.9160930000   -0.0000000000
H        0.1672940000    0.0014140000   -0.0000000000
H        0.1567280000    0.0073380000   -0.0000000000
H        0.1821820000   -0.0047020000   -0.0000000000
H        0.1575110000   -0.0009550000   -0.0000000000
H        0.1494990000    0.0015730000   -0.0000000000
C       -0.1728700000    0.0759040000    0.0000000000
H        0.1458900000    0.0012350000    0.0000000000
13   
From optimize.out: Frame 4 / 20, Energy=    -286.7336144193
C        0.0022900000   -0.0710110000   -0.0000000000
C       -0.1668950000    0.0517890000   -0.0000000000
C       -0.1371800000    0.0939260000   -0.0000000000
C       -0.0863400000    0.0339930000   -0.0000000000
C       -0.1018220000   -0.0715250000   -0.0000000000
N       -0.2874510000    0.8895910000   -0.0000000000
H        0.1622380000    0.0015090000   -0.0000000000
H        0.1556790000    0.0047400000   -0.0000000000
H        0.1797690000   -0.0060950000   -0.0000000000
H        0.1547730000   -0.0013090000   -0.0000000000
H        0.1502560000    0.0017690000   -0.0000000000
C       -0.1719600000    0.0723870000    0.0000000000
H        0.1466450000    0.0002360000    0.0000000000
13   
From optimize.out: Frame 5 / 20, Energy=    -286.7553915296
C       -0.0014740000   -0.0707230000   -0.0000000000
C       -0.1634300000    0.0568600000   -0.0000000000
C       -0.1325890000    0.1178180000   -0.0000000000
C       -0.0876880000    0.0466320000   -0.0000000000
C       -0.0985720000   -0.0784230000   -0.0000000000
N       -0.2867420000    0.8622470000   -0.0000000000
H        0.1581350000    0.0015110000   -0.0000000000
H        0.1546200000    0.0024230000   -0.0000000000
H        0.1767380000   -0.0073920000   -0.0000000000
H        0.1524750000   -0.0015090000   -0.0000000000
H        0.1505970000    0.0018360000   -0.0000000000
C       -0.1693560000    0.0692520000    0.0000000000
H        0.1472870000   -0.0005320000    0.0000000000
13   
From optimize.out: Frame 6 / 20, Energy=    -286.7725565336
C       -0.0080010000   -0.0701510000   -0.0000000000
C       -0.1582140000    0.0601620000   -0.0000000000
C       -0.1295440000    0.1375500000   -0.0000000000
C       -0.0911760000    0.0569260000   -0.0000000000
C       -0.0925400000   -0.0836650000   -0.0000000000
N       -0.2859920000    0.8385790000   -0.0000000000
H        0.1550770000    0.0014370000   -0.0000000000
H        0.1535750000    0.0007170000   -0.0000000000
H        0.1731240000   -0.0083310000   -0.0000000000
H        0.1505120000   -0.0014420000   -0.0000000000
H        0.1505970000    0.0017680000   -0.0000000000
C       -0.1651200000    0.0675380000    0.0000000000
H        0.1477030000   -0.0010870000    0.0000000000
13   
From optimize.out: Frame 7 / 20, Energy=    -286.7859727053
C       -0.0155710000   -0.0697690000   -0.0000000000
C       -0.1523720000    0.0620720000   -0.0000000000
C       -0.1278320000    0.1511860000   -0.0000000000
C       -0.0959520000    0.0642240000   -0.0000000000
C       -0.0847330000   -0.0870860000   -0.0000000000
N       -0.2854190000    0.8207720000   -0.0000000000
H        0.1528910000    0.0013310000   -0.0000000000
H        0.1525130000   -0.0003830000   -0.0000000000
H        0.1691120000   -0.0088410000   -0.0000000000
H        0.1487950000   -0.0011420000   -0.0000000000
H        0.1503770000    0.0016230000   -0.0000000000
C       -0.1596700000    0.0675260000    0.0000000000
H        0.1478610000   -0.0015130000    0.0000000000
13   
From optimize.out: Frame 8 / 20, Energy=    -286.7963492287
C       -0.0228280000   -0.0697830000   -0.0000000000
C       -0.1467880000    0.0632040000   -0.0000000000
C       -0.1270200000    0.1587080000   -0.0000000000
C       -0.1012640000    0.0692060000   -0.0000000000
C       -0.0762080000   -0.0890240000   -0.0000000000
N       -0.2851240000    0.8087370000   -0.0000000000
H        0.1513710000    0.0012330000   -0.0000000000
H        0.1513920000   -0.0010390000   -0.0000000000
H        0.1649800000   -0.0089570000   -0.0000000000
H        0.1472830000   -0.0007350000   -0.0000000000
H        0.1500670000    0.0014550000   -0.0000000000
C       -0.1536610000    0.0688630000    0.0000000000
H        0.1478010000   -0.0018680000    0.0000000000
13   
From optimize.out: Frame 9 / 20, Energy=    -286.8042865322
C       -0.0289560000   -0.0702720000   -0.0000000000
C       -0.1418500000    0.0641770000   -0.0000000000
C       -0.1266480000    0.1605290000   -0.0000000000
C       -0.1063450000    0.0727280000   -0.0000000000
C       -0.0680980000   -0.0898160000   -0.0000000000
N       -0.2850750000    0.8017340000   -0.0000000000
H        0.1503500000    0.0011610000   -0.0000000000
H        0.1502120000   -0.0014100000   -0.0000000000
H        0.1609430000   -0.0087290000   -0.0000000000
H        0.1459620000   -0.0003750000   -0.0000000000
H        0.1497540000    0.0013030000   -0.0000000000
C       -0.1478350000    0.0711360000    0.0000000000
H        0.1475870000   -0.0021660000    0.0000000000
13   
From optimize.out: Frame 10 / 20, Energy=    -286.8103270711
C       -0.0337020000   -0.0712180000   -0.0000000000
C       -0.1375020000    0.0654450000   -0.0000000000
C       -0.1264950000    0.1573240000   -0.0000000000
C       -0.1105770000    0.0754250000   -0.0000000000
C       -0.0612060000   -0.0897130000   -0.0000000000
N       -0.2851830000    0.7988340000   -0.0000000000
H        0.1497070000    0.0011190000   -0.0000000000
H        0.1490110000   -0.0016160000   -0.0000000000
H        0.1571270000   -0.0082060000   -0.0000000000
H        0.1448320000   -0.0001800000    0.0000000000
H        0.1494940000    0.0011870000   -0.0000000000
C       -0.1427780000    0.0740020000    0.0000000000
H        0.1472710000   -0.0024040000    0.0000000000
13   
From optimize.out: Frame 11 / 20, Energy=    -286.8149372486
C       -0.0372410000   -0.0725120000   -0.0000000000
C       -0.1335150000    0.0672730000   -0.0000000000
C       -0.1265710000    0.1501370000   -0.0000000000
C       -0.1137020000    0.0777210000   -0.0000000000
C       -0.0557830000   -0.0889140000   -0.0000000000
N       -0.2853530000    0.7989170000   -0.0000000000
H        0.1493480000    0.0010990000   -0.0000000000
H        0.1478360000   -0.0017330000   -0.0000000000
H        0.1536130000   -0.0074520000   -0.0000000000
H        0.1439200000   -0.0001960000    0.0000000000
H        0.1493140000    0.0011090000   -0.0000000000
C       -0.1387460000    0.0771300000    0.0000000000
H        0.1468810000   -0.0025800000    0.0000000000
13   
From optimize.out: Frame 12 / 20, Energy=    -286.8184698472
C       -0.0398860000   -0.0740140000   -0.0000000000
C       -0.1298120000    0.0697930000   -0.0000000000
C       -0.1268870000    0.1401150000   -0.0000000000
C       -0.1158590000    0.0798410000   -0.0000000000
C       -0.0517080000   -0.0875980000   -0.0000000000
N       -0.2855290000    0.8009450000   -0.0000000000
H        0.1491950000    0.0010910000   -0.0000000000
H        0.1467290000   -0.0018110000   -0.0000000000
H        0.1504880000   -0.0065350000   -0.0000000000
H        0.1432620000   -0.0004130000    0.0000000000
H        0.1492260000    0.0010620000   -0.0000000000
C       -0.1356450000    0.0802150000    0.0000000000
H        0.1464270000   -0.0026910000    0.0000000000
13   
From optimize.out: Frame 13 / 20, Energy=    -286.8211529735
C       -0.0418810000   -0.0755880000   -0.0000000000
C       -0.1265940000    0.0730400000   -0.0000000000
C       -0.1272770000    0.1283780000   -0.0000000000
C       -0.1174510000    0.0819060000   -0.0000000000
C       -0.0487180000   -0.0859430000   -0.0000000000
N       -0.2856950000    0.8039850000   -0.0000000000
H        0.1491750000    0.0010860000   -0.0000000000
H        0.1457320000   -0.0018810000   -0.0000000000
H        0.1478520000   -0.0055270000   -0.0000000000
H        0.1428920000   -0.0007890000    0.0000000000
H        0.1492240000    0.0010360000   -0.0000000000
C       -0.1331690000    0.0830370000    0.0000000000
H        0.1459100000   -0.0027400000    0.0000000000
13   
From optimize.out: Frame 14 / 20, Energy=    -286.8231045643
C       -0.0433300000   -0.0771220000   -0.0000000000
C       -0.1243180000    0.0769780000   -0.0000000000
C       -0.1273810000    0.1159280000   -0.0000000000
C       -0.1189870000    0.0839460000   -0.0000000000
C       -0.0466010000   -0.0841170000   -0.0000000000
N       -0.2858600000    0.8072730000   -0.0000000000
H        0.1492300000    0.0010790000   -0.0000000000
H        0.1448930000   -0.0019670000   -0.0000000000
H        0.1458150000   -0.0045000000   -0.0000000000
H        0.1428230000   -0.0012720000    0.0000000000
H        0.1492860000    0.0010240000   -0.0000000000
C       -0.1308990000    0.0854800000    0.0000000000
H        0.1453290000   -0.0027300000    0.0000000000
13   
From optimize.out: Frame 15 / 20, Energy=    -286.8243599657
C       -0.0442660000   -0.0785360000   -0.0000000000
C       -0.1234810000    0.0815270000   -0.0000000000
C       -0.1267910000    0.1036810000   -0.0000000000
C       -0.1209410000    0.0860010000   -0.0000000000
C       -0.0452240000   -0.0822850000   -0.0000000000
N       -0.2860200000    0.8100680000   -0.0000000000
H        0.1492990000    0.0010670000   -0.0000000000
H        0.1442620000   -0.0020950000   -0.0000000000
H        0.1444770000   -0.0035250000   -0.0000000000
H        0.1430390000   -0.0018060000    0.0000000000
H        0.1493620000    0.0010220000   -0.0000000000
C       -0.1284100000    0.0875530000    0.0000000000
H        0.1446930000   -0.0026710000    0.0000000000
13   
From optimize.out: Frame 16 / 20, Energy=    -286.8249104884
C       -0.0447110000   -0.0798090000   -0.0000000000
C       -0.1245040000    0.0866920000   -0.0000000000
C       -0.1252000000    0.0923310000   -0.0000000000
C       -0.1236970000    0.0880350000   -0.0000000000
C       -0.0445800000   -0.0805730000   -0.0000000000
N       -0.2861210000    0.8118130000   -0.0000000000
H        0.1493540000    0.0010470000   -0.0000000000
H        0.1439090000   -0.0022940000   -0.0000000000
H        0.1439340000   -0.0026680000   -0.0000000000
H        0.1435140000   -0.0023390000    0.0000000000
H        0.1493890000    0.0010300000   -0.0000000000
C       -0.1253250000    0.0893030000    0.0000000000
H        0.1440370000   -0.0025680000    0.0000000000
13   
From optimize.out: Frame 17 / 20, Energy=    -286.8249582875
C       -0.0447460000   -0.0801540000   -0.0000000000
C       -0.1250060000    0.0883350000   -0.0000000000
C       -0.1247770000    0.0899170000   -0.0000000000
C       -0.1246750000    0.0886080000   -0.0000000000
C       -0.0445420000   -0.0802570000   -0.0000000000
N       -0.2860330000    0.8117640000   -0.0000000000
H        0.1493440000    0.0010430000   -0.0000000000
H        0.1439190000   -0.0023980000   -0.0000000000
H        0.1439850000   -0.0025070000   -0.0000000000
H        0.1437540000   -0.0024540000    0.0000000000
H        0.1493480000    0.0010370000   -0.0000000000
C       -0.1244890000    0.0895900000    0.0000000000
H        0.1439180000   -0.0025250000    0.0000000000
13   
From optimize.out: Frame 18 / 20, Energy=    -286.8249722748
C       -0.0448550000   -0.0802870000   -0.0000000000
C       -0.1249910000    0.0891170000   -0.0000000000
C       -0.1248450000    0.0893620000   -0.0000000000
C       -0.1249230000    0.0886650000   -0.0000000000
C       -0.0446070000   -0.0802020000   -0.0000000000
N       -0.2859590000    0.8118040000   -0.0000000000
H        0.1493370000    0.0010430000   -0.0000000000
H        0.1439830000   -0.0024630000   -0.0000000000
H        0.1440300000   -0.0024840000   -0.0000000000
H        0.1439050000   -0.0024660000    0.0000000000
H        0.1493480000    0.0010430000   -0.0000000000
C       -0.1243420000    0.0893650000    0.0000000000
H        0.1439180000   -0.0024960000    0.0000000000
13   
From optimize.out: Frame 19 / 20, Energy=    -286.8249747065
C       -0.0448560000   -0.0803280000   -0.0000000000
C       -0.1249740000    0.0894620000   -0.0000000000
C       -0.1248370000    0.0896030000   -0.0000000000
C       -0.1248960000    0.0888200000   -0.0000000000
C       -0.0446760000   -0.0802770000   -0.0000000000
N       -0.2858810000    0.8113550000   -0.0000000000
H        0.1492900000    0.0010450000   -0.0000000000
H        0.1440250000   -0.0024970000   -0.0000000000
H        0.1440640000   -0.0025100000   -0.0000000000
H        0.1439780000   -0.0024680000    0.0000000000
H        0.1492760000    0.0010460000   -0.0000000000
C       -0.1244570000    0.0892380000    0.0000000000
H        0.1439450000   -0.0024890000    0.0000000000
