13   
Frame   0 IRC: Energy =  -286.8734820000 ; +0.0000 kcal/mol
C       -0.0918260000   -0.0307470000   -0.0000000000
C        0.0085020000   -0.0611220000   -0.0000000000
C       -0.2711900000    1.0341560000   -0.0000000000
C       -0.1468850000    0.0482580000    0.0000000000
C        0.0238970000   -0.0897830000   -0.0000000000
N       -0.2028180000    0.0248230000   -0.0000000000
H        0.1373390000   -0.0001290000   -0.0000000000
H        0.1246810000    0.0034970000   -0.0000000000
H        0.1389420000   -0.0260510000   -0.0000000000
H        0.1388770000    0.0006150000    0.0000000000
H        0.1293780000    0.0035890000   -0.0000000000
C       -0.1274850000    0.0926930000    0.0000000000
H        0.1385880000    0.0002010000    0.0000000000
13   
Frame   1 IRC: Energy =  -286.8734810000 ; +0.0006 kcal/mol
C       -0.0918120000   -0.0307520000   -0.0000000000
C        0.0085450000   -0.0611160000   -0.0000000000
C       -0.2712870000    1.0340950000   -0.0000000000
C       -0.1467660000    0.0482640000    0.0000000000
C        0.0238710000   -0.0897820000   -0.0000000000
N       -0.2027990000    0.0248150000   -0.0000000000
H        0.1373280000   -0.0001290000   -0.0000000000
H        0.1246760000    0.0034980000   -0.0000000000
H        0.1389390000   -0.0260320000   -0.0000000000
H        0.1388890000    0.0006170000    0.0000000000
H        0.1293900000    0.0035900000   -0.0000000000
C       -0.1275590000    0.0927330000    0.0000000000
H        0.1385850000    0.0001990000    0.0000000000
13   
Frame   2 IRC: Energy =  -286.8734470000 ; +0.0220 kcal/mol
C       -0.0913750000   -0.0302700000   -0.0000000000
C        0.0076610000   -0.0610780000   -0.0000000000
C       -0.2710620000    1.0336350000   -0.0000000000
C       -0.1465250000    0.0500600000    0.0000000000
C        0.0237290000   -0.0898770000   -0.0000000000
N       -0.2026830000    0.0241930000   -0.0000000000
H        0.1373350000   -0.0001440000   -0.0000000000
H        0.1245820000    0.0035190000   -0.0000000000
H        0.1389900000   -0.0258630000   -0.0000000000
H        0.1389230000    0.0005330000    0.0000000000
H        0.1293590000    0.0035810000   -0.0000000000
C       -0.1276430000    0.0914820000    0.0000000000
H        0.1387080000    0.0002280000    0.0000000000
13   
Frame   3 IRC: Energy =  -286.8734420000 ; +0.0251 kcal/mol
C       -0.0913750000   -0.0302780000   -0.0000000000
C        0.0077370000   -0.0610630000   -0.0000000000
C       -0.2712260000    1.0335140000   -0.0000000000
C       -0.1462770000    0.0501090000    0.0000000000
C        0.0237170000   -0.0898770000   -0.0000000000
N       -0.2026580000    0.0241800000   -0.0000000000
H        0.1373260000   -0.0001450000   -0.0000000000
H        0.1245720000    0.0035230000   -0.0000000000
H        0.1389840000   -0.0258270000   -0.0000000000
H        0.1389420000    0.0005330000    0.0000000000
H        0.1293800000    0.0035830000   -0.0000000000
C       -0.1278180000    0.0915250000    0.0000000000
H        0.1386960000    0.0002230000    0.0000000000
13   
Frame   4 IRC: Energy =  -286.8734010000 ; +0.0508 kcal/mol
C       -0.0910480000   -0.0298930000   -0.0000000000
C        0.0069700000   -0.0610690000   -0.0000000000
C       -0.2709510000    1.0333470000   -0.0000000000
C       -0.1462190000    0.0515370000    0.0000000000
C        0.0236180000   -0.0899900000   -0.0000000000
N       -0.2025530000    0.0237270000   -0.0000000000
H        0.1373340000   -0.0001560000   -0.0000000000
H        0.1244970000    0.0035340000   -0.0000000000
H        0.1390160000   -0.0257400000   -0.0000000000
H        0.1389600000    0.0004620000    0.0000000000
H        0.1293390000    0.0035710000   -0.0000000000
C       -0.1277730000    0.0904160000    0.0000000000
H        0.1388110000    0.0002530000    0.0000000000
13   
Frame   5 IRC: Energy =  -286.8733910000 ; +0.0571 kcal/mol
C       -0.0910510000   -0.0298970000   -0.0000000000
C        0.0070660000   -0.0610490000   -0.0000000000
C       -0.2711720000    1.0331790000   -0.0000000000
C       -0.1458290000    0.0516420000    0.0000000000
C        0.0236080000   -0.0899950000   -0.0000000000
N       -0.2025210000    0.0237030000   -0.0000000000
H        0.1373280000   -0.0001580000   -0.0000000000
H        0.1244800000    0.0035400000   -0.0000000000
H        0.1390080000   -0.0256890000   -0.0000000000
H        0.1389860000    0.0004600000    0.0000000000
H        0.1293670000    0.0035730000   -0.0000000000
C       -0.1280640000    0.0904440000    0.0000000000
H        0.1387940000    0.0002460000    0.0000000000
13   
Frame   6 IRC: Energy =  -286.8733400000 ; +0.0891 kcal/mol
C       -0.0907540000   -0.0295270000   -0.0000000000
C        0.0062740000   -0.0610770000   -0.0000000000
C       -0.2708370000    1.0331490000   -0.0000000000
C       -0.1459060000    0.0530240000    0.0000000000
C        0.0235280000   -0.0901300000   -0.0000000000
N       -0.2024110000    0.0232950000   -0.0000000000
H        0.1373340000   -0.0001680000   -0.0000000000
H        0.1244090000    0.0035470000   -0.0000000000
H        0.1390330000   -0.0256380000   -0.0000000000
H        0.1389960000    0.0003890000    0.0000000000
H        0.1293170000    0.0035580000   -0.0000000000
C       -0.1279010000    0.0892970000    0.0000000000
H        0.1389180000    0.0002790000    0.0000000000
13   
Frame   7 IRC: Energy =  -286.8733180000 ; +0.1029 kcal/mol
C       -0.0907510000   -0.0295180000   -0.0000000000
C        0.0063900000   -0.0610580000   -0.0000000000
C       -0.2711180000    1.0329390000   -0.0000000000
C       -0.1453410000    0.0532050000    0.0000000000
C        0.0235090000   -0.0901430000   -0.0000000000
N       -0.2023690000    0.0232540000   -0.0000000000
H        0.1373310000   -0.0001700000   -0.0000000000
H        0.1243850000    0.0035560000   -0.0000000000
H        0.1390220000   -0.0255730000   -0.0000000000
H        0.1390330000    0.0003840000    0.0000000000
H        0.1293520000    0.0035590000   -0.0000000000
C       -0.1283420000    0.0892970000    0.0000000000
H        0.1388980000    0.0002690000    0.0000000000
13   
Frame   8 IRC: Energy =  -286.8732520000 ; +0.1443 kcal/mol
C       -0.0904620000   -0.0291330000   -0.0000000000
C        0.0055020000   -0.0611050000   -0.0000000000
C       -0.2707110000    1.0330100000   -0.0000000000
C       -0.1455600000    0.0546720000    0.0000000000
C        0.0234560000   -0.0903080000   -0.0000000000
N       -0.2022450000    0.0228520000   -0.0000000000
H        0.1373360000   -0.0001810000   -0.0000000000
H        0.1243100000    0.0035590000   -0.0000000000
H        0.1390430000   -0.0255450000   -0.0000000000
H        0.1390350000    0.0003060000    0.0000000000
H        0.1292930000    0.0035420000   -0.0000000000
C       -0.1280370000    0.0880220000    0.0000000000
H        0.1390400000    0.0003090000    0.0000000000
13   
Frame   9 IRC: Energy =  -286.8732120000 ; +0.1694 kcal/mol
C       -0.0904470000   -0.0291030000   -0.0000000000
C        0.0056430000   -0.0610940000   -0.0000000000
C       -0.2710580000    1.0327600000   -0.0000000000
C       -0.1447640000    0.0549580000    0.0000000000
C        0.0234100000   -0.0903370000   -0.0000000000
N       -0.2021890000    0.0227860000   -0.0000000000
H        0.1373370000   -0.0001850000   -0.0000000000
H        0.1242770000    0.0035720000   -0.0000000000
H        0.1390270000   -0.0254640000   -0.0000000000
H        0.1390890000    0.0002950000    0.0000000000
H        0.1293330000    0.0035410000   -0.0000000000
C       -0.1286800000    0.0879750000    0.0000000000
H        0.1390210000    0.0002950000    0.0000000000
13   
Frame  10 IRC: Energy =  -286.8731250000 ; +0.2240 kcal/mol
C       -0.0901600000   -0.0286870000   -0.0000000000
C        0.0045990000   -0.0611580000   -0.0000000000
C       -0.2705670000    1.0329290000   -0.0000000000
C       -0.1451590000    0.0565980000    0.0000000000
C        0.0234070000   -0.0905430000   -0.0000000000
N       -0.2020430000    0.0223710000   -0.0000000000
H        0.1373390000   -0.0001960000   -0.0000000000
H        0.1241940000    0.0035710000   -0.0000000000
H        0.1390430000   -0.0254570000   -0.0000000000
H        0.1390820000    0.0002050000    0.0000000000
H        0.1292660000    0.0035210000   -0.0000000000
C       -0.1281860000    0.0865030000    0.0000000000
H        0.1391860000    0.0003420000    0.0000000000
13   
Frame  11 IRC: Energy =  -286.8730540000 ; +0.2686 kcal/mol
C       -0.0901230000   -0.0286220000   -0.0000000000
C        0.0047760000   -0.0611670000   -0.0000000000
C       -0.2709940000    1.0326460000   -0.0000000000
C       -0.1440560000    0.0570310000    0.0000000000
C        0.0233070000   -0.0905980000   -0.0000000000
N       -0.2019660000    0.0222710000   -0.0000000000
H        0.1373450000   -0.0002020000   -0.0000000000
H        0.1241520000    0.0035900000   -0.0000000000
H        0.1390220000   -0.0253620000   -0.0000000000
H        0.1391590000    0.0001860000    0.0000000000
H        0.1293120000    0.0035180000   -0.0000000000
C       -0.1291060000    0.0863840000    0.0000000000
H        0.1391730000    0.0003250000    0.0000000000
13   
Frame  12 IRC: Energy =  -286.8729340000 ; +0.3439 kcal/mol
C       -0.0898350000   -0.0281610000   -0.0000000000
C        0.0035030000   -0.0612520000   -0.0000000000
C       -0.2704030000    1.0329210000   -0.0000000000
C       -0.1446780000    0.0589370000    0.0000000000
C        0.0233930000   -0.0908630000   -0.0000000000
N       -0.2017920000    0.0218320000   -0.0000000000
H        0.1373430000   -0.0002140000   -0.0000000000
H        0.1240530000    0.0035830000   -0.0000000000
H        0.1390310000   -0.0253760000   -0.0000000000
H        0.1391410000    0.0000790000    0.0000000000
H        0.1292360000    0.0034940000   -0.0000000000
C       -0.1283620000    0.0846380000    0.0000000000
H        0.1393690000    0.0003820000    0.0000000000
13   
Frame  13 IRC: Energy =  -286.8728100000 ; +0.4217 kcal/mol
C       -0.0897660000   -0.0280360000   -0.0000000000
C        0.0037250000   -0.0613010000   -0.0000000000
C       -0.2709260000    1.0326220000   -0.0000000000
C       -0.1431630000    0.0596040000    0.0000000000
C        0.0232060000   -0.0909660000   -0.0000000000
N       -0.2016850000    0.0216780000   -0.0000000000
H        0.1373550000   -0.0002230000   -0.0000000000
H        0.1240030000    0.0036100000   -0.0000000000
H        0.1390000000   -0.0252690000   -0.0000000000
H        0.1392500000    0.0000460000    0.0000000000
H        0.1292870000    0.0034850000   -0.0000000000
C       -0.1296610000    0.0843900000    0.0000000000
H        0.1393730000    0.0003590000    0.0000000000
13   
Frame  14 IRC: Energy =  -286.8726400000 ; +0.5284 kcal/mol
C       -0.0894720000   -0.0275130000   -0.0000000000
C        0.0021210000   -0.0614150000   -0.0000000000
C       -0.2702130000    1.0330250000   -0.0000000000
C       -0.1440780000    0.0618940000    0.0000000000
C        0.0234430000   -0.0913160000   -0.0000000000
N       -0.2014720000    0.0212050000   -0.0000000000
H        0.1373470000   -0.0002370000   -0.0000000000
H        0.1238770000    0.0035940000   -0.0000000000
H        0.1389980000   -0.0253100000   -0.0000000000
H        0.1392210000   -0.0000860000    0.0000000000
H        0.1292040000    0.0034570000   -0.0000000000
C       -0.1285840000    0.0822740000    0.0000000000
H        0.1396090000    0.0004280000    0.0000000000
13   
Frame  15 IRC: Energy =  -286.8724200000 ; +0.6664 kcal/mol
C       -0.0893700000   -0.0272910000   -0.0000000000
C        0.0024090000   -0.0615420000   -0.0000000000
C       -0.2708730000    1.0327530000   -0.0000000000
C       -0.1420110000    0.0629290000    0.0000000000
C        0.0231400000   -0.0915070000   -0.0000000000
N       -0.2013230000    0.0209790000   -0.0000000000
H        0.1373660000   -0.0002500000   -0.0000000000
H        0.1238230000    0.0036330000   -0.0000000000
H        0.1389500000   -0.0252010000   -0.0000000000
H        0.1393790000   -0.0001460000    0.0000000000
H        0.1292610000    0.0034390000   -0.0000000000
C       -0.1303980000    0.0818080000    0.0000000000
H        0.1396490000    0.0003970000    0.0000000000
13   
Frame  16 IRC: Energy =  -286.8722400000 ; +0.7794 kcal/mol
C       -0.0889520000   -0.0267740000   -0.0000000000
C        0.0005570000   -0.0616910000   -0.0000000000
C       -0.2699410000    1.0332440000   -0.0000000000
C       -0.1434990000    0.0652770000    0.0000000000
C        0.0234880000   -0.0919060000   -0.0000000000
N       -0.2010410000    0.0205300000   -0.0000000000
H        0.1373180000   -0.0002630000   -0.0000000000
H        0.1236860000    0.0036070000   -0.0000000000
H        0.1389430000   -0.0252810000   -0.0000000000
H        0.1392950000   -0.0002790000    0.0000000000
H        0.1291770000    0.0034180000   -0.0000000000
C       -0.1289010000    0.0796430000    0.0000000000
H        0.1398690000    0.0004770000    0.0000000000
13   
Frame  17 IRC: Energy =  -286.8719420000 ; +0.9664 kcal/mol
C       -0.0892120000   -0.0265410000   -0.0000000000
C        0.0008720000   -0.0618180000   -0.0000000000
C       -0.2708320000    1.0331550000   -0.0000000000
C       -0.1410840000    0.0664120000    0.0000000000
C        0.0233850000   -0.0921290000   -0.0000000000
N       -0.2010430000    0.0203330000   -0.0000000000
H        0.1373990000   -0.0002760000   -0.0000000000
H        0.1236370000    0.0036390000   -0.0000000000
H        0.1388740000   -0.0252070000   -0.0000000000
H        0.1395370000   -0.0003660000    0.0000000000
H        0.1292310000    0.0033840000   -0.0000000000
C       -0.1307570000    0.0789770000    0.0000000000
H        0.1399930000    0.0004360000    0.0000000000
13   
Frame  18 IRC: Energy =  -286.8717180000 ; +1.1069 kcal/mol
C       -0.0884810000   -0.0260130000   -0.0000000000
C       -0.0007360000   -0.0620760000   -0.0000000000
C       -0.2699800000    1.0335250000   -0.0000000000
C       -0.1423270000    0.0687950000    0.0000000000
C        0.0235020000   -0.0925920000   -0.0000000000
N       -0.2006030000    0.0198810000   -0.0000000000
H        0.1372890000   -0.0002920000   -0.0000000000
H        0.1235140000    0.0036290000   -0.0000000000
H        0.1388590000   -0.0252800000   -0.0000000000
H        0.1394390000   -0.0004900000    0.0000000000
H        0.1291750000    0.0033710000   -0.0000000000
C       -0.1298120000    0.0770350000    0.0000000000
H        0.1401600000    0.0005070000    0.0000000000
13   
Frame  19 IRC: Energy =  -286.8713160000 ; +1.3592 kcal/mol
C       -0.0890200000   -0.0256920000   -0.0000000000
C       -0.0008190000   -0.0622350000   -0.0000000000
C       -0.2708300000    1.0337490000   -0.0000000000
C       -0.1401500000    0.0703400000    0.0000000000
C        0.0237980000   -0.0929210000   -0.0000000000
N       -0.2007130000    0.0196600000   -0.0000000000
H        0.1374110000   -0.0003060000   -0.0000000000
H        0.1234470000    0.0036440000   -0.0000000000
H        0.1387660000   -0.0252780000   -0.0000000000
H        0.1397160000   -0.0006250000    0.0000000000
H        0.1292130000    0.0033230000   -0.0000000000
C       -0.1312000000    0.0758740000    0.0000000000
H        0.1403820000    0.0004680000    0.0000000000
13   
Frame  20 IRC: Energy =  -286.8710170000 ; +1.5468 kcal/mol
C       -0.0880950000   -0.0251290000   -0.0000000000
C       -0.0022430000   -0.0626090000   -0.0000000000
C       -0.2701590000    1.0340920000   -0.0000000000
C       -0.1410870000    0.0729250000    0.0000000000
C        0.0237790000   -0.0934740000   -0.0000000000
N       -0.2001610000    0.0191960000   -0.0000000000
H        0.1372600000   -0.0003240000   -0.0000000000
H        0.1233340000    0.0036440000   -0.0000000000
H        0.1387340000   -0.0253630000   -0.0000000000
H        0.1396440000   -0.0007580000    0.0000000000
H        0.1291810000    0.0033110000   -0.0000000000
C       -0.1307410000    0.0739550000    0.0000000000
H        0.1405540000    0.0005340000    0.0000000000
13   
Frame  21 IRC: Energy =  -286.8704660000 ; +1.8926 kcal/mol
C       -0.0889030000   -0.0246970000   -0.0000000000
C       -0.0026800000   -0.0628670000   -0.0000000000
C       -0.2709780000    1.0346600000   -0.0000000000
C       -0.1391290000    0.0749060000    0.0000000000
C        0.0245190000   -0.0939610000   -0.0000000000
N       -0.2003440000    0.0189480000   -0.0000000000
H        0.1373980000   -0.0003400000   -0.0000000000
H        0.1232640000    0.0036450000   -0.0000000000
H        0.1386170000   -0.0254580000   -0.0000000000
H        0.1399540000   -0.0009440000    0.0000000000
H        0.1292140000    0.0032480000   -0.0000000000
C       -0.1318090000    0.0723790000    0.0000000000
H        0.1408770000    0.0004810000    0.0000000000
13   
Frame  22 IRC: Energy =  -286.8700480000 ; +2.1549 kcal/mol
C       -0.0880600000   -0.0241150000   -0.0000000000
C       -0.0038940000   -0.0633700000   -0.0000000000
C       -0.2704240000    1.0352330000   -0.0000000000
C       -0.1398620000    0.0774440000    0.0000000000
C        0.0240780000   -0.0946510000   -0.0000000000
N       -0.1994630000    0.0185790000   -0.0000000000
H        0.1372140000   -0.0003570000   -0.0000000000
H        0.1231740000    0.0036410000   -0.0000000000
H        0.1385620000   -0.0254790000   -0.0000000000
H        0.1399040000   -0.0010840000    0.0000000000
H        0.1292200000    0.0032200000   -0.0000000000
C       -0.1315680000    0.0704040000    0.0000000000
H        0.1411200000    0.0005340000    0.0000000000
13   
Frame  23 IRC: Energy =  -286.8682240000 ; +3.2994 kcal/mol
C       -0.0886470000   -0.0219760000   -0.0000000000
C       -0.0067740000   -0.0652660000   -0.0000000000
C       -0.2723260000    1.0381340000   -0.0000000000
C       -0.1376360000    0.0860350000    0.0000000000
C        0.0285820000   -0.0969490000   -0.0000000000
N       -0.1999710000    0.0172690000   -0.0000000000
H        0.1372020000   -0.0004240000   -0.0000000000
H        0.1229490000    0.0035970000   -0.0000000000
H        0.1382220000   -0.0266140000   -0.0000000000
H        0.1407890000   -0.0018290000    0.0000000000
H        0.1292090000    0.0030710000   -0.0000000000
C       -0.1336480000    0.0644950000    0.0000000000
H        0.1420500000    0.0004570000    0.0000000000
13   
Frame  24 IRC: Energy =  -286.8658060000 ; +4.8168 kcal/mol
C       -0.0893670000   -0.0187050000   -0.0000000000
C       -0.0096830000   -0.0681660000   -0.0000000000
C       -0.2758200000    1.0425230000   -0.0000000000
C       -0.1374450000    0.0974000000    0.0000000000
C        0.0344390000   -0.0999310000   -0.0000000000
N       -0.1995690000    0.0153330000   -0.0000000000
H        0.1373110000   -0.0004960000   -0.0000000000
H        0.1229600000    0.0034820000   -0.0000000000
H        0.1382450000   -0.0284500000   -0.0000000000
H        0.1420410000   -0.0026990000    0.0000000000
H        0.1293400000    0.0029260000   -0.0000000000
C       -0.1354550000    0.0562880000    0.0000000000
H        0.1430030000    0.0004950000    0.0000000000
13   
Frame  25 IRC: Energy =  -286.8627000000 ; +6.7658 kcal/mol
C       -0.0839100000   -0.0127630000   -0.0000000000
C       -0.0146090000   -0.0720120000   -0.0000000000
C       -0.2862320000    1.0445670000   -0.0000000000
C       -0.1363480000    0.1307410000    0.0000000000
C        0.0422090000   -0.1045100000   -0.0000000000
N       -0.2000810000    0.0105880000   -0.0000000000
H        0.1376830000   -0.0005970000   -0.0000000000
H        0.1236310000    0.0035220000   -0.0000000000
H        0.1392940000   -0.0335620000   -0.0000000000
H        0.1430300000   -0.0043390000    0.0000000000
H        0.1298800000    0.0031480000   -0.0000000000
C       -0.1372460000    0.0333610000    0.0000000000
H        0.1427000000    0.0018550000    0.0000000000
13   
Frame  26 IRC: Energy =  -286.8580100000 ; +9.7088 kcal/mol
C       -0.0745810000   -0.0032680000   -0.0000000000
C       -0.0187370000   -0.0735240000   -0.0000000000
C       -0.2998910000    1.0323840000   -0.0000000000
C       -0.1356050000    0.2060350000    0.0000000000
C        0.0473960000   -0.1102550000   -0.0000000000
N       -0.2013990000    0.0034180000   -0.0000000000
H        0.1378430000   -0.0006830000   -0.0000000000
H        0.1247340000    0.0036720000   -0.0000000000
H        0.1411050000   -0.0393720000   -0.0000000000
H        0.1434820000   -0.0076040000    0.0000000000
H        0.1304170000    0.0037820000   -0.0000000000
C       -0.1365860000   -0.0197290000    0.0000000000
H        0.1418220000    0.0051460000    0.0000000000
13   
Frame  27 IRC: Energy =  -286.8517780000 ; +13.6195 kcal/mol
C       -0.0662170000    0.0106380000   -0.0000000000
C       -0.0196220000   -0.0680100000   -0.0000000000
C       -0.3089930000    0.9818780000   -0.0000000000
C       -0.1366900000    0.3483350000    0.0000000000
C        0.0455540000   -0.1177360000   -0.0000000000
N       -0.2028540000   -0.0039750000   -0.0000000000
H        0.1375240000   -0.0005990000   -0.0000000000
H        0.1263880000    0.0038340000   -0.0000000000
H        0.1433910000   -0.0423910000   -0.0000000000
H        0.1429450000   -0.0135240000    0.0000000000
H        0.1306830000    0.0049690000   -0.0000000000
C       -0.1330980000   -0.1136770000    0.0000000000
H        0.1409890000    0.0102580000    0.0000000000
13   
Frame  28 IRC: Energy =  -286.8460740000 ; +17.1988 kcal/mol
C       -0.0623790000    0.0280480000   -0.0000000000
C       -0.0179770000   -0.0528870000   -0.0000000000
C       -0.3029100000    0.8536300000   -0.0000000000
C       -0.1383280000    0.5501010000    0.0000000000
C        0.0347340000   -0.1243120000   -0.0000000000
N       -0.2049200000   -0.0072160000   -0.0000000000
H        0.1364720000    0.0000060000   -0.0000000000
H        0.1287360000    0.0038630000   -0.0000000000
H        0.1459560000   -0.0389740000   -0.0000000000
H        0.1410720000   -0.0219330000    0.0000000000
H        0.1305930000    0.0066990000   -0.0000000000
C       -0.1316280000   -0.2111850000    0.0000000000
H        0.1405810000    0.0141600000    0.0000000000
13   
Frame  29 IRC: Energy =  -286.8438150000 ; +18.6163 kcal/mol (Transition State)
C       -0.0638370000    0.0424750000   -0.0000000000
C       -0.0166730000   -0.0325320000   -0.0000000000
C       -0.2784150000    0.6413520000   -0.0000000000
C       -0.1336630000    0.7382700000    0.0000000000
C        0.0162850000   -0.1238740000   -0.0000000000
N       -0.2076040000   -0.0030450000   -0.0000000000
H        0.1349350000    0.0013390000   -0.0000000000
H        0.1315510000    0.0036000000   -0.0000000000
H        0.1473200000   -0.0280850000   -0.0000000000
H        0.1387810000   -0.0302480000    0.0000000000
H        0.1304330000    0.0083070000   -0.0000000000
C       -0.1396450000   -0.2301880000    0.0000000000
H        0.1405320000    0.0126290000    0.0000000000
13   
Frame  30 IRC: Energy =  -286.8457120000 ; +17.4260 kcal/mol
C       -0.0677800000    0.0469960000   -0.0000000000
C       -0.0181440000   -0.0134370000   -0.0000000000
C       -0.2462560000    0.4254540000   -0.0000000000
C       -0.1191160000    0.8625550000    0.0000000000
C       -0.0089440000   -0.1189300000   -0.0000000000
N       -0.2091720000    0.0054670000   -0.0000000000
H        0.1336670000    0.0029320000   -0.0000000000
H        0.1342140000    0.0031070000   -0.0000000000
H        0.1459580000   -0.0149550000   -0.0000000000
H        0.1376030000   -0.0362610000    0.0000000000
H        0.1305350000    0.0091690000   -0.0000000000
C       -0.1527960000   -0.1799880000    0.0000000000
H        0.1402310000    0.0078930000    0.0000000000
13   
Frame  31 IRC: Energy =  -286.8496910000 ; +14.9291 kcal/mol
C       -0.0713520000    0.0429820000   -0.0000000000
C       -0.0255900000    0.0037630000   -0.0000000000
C       -0.2134090000    0.2782090000   -0.0000000000
C       -0.0989350000    0.9374770000    0.0000000000
C       -0.0401870000   -0.1167110000   -0.0000000000
N       -0.2088510000    0.0137780000   -0.0000000000
H        0.1328880000    0.0040820000   -0.0000000000
H        0.1364550000    0.0026200000   -0.0000000000
H        0.1424430000   -0.0051060000   -0.0000000000
H        0.1373280000   -0.0401150000    0.0000000000
H        0.1308860000    0.0094940000   -0.0000000000
C       -0.1610870000   -0.1348300000    0.0000000000
H        0.1394120000    0.0043570000    0.0000000000
13   
Frame  32 IRC: Energy =  -286.8534040000 ; +12.5991 kcal/mol
C       -0.0732010000    0.0355180000   -0.0000000000
C       -0.0394790000    0.0204030000   -0.0000000000
C       -0.1813190000    0.1949410000   -0.0000000000
C       -0.0778450000    0.9854700000    0.0000000000
C       -0.0721520000   -0.1180700000   -0.0000000000
N       -0.2077460000    0.0204370000   -0.0000000000
H        0.1324060000    0.0046350000   -0.0000000000
H        0.1381870000    0.0022370000   -0.0000000000
H        0.1381900000    0.0008310000   -0.0000000000
H        0.1375990000   -0.0426180000    0.0000000000
H        0.1312870000    0.0096320000   -0.0000000000
C       -0.1644160000   -0.1161280000    0.0000000000
H        0.1384890000    0.0027120000    0.0000000000
13   
Frame  33 IRC: Energy =  -286.8555110000 ; +11.2770 kcal/mol
C       -0.0737840000    0.0283180000   -0.0000000000
C       -0.0553480000    0.0350580000   -0.0000000000
C       -0.1529370000    0.1519600000   -0.0000000000
C       -0.0620270000    1.0156630000    0.0000000000
C       -0.0972800000   -0.1212540000   -0.0000000000
N       -0.2067810000    0.0252250000   -0.0000000000
H        0.1320180000    0.0048010000   -0.0000000000
H        0.1393490000    0.0019770000   -0.0000000000
H        0.1351200000    0.0039500000   -0.0000000000
H        0.1381990000   -0.0440780000    0.0000000000
H        0.1316890000    0.0098290000   -0.0000000000
C       -0.1664600000   -0.1135840000    0.0000000000
H        0.1382420000    0.0021360000    0.0000000000
13   
Frame  34 IRC: Energy =  -286.8567280000 ; +10.5133 kcal/mol
C       -0.0741390000    0.0251570000   -0.0000000000
C       -0.0635460000    0.0424900000   -0.0000000000
C       -0.1400800000    0.1454540000   -0.0000000000
C       -0.0570550000    1.0244080000    0.0000000000
C       -0.1007240000   -0.1248930000   -0.0000000000
N       -0.2064870000    0.0263030000   -0.0000000000
H        0.1317420000    0.0046270000   -0.0000000000
H        0.1393320000    0.0019040000   -0.0000000000
H        0.1345090000    0.0045130000   -0.0000000000
H        0.1383740000   -0.0442770000    0.0000000000
H        0.1320690000    0.0102000000   -0.0000000000
C       -0.1727710000   -0.1177840000    0.0000000000
H        0.1387760000    0.0018990000    0.0000000000
13   
Frame  35 IRC: Energy =  -286.8569760000 ; +10.3577 kcal/mol
C       -0.0734860000    0.0239530000   -0.0000000000
C       -0.0675750000    0.0415010000   -0.0000000000
C       -0.1358640000    0.1395100000   -0.0000000000
C       -0.0574380000    1.0309210000    0.0000000000
C       -0.1040810000   -0.1250160000   -0.0000000000
N       -0.2057230000    0.0262740000   -0.0000000000
H        0.1317150000    0.0046680000   -0.0000000000
H        0.1392850000    0.0019860000   -0.0000000000
H        0.1345940000    0.0046200000   -0.0000000000
H        0.1385030000   -0.0445070000    0.0000000000
H        0.1319610000    0.0101700000   -0.0000000000
C       -0.1707980000   -0.1160090000    0.0000000000
H        0.1389070000    0.0019280000    0.0000000000
13   
Frame  36 IRC: Energy =  -286.8575880000 ; +9.9736 kcal/mol
C       -0.0722710000    0.0221930000   -0.0000000000
C       -0.0765140000    0.0443090000   -0.0000000000
C       -0.1230390000    0.1372370000   -0.0000000000
C       -0.0576420000    1.0346450000    0.0000000000
C       -0.1088300000   -0.1267640000   -0.0000000000
N       -0.2044320000    0.0264930000   -0.0000000000
H        0.1318900000    0.0045460000   -0.0000000000
H        0.1388450000    0.0022540000   -0.0000000000
H        0.1350130000    0.0044810000   -0.0000000000
H        0.1381410000   -0.0443730000    0.0000000000
H        0.1321920000    0.0105860000   -0.0000000000
C       -0.1727700000   -0.1176090000    0.0000000000
H        0.1394160000    0.0020010000    0.0000000000
13   
Frame  37 IRC: Energy =  -286.8576520000 ; +9.9335 kcal/mol
C       -0.0719480000    0.0218030000   -0.0000000000
C       -0.0783370000    0.0440910000   -0.0000000000
C       -0.1225090000    0.1342330000   -0.0000000000
C       -0.0577550000    1.0378440000    0.0000000000
C       -0.1091800000   -0.1270490000   -0.0000000000
N       -0.2041530000    0.0266030000   -0.0000000000
H        0.1318620000    0.0046160000   -0.0000000000
H        0.1388140000    0.0022460000   -0.0000000000
H        0.1348690000    0.0044280000   -0.0000000000
H        0.1381510000   -0.0444690000    0.0000000000
H        0.1320970000    0.0106120000   -0.0000000000
C       -0.1713030000   -0.1169680000    0.0000000000
H        0.1393910000    0.0020100000    0.0000000000
13   
Frame  38 IRC: Energy =  -286.8578280000 ; +9.8230 kcal/mol
C       -0.0712970000    0.0209450000   -0.0000000000
C       -0.0844360000    0.0474730000   -0.0000000000
C       -0.1161290000    0.1291230000   -0.0000000000
C       -0.0579420000    1.0425770000    0.0000000000
C       -0.1120830000   -0.1285540000   -0.0000000000
N       -0.2032980000    0.0273160000   -0.0000000000
H        0.1318280000    0.0046280000   -0.0000000000
H        0.1386760000    0.0023440000   -0.0000000000
H        0.1347960000    0.0042260000   -0.0000000000
H        0.1382510000   -0.0444690000    0.0000000000
H        0.1321140000    0.0109980000   -0.0000000000
C       -0.1698940000   -0.1187230000    0.0000000000
H        0.1394140000    0.0021150000    0.0000000000
13   