13   
Frame  84 IRC: Energy =  -286.8602899828 ; +8.2781 kcal/mol
C        1.5152450427    0.4300405913   -0.3036001304
C        0.7887463348   -0.8402348371   -0.0442995949
C       -0.5546056981   -0.6840028825   -0.6647507921
C       -0.9884024823    0.7012255347    0.8811547136
C       -0.6338281134    0.8912473481   -0.5887312104
N        0.7580574143    1.4079357313   -0.6535347267
H        2.5882137149    0.5589942981   -0.1737010435
H        1.2819486716   -1.8047242421    0.0203290160
H       -1.0495819725   -1.3662377475   -1.3482248869
H       -1.1136940818    1.4267744795    1.6795823481
H       -1.3131652223    1.4486816884   -1.2342217103
C       -0.5346846560   -0.6847571093    0.8643429646
H       -0.7442489518   -1.4849428529    1.5656550528
