
Running Job 1 of 1 irc_reactant.in
qchem irc_reactant.in_50423.0 ./irc_reactant.d/ 1
/home/leeping/opt/qchem/5.0.2-openmp/exe/qcprog.exe_s irc_reactant.in_50423.0 ./irc_reactant.d/
Check license passed

                  Welcome to Q-Chem
     A Quantum Leap Into The Future Of Chemistry


 Q-Chem 5.0, Q-Chem, Inc., Pleasanton, CA (2017)

 Yihan Shao,  Zhengting Gan,  E. Epifanovsky,  A. T. B. Gilbert,  M. Wormit,  
 J. Kussmann,  A. W. Lange,  A. Behn,  Jia Deng,  Xintian Feng,  D. Ghosh,  
 M. Goldey,  P. R. Horn,  L. D. Jacobson,  I. Kaliman,  T. Kus,  A. Landau,  
 Jie Liu,  E. I. Proynov,  R. M. Richard,  R. P. Steele,  E. J. Sundstrom,  
 H. L. Woodcock III,  P. M. Zimmerman,  D. Zuev,  B. Albrecht,  E. Alguire,  
 S. A. Baeppler,  D. Barton,  Z. Benda,  Y. A. Bernard,  E. J. Berquist,  
 K. B. Bravaya,  H. Burton,  D. Casanova,  Chun-Min Chang,  Yunqing Chen,  
 A. Chien,  K. D. Closser,  M. P. Coons,  S. Dasgupta,  A. L. Dempwolff,  
 M. Diedenhofen,  Hainam Do,  R. G. Edgar,  Po-Tung Fang,  S. Fatehi,  
 Qingguo Feng,  J. Fosso-Tande,  Qinghui Ge,  A. Ghysels,  G. Gidofalvi,  
 J. Gomes,  J. Gonthier,  A. Gunina,  M. W. D. Hanson-Heine,  
 P. H. P. Harbach,  A. W. Hauser,  J. E. Herr,  E. G. Hohenstein,  
 Z. C. Holden,  Kerwin Hui,  T.-C. Jagau,  Hyunjun Ji,  B. Kaduk,  
 K. Khistyaev,  Jaehoon Kim,  P. Klunzinger,  K. Koh,  D. Kosenkov,  
 L. Koulias,  T. Kowalczyk,  C. M. Krauter,  A. Kunitsa,  Ka Un Lao,  
 A. Laurent,  K. V. Lawler,  Joonho Lee,  D. Lefrancois,  S. Lehtola,  
 D. S. Levine,  Yi-Pei Li,  You-Sheng Lin,  Fenglai Liu,  E. Livshits,  
 A. Luenser,  P. Manohar,  E. Mansoor,  S. F. Manzer,  Shan-Ping Mao,  
 Yuezhi Mao,  N. Mardirossian,  A. V. Marenich,  T. Markovich,  
 L. A. Martinez-Martinez,  S. A. Maurer,  N. J. Mayhall,  S. C. McKenzie,  
 J.-M. Mewes,  A. F. Morrison,  J. W. Mullinax,  K. Nanda,  
 T. S. Nguyen-Beck,  R. Olivares-Amaya,  J. A. Parkhill,  T. M. Perrine,  
 F. Plasser,  S. Prager,  A. Prociuk,  E. Ramos,  D. R. Rehn,  F. Rob,  
 M. Schneider,  N. Sergueev,  S. M. Sharada,  S. Sharma,  D. W. Small,  
 T. Stauch,  T. Stein,  Yu-Chuan Su,  A. J. W. Thom,  A. Tkatchenko,  
 T. Tsuchimochi,  L. Vogt,  O. Vydrov,  M. A. Watson,  J. Wenzel,  
 M. de Wergifosse,  T. A. Wesolowski,  A. White,  J. Witte,  A. Yamada,  
 Jun Yang,  K. Yao,  S. Yeganeh,  S. R. Yost,  Zhi-Qiang You,  A. Zech,  
 Igor Ying Zhang,  Xing Zhang,  Yan Zhao,  Ying Zhu,  B. R. Brooks,  
 G. K. L. Chan,  C. J. Cramer,  M. S. Gordon,  W. J. Hehre,  A. Klamt,  
 M. W. Schmidt,  C. D. Sherrill,  D. G. Truhlar,  A. Aspuru-Guzik,  R. Baer,  
 A. T. Bell,  N. A. Besley,  Jeng-Da Chai,  R. A. DiStasio Jr.,  A. Dreuw,  
 B. D. Dunietz,  T. R. Furlani,  Chao-Ping Hsu,  Yousung Jung,  Jing Kong,  
 D. S. Lambrecht,  WanZhen Liang,  C. Ochsenfeld,  V. A. Rassolov,  
 L. V. Slipchenko,  J. E. Subotnik,  T. Van Voorhis,  J. M. Herbert,  
 A. I. Krylov,  P. M. W. Gill,  M. Head-Gordon

 Contributors to earlier versions of Q-Chem not listed above: 
 R. D. Adamson,  B. Austin,  J. Baker,  G. J. O. Beran,  K. Brandhorst,  
 S. T. Brown,  E. F. C. Byrd,  A. K. Chakraborty,  C.-L. Cheng,  
 Siu Hung Chien,  D. M. Chipman,  D. L. Crittenden,  H. Dachsel,  
 R. J. Doerksen,  A. D. Dutoi,  L. Fusti-Molnar,  W. A. Goddard III,  
 A. Golubeva-Zadorozhnaya,  S. R. Gwaltney,  G. Hawkins,  A. Heyden,  
 S. Hirata,  G. Kedziora,  F. J. Keil,  C. Kelley,  Jihan Kim,  R. A. King,  
 R. Z. Khaliullin,  P. P. Korambath,  W. Kurlancheek,  A. M. Lee,  M. S. Lee,  
 S. V. Levchenko,  Ching Yeh Lin,  D. Liotard,  R. C. Lochan,  I. Lotan,  
 P. E. Maslen,  N. Nair,  D. P. O'Neill,  D. Neuhauser,  E. Neuscamman,  
 C. M. Oana,  R. Olson,  B. Peters,  R. Peverati,  P. A. Pieniazek,  
 Y. M. Rhee,  J. Ritchie,  M. A. Rohrdanz,  E. Rosta,  N. J. Russ,  
 H. F. Schaefer III,  N. E. Schultz,  N. Shenvi,  A. C. Simmonett,  A. Sodt,  
 D. Stuck,  K. S. Thanthiriwatte,  V. Vanovschi,  Tao Wang,  A. Warshel,  
 C. F. Williams,  Q. Wu,  X. Xu,  W. Zhang

 Please cite Q-Chem as follows:
 Y. Shao et al., Mol. Phys. 113, 184-215 (2015)
 DOI: 10.1080/00268976.2014.952696

 Q-Chem 5.0.2 for Intel X86 EM64T Linux

 Parts of Q-Chem use Armadillo 5.200.1 (Boston Tea Smuggler).
 http://arma.sourceforge.net/

 Q-Chem begins on Fri Mar  4 05:31:09 2022  

Host: 
0

     Scratch files written to ./irc_reactant.d//
 Dec517 15110_ 26548  26544 5633   
Processing $rem in /home/leeping/opt/qchem/5.0.2-openmp/config/preferences.
 MEM_STATIC 2000
 MEM_TOTAL  8000
 SYMMETRY   OFF
 SYM_IGNORE TRUE 

Checking the input file for inconsistencies... 	...done.

--------------------------------------------------------------
User input:
--------------------------------------------------------------
$molecule
0 2
C        1.5186035912    0.3483820933   -0.2803863778
C        0.6272379572   -0.8913170642   -0.0668529239
C       -0.4069351032   -0.5259029090   -1.1367515478
C       -0.9951853727    0.5116319481    0.8184219776
C       -0.5953048619    0.8937365348   -0.6164984204
N        0.8415205726    1.3867291132   -0.5898735946
H        2.6000202719    0.3685205246   -0.1642559744
H        1.1114359062   -1.8671197374   -0.0812541990
H       -1.2281252759   -1.1849417420   -1.4112369089
H       -1.7150591909    1.0458316081    1.4276161304
H       -1.2491066810    1.5856413769   -1.1432615548
C       -0.2592928466   -0.5639162483    1.1532175467
H       -0.2498089669   -1.1072754984    2.0911158473
$end

$rem
method                b3lyp
basis                 6-31+g(d,p)
unrestricted          true
symmetry              off
sym_ignore            true
incdft                false
incfock               0
scf_convergence       8
thresh                14
jobtype               sp
scf_guess             read
scf_algorithm         diis
max_scf_cycles        100
scf_final_print       1
$end

--------------------------------------------------------------
 ----------------------------------------------------------------
             Standard Nuclear Orientation (Angstroms)
    I     Atom           X                Y                Z
 ----------------------------------------------------------------
    1      C       1.5186035912     0.3483820933    -0.2803863778
    2      C       0.6272379572    -0.8913170642    -0.0668529239
    3      C      -0.4069351032    -0.5259029090    -1.1367515478
    4      C      -0.9951853727     0.5116319481     0.8184219776
    5      C      -0.5953048619     0.8937365348    -0.6164984204
    6      N       0.8415205726     1.3867291132    -0.5898735946
    7      H       2.6000202719     0.3685205246    -0.1642559744
    8      H       1.1114359062    -1.8671197374    -0.0812541990
    9      H      -1.2281252759    -1.1849417420    -1.4112369089
   10      H      -1.7150591909     1.0458316081     1.4276161304
   11      H      -1.2491066810     1.5856413769    -1.1432615548
   12      C      -0.2592928466    -0.5639162483     1.1532175467
   13      H      -0.2498089669    -1.1072754984     2.0911158473
 ----------------------------------------------------------------
 Nuclear Repulsion Energy =   279.0253638550 hartrees
 There are       25 alpha and       24 beta electrons
 Requested basis set is 6-31+G(d,p)
 There are 53 shells and 163 basis functions

 Total QAlloc Memory Limit   8000 MB
 Mega-Array Size      1956 MB
 MEM_STATIC part      2000 MB

                       Distance Matrix (Angstroms)
             C (  1)   C (  2)   C (  3)   C (  4)   C (  5)   N (  6)
   C (  2)  1.541747
   C (  3)  2.281542  1.532229
   C (  4)  2.748302  2.320395  2.290245
   C (  5)  2.208844  2.232294  1.523654  1.537825
   N (  6)  1.277650  2.347118  2.348591  2.474385  1.519282
   H (  7)  1.087821  2.342765  3.284436  3.729831  3.269630  2.076107
   H (  8)  2.261391  1.089425  2.284379  3.302382  3.289647  3.304403
   H (  9)  3.342817  2.309969  1.088130  2.811406  2.313650  3.401700
   H ( 10)  3.722940  3.387084  3.279866  1.083838  2.335677  3.274534
   H ( 11)  3.152076  3.288563  2.273305  2.250816  1.087965  2.171757
   C ( 12)  2.459354  1.543276  2.295038  1.345522  2.317229  2.838164
   H ( 13)  3.297005  2.339376  3.283567  2.190022  3.384463  3.820833
             H (  7)   H (  8)   H (  9)   H ( 10)   H ( 11)   C ( 12)
   H (  8)  2.687166
   H (  9)  4.315426  2.776287
   H ( 10)  4.648948  4.330248  3.643150
   H ( 11)  4.153988  4.315273  2.783592  2.667943
   C ( 12)  3.283420  2.258574  2.810825  2.187656  3.297597
   H ( 13)  3.922525  2.673863  3.637253  2.687575  4.325690  1.083966

 
 A cutoff of  1.0D-14 yielded   1410 shell pairs
 There are     13528 function pairs
 
 -------------------------------------------------------
 OpenMP Integral Computing Module                       
 Release: version 1.0, May 2013, Q-Chem Inc. Pittsburgh 
 -------------------------------------------------------
 Integral Job Info:
 Integral job number is                      11
 Integral operator is                         1
 short-range coefficients                     0
 long-range coefficients              100000000
 Omega coefficients                           0
 if combine SR and LR in K                    0
 Integral screening is                        0
 Integral computing path is                   2
 max size of driver memory is            800000
 size of driver memory is                593474
 size of scratch memory is              2361544
 max col of scratch BK array               1296
 max len of scratch array in speh3          155
 max len of scratch index in speh4           18
 max int batch size is                      520
 min int batch size is                       52
 fixed nKL is                                52
 max L of basis functions is                  2
 order of int derivative is                   0
 number of shells is                         53
 number of basis is                         163
 number of cartesian basis is               163
 number of contracted shell pairs          1410
 number of primitive shell pairs           4819
 maxK2 (contraction) of shell pair           36
 max number of K2 of shell pair               1
 max number of CS2 of shell pair            127
 max number of PS2 of shell pair            684
 mem total for path MDJ                  535308
 -------------------------------------------------------
 Smallest overlap matrix eigenvalue = 2.23E-05

 Scale SEOQF with 1.000000e-01/1.000000e-01/1.000000e-01

 Standard Electronic Orientation quadrupole field applied
 Nucleus-field energy     =     0.0000000006 hartrees
 Guess MOs from SCF MO coefficient file
 Reading MOs from coefficient file
 Reading MOs from coefficient file
 An unrestricted hybrid HF-DFT SCF calculation will be
 performed using Pulay DIIS extrapolation
 Exchange:     0.2000 Hartree-Fock + 0.0800 Slater + 0.7200 B88
 Correlation:  0.1900 VWN1RPA + 0.8100 LYP
 Using SG-1 standard quadrature grid
 SCF converges when DIIS error is below 1.0E-08
Using Q-Chem read-in guess as SCF_GUESS READ specified.

 using 4 threads for integral computing
 -------------------------------------------------------
 OpenMP Integral computing Module                
 Release: version 1.0, May 2013, Q-Chem Inc. Pittsburgh 
 -------------------------------------------------------
 -------------------------------------------------------
 OpenMP BLAS3 based DFT computing Module                
 Release: version 1.0, May 2013, Q-Chem Inc. Pittsburgh 
 -------------------------------------------------------
 ---------------------------------------
  Cycle       Energy         DIIS Error
 ---------------------------------------
    1    -286.8734821169      6.23E-10
    2    -286.8734821169      1.33E-09 Convergence criterion met
 ---------------------------------------
 One-Electron    Energy =  -938.5737101606
 Total Coulomb   Energy =   414.2791333932
 Alpha Exchange  Energy =    -4.0199933673
 Beta  Exchange  Energy =    -3.9250138946
 DFT   Exchange  Energy =   -31.5531109033
 DFT Correlation Energy =    -2.1061510399
 Nuclear Repu.   Energy =   279.0253638556
 Nuclear Attr.   Energy = -1222.7337202733
 Kinetic         Energy =   284.1600101127
 <S^2> = 0.7539
 SCF time:  CPU 9.96 s  wall 2.51 s
 Final Alpha MO Eigenvalues
            1           2           3           4           5           6
    1 -14.3366109 -10.2344933 -10.2307142 -10.2207002 -10.2162326 -10.2131367
            7           8           9          10          11          12
    1 -10.2091314  -0.9647459  -0.8326614  -0.7367690  -0.7149483  -0.5887972
           13          14          15          16          17          18
    1  -0.5830614  -0.5394422  -0.5203058  -0.4813482  -0.4288021  -0.4199575
           19          20          21          22          23          24
    1  -0.3912570  -0.3827559  -0.3578608  -0.3049750  -0.2830722  -0.2710282
           25          26          27          28          29          30
    1  -0.2055292  -0.0410117   0.0020529   0.0023147   0.0204685   0.0259777
 Final Beta MO Eigenvalues
            1           2           3           4           5           6
    1 -14.3360328 -10.2345078 -10.2311186 -10.2210294 -10.2115422 -10.2080702
            7           8           9          10          11          12
    1 -10.2023866  -0.9613966  -0.8268666  -0.7353362  -0.7002014  -0.5870238
           13          14          15          16          17          18
    1  -0.5706623  -0.5360458  -0.5174503  -0.4724020  -0.4253066  -0.4157883
           19          20          21          22          23          24
    1  -0.3893366  -0.3795410  -0.3522532  -0.2978222  -0.2729479  -0.2679006
           25          26          27          28          29
    1  -0.0637339  -0.0358087   0.0025925   0.0034746   0.0207166
 SCF   energy in the final basis set = -286.87348212
 Total energy in the final basis set = -286.87348212
 
 --------------------------------------------------------------
 
                    Orbital Energies (a.u.)
 --------------------------------------------------------------
 
 Alpha MOs
 -- Occupied --
-14.337 -10.234 -10.231 -10.221 -10.216 -10.213 -10.209  -0.965
 -0.833  -0.737  -0.715  -0.589  -0.583  -0.539  -0.520  -0.481
 -0.429  -0.420  -0.391  -0.383  -0.358  -0.305  -0.283  -0.271
 -0.206
 -- Virtual --
 -0.041   0.002   0.002   0.020   0.026   0.032   0.048   0.049
  0.065   0.072   0.075   0.094   0.104   0.107   0.109   0.120
  0.121   0.131   0.138   0.150   0.169   0.171   0.185   0.190
  0.193   0.199   0.204   0.219   0.230   0.234   0.239   0.248
  0.257   0.268   0.280   0.287   0.303   0.325   0.337   0.342
  0.354   0.392   0.420   0.455   0.616   0.669   0.681   0.702
  0.707   0.717   0.727   0.737   0.746   0.764   0.777   0.789
  0.805   0.832   0.859   0.892   0.898   0.951   0.959   0.994
  1.011   1.026   1.053   1.070   1.083   1.107   1.122   1.144
  1.210   1.287   1.310   1.329   1.359   1.406   1.430   1.481
  1.499   1.576   1.623   1.685   1.744   1.754   1.810   1.830
  1.890   1.899   1.972   1.987   2.032   2.048   2.092   2.113
  2.122   2.172   2.216   2.265   2.290   2.325   2.354   2.396
  2.403   2.449   2.453   2.477   2.495   2.513   2.516   2.558
  2.590   2.605   2.626   2.636   2.686   2.742   2.776   2.791
  2.817   2.867   2.916   3.044   3.109   3.285   3.329   3.388
  3.447   3.541   3.716   4.141   4.375   4.473   4.555   4.613
  4.763   4.826
 
 Beta MOs
 -- Occupied --
-14.336 -10.235 -10.231 -10.221 -10.212 -10.208 -10.202  -0.961
 -0.827  -0.735  -0.700  -0.587  -0.571  -0.536  -0.517  -0.472
 -0.425  -0.416  -0.389  -0.380  -0.352  -0.298  -0.273  -0.268
 -- Virtual --
 -0.064  -0.036   0.003   0.003   0.021   0.029   0.032   0.048
  0.050   0.068   0.073   0.076   0.094   0.105   0.107   0.109
  0.120   0.127   0.132   0.140   0.152   0.170   0.171   0.185
  0.191   0.197   0.200   0.208   0.223   0.233   0.238   0.241
  0.250   0.261   0.270   0.280   0.292   0.308   0.327   0.340
  0.345   0.362   0.393   0.422   0.457   0.619   0.682   0.687
  0.710   0.714   0.725   0.733   0.740   0.750   0.770   0.791
  0.795   0.807   0.835   0.861   0.899   0.905   0.953   0.967
  0.999   1.013   1.029   1.058   1.077   1.084   1.109   1.127
  1.148   1.213   1.292   1.312   1.334   1.363   1.408   1.434
  1.486   1.509   1.584   1.630   1.692   1.747   1.760   1.818
  1.840   1.895   1.911   1.975   1.991   2.047   2.056   2.096
  2.123   2.132   2.174   2.222   2.271   2.305   2.327   2.359
  2.398   2.407   2.453   2.456   2.479   2.498   2.517   2.520
  2.565   2.601   2.611   2.636   2.638   2.689   2.745   2.779
  2.796   2.821   2.871   2.918   3.045   3.111   3.286   3.330
  3.396   3.450   3.542   3.718   4.142   4.385   4.477   4.570
  4.620   4.766   4.827
 --------------------------------------------------------------
 
          Ground-State Mulliken Net Atomic Charges

     Atom                 Charge (a.u.)    Spin (a.u.)
  --------------------------------------------------------
      1 C                    -0.091826      -0.030751
      2 C                     0.008503      -0.061121
      3 C                    -0.271190       1.034155
      4 C                    -0.146885       0.048259
      5 C                     0.023897      -0.089783
      6 N                    -0.202818       0.024827
      7 H                     0.137339      -0.000128
      8 H                     0.124681       0.003497
      9 H                     0.138942      -0.026050
     10 H                     0.138877       0.000615
     11 H                     0.129378       0.003589
     12 C                    -0.127485       0.092692
     13 H                     0.138588       0.000200
  --------------------------------------------------------
  Sum of atomic charges =    -0.000000
  Sum of spin   charges =     1.000000

 -----------------------------------------------------------------
                    Cartesian Multipole Moments
 -----------------------------------------------------------------
    Charge (ESU x 10^10)
                -0.0000
    Dipole Moment (Debye)
         X      -0.7348      Y      -2.1333      Z       1.2829
       Tot       2.5955
    Quadrupole Moments (Debye-Ang)
        XX     -38.4313     XY      -4.5414     YY     -44.4419
        XZ       1.3251     YZ       0.6785     ZZ     -42.6114
    Octopole Moments (Debye-Ang^2)
       XXX      -3.1994    XXY      -5.4820    XYY     -10.9784
       YYY     -29.1896    XXZ       3.6595    XYZ       0.4894
       YYZ       6.8525    XZZ      -8.5057    YZZ      -8.0157
       ZZZ      19.1941
    Hexadecapole Moments (Debye-Ang^3)
      XXXX    -242.2546   XXXY      -7.6453   XXYY     -85.5074
      XYYY     -22.1682   YYYY    -256.6127   XXXZ      21.9915
      XXYZ      11.8834   XYYZ      13.0634   YYYZ      24.4816
      XXZZ     -80.4319   XYZZ      -5.0609   YYZZ     -76.5765
      XZZZ      21.9914   YZZZ      12.5854   ZZZZ    -231.8820
 -----------------------------------------------------------------
 Mayer SCF Bond Order, atomic valence on the diagonal:

            1           2           3           4           5           6
    1   3.9418432   0.8733751   0.0767352   0.0748374   0.0312248   1.8286150
    2   0.8733751   3.4506185   1.0089787  -0.0323417  -0.1326105  -0.0540289
    3   0.0767352   1.0089787   3.3257510   0.1795527   0.9225212   0.0201496
    4   0.0748374  -0.0323417   0.1795527   4.0693682   0.8594743  -0.0212132
    5   0.0312248  -0.1326105   0.9225212   0.8594743   3.5183410   0.9766975
    6   1.8286150  -0.0540289   0.0201496  -0.0212132   0.9766975   2.7632132
    7   0.9641296  -0.0425102   0.0243212   0.0018140   0.0004085  -0.0177166
    8   0.0001427   0.8819579   0.0110334   0.0054786   0.0213518   0.0116066
    9   0.0084582   0.0130884   0.9073467   0.0141907   0.0013968   0.0121462
   10   0.0075560  -0.0011369   0.0054271   0.8456527   0.0260150   0.0001315
   11   0.0047574   0.0205516   0.0035868   0.0115003   0.9145438  -0.0224661
   12   0.0573568   0.9106896   0.1606071   2.0746260  -0.1080454   0.0277133
   13   0.0146550   0.0046055   0.0054912   0.0557964   0.0053633   0.0015784
            7           8           9          10          11          12
    1   0.9641296   0.0001427   0.0084582   0.0075560   0.0047574   0.0573568
    2  -0.0425102   0.8819579   0.0130884  -0.0011369   0.0205516   0.9106896
    3   0.0243212   0.0110334   0.9073467   0.0054271   0.0035868   0.1606071
    4   0.0018140   0.0054786   0.0141907   0.8456527   0.0115003   2.0746260
    5   0.0004085   0.0213518   0.0013968   0.0260150   0.9145438  -0.1080454
    6  -0.0177166   0.0116066   0.0121462   0.0001315  -0.0224661   0.0277133
    7   0.9477747   0.0001238   0.0007692   0.0001707   0.0015344   0.0145060
    8   0.0001238   0.9569152   0.0001427   0.0012833   0.0026595   0.0209122
    9   0.0007692   0.0001427   0.9544500  -0.0000148   0.0001187  -0.0031427
   10   0.0001707   0.0012833  -0.0000148   0.9548502   0.0001818   0.0688359
   11   0.0015344   0.0026595   0.0001187   0.0001818   0.9483490   0.0099560
   12   0.0145060   0.0209122  -0.0031427   0.0688359   0.0099560   4.0994406
   13   0.0002241   0.0002228  -0.0000502   0.0007478   0.0014248   0.8654258
           13
    1   0.0146550
    2   0.0046055
    3   0.0054912
    4   0.0557964
    5   0.0053633
    6   0.0015784
    7   0.0002241
    8   0.0002228
    9  -0.0000502
   10   0.0007478
   11   0.0014248
   12   0.8654258
   13   0.9554848


Archival summary:
1\1\c8-66\SP\ProcedureUnspecified\6-31+G**\166(2)\hpark21\FriMar405:31:122022FriMar405:31:122022\0\\#,ProcedureUnspecified,6-31+G**,\\0,2\N\C,1,1.27765\H,2,1.08782,1,122.523\C,1,1.51928,2,103.988,3,-179.147,0\H,4,1.08797,1,111.743,2,-163.246,0\C,4,1.52365,1,101.035,2,-34.3523,0\H,6,1.08813,4,123.859,1,-172.471,0\C,6,1.53223,4,93.8547,1,53.2428,0\H,8,1.08942,6,120.289,4,-176.704,0\C,4,1.53782,1,108.071,2,66.6833,0\H,10,1.08384,4,125.079,1,111.101,0\C,10,1.34552,4,106.773,1,-67.2684,0\H,12,1.08397,10,128.372,4,178.842,0\\\@

 Total job time:  3.18s(wall), 11.54s(cpu) 
 Fri Mar  4 05:31:12 2022

        *************************************************************
        *                                                           *
        *  Thank you very much for using Q-Chem.  Have a nice day.  *
        *                                                           *
        *************************************************************


