
Running Job 1 of 1 irc_product.in
qchem irc_product.in_50459.0 ./irc_product.d/ 1
/home/leeping/opt/qchem/5.0.2-openmp/exe/qcprog.exe_s irc_product.in_50459.0 ./irc_product.d/
Check license passed

                  Welcome to Q-Chem
     A Quantum Leap Into The Future Of Chemistry


 Q-Chem 5.0, Q-Chem, Inc., Pleasanton, CA (2017)

 Yihan Shao,  Zhengting Gan,  E. Epifanovsky,  A. T. B. Gilbert,  M. Wormit,  
 J. Kussmann,  A. W. Lange,  A. Behn,  Jia Deng,  Xintian Feng,  D. Ghosh,  
 M. Goldey,  P. R. Horn,  L. D. Jacobson,  I. Kaliman,  T. Kus,  A. Landau,  
 Jie Liu,  E. I. Proynov,  R. M. Richard,  R. P. Steele,  E. J. Sundstrom,  
 H. L. Woodcock III,  P. M. Zimmerman,  D. Zuev,  B. Albrecht,  E. Alguire,  
 S. A. Baeppler,  D. Barton,  Z. Benda,  Y. A. Bernard,  E. J. Berquist,  
 K. B. Bravaya,  H. Burton,  D. Casanova,  Chun-Min Chang,  Yunqing Chen,  
 A. Chien,  K. D. Closser,  M. P. Coons,  S. Dasgupta,  A. L. Dempwolff,  
 M. Diedenhofen,  Hainam Do,  R. G. Edgar,  Po-Tung Fang,  S. Fatehi,  
 Qingguo Feng,  J. Fosso-Tande,  Qinghui Ge,  A. Ghysels,  G. Gidofalvi,  
 J. Gomes,  J. Gonthier,  A. Gunina,  M. W. D. Hanson-Heine,  
 P. H. P. Harbach,  A. W. Hauser,  J. E. Herr,  E. G. Hohenstein,  
 Z. C. Holden,  Kerwin Hui,  T.-C. Jagau,  Hyunjun Ji,  B. Kaduk,  
 K. Khistyaev,  Jaehoon Kim,  P. Klunzinger,  K. Koh,  D. Kosenkov,  
 L. Koulias,  T. Kowalczyk,  C. M. Krauter,  A. Kunitsa,  Ka Un Lao,  
 A. Laurent,  K. V. Lawler,  Joonho Lee,  D. Lefrancois,  S. Lehtola,  
 D. S. Levine,  Yi-Pei Li,  You-Sheng Lin,  Fenglai Liu,  E. Livshits,  
 A. Luenser,  P. Manohar,  E. Mansoor,  S. F. Manzer,  Shan-Ping Mao,  
 Yuezhi Mao,  N. Mardirossian,  A. V. Marenich,  T. Markovich,  
 L. A. Martinez-Martinez,  S. A. Maurer,  N. J. Mayhall,  S. C. McKenzie,  
 J.-M. Mewes,  A. F. Morrison,  J. W. Mullinax,  K. Nanda,  
 T. S. Nguyen-Beck,  R. Olivares-Amaya,  J. A. Parkhill,  T. M. Perrine,  
 F. Plasser,  S. Prager,  A. Prociuk,  E. Ramos,  D. R. Rehn,  F. Rob,  
 M. Schneider,  N. Sergueev,  S. M. Sharada,  S. Sharma,  D. W. Small,  
 T. Stauch,  T. Stein,  Yu-Chuan Su,  A. J. W. Thom,  A. Tkatchenko,  
 T. Tsuchimochi,  L. Vogt,  O. Vydrov,  M. A. Watson,  J. Wenzel,  
 M. de Wergifosse,  T. A. Wesolowski,  A. White,  J. Witte,  A. Yamada,  
 Jun Yang,  K. Yao,  S. Yeganeh,  S. R. Yost,  Zhi-Qiang You,  A. Zech,  
 Igor Ying Zhang,  Xing Zhang,  Yan Zhao,  Ying Zhu,  B. R. Brooks,  
 G. K. L. Chan,  C. J. Cramer,  M. S. Gordon,  W. J. Hehre,  A. Klamt,  
 M. W. Schmidt,  C. D. Sherrill,  D. G. Truhlar,  A. Aspuru-Guzik,  R. Baer,  
 A. T. Bell,  N. A. Besley,  Jeng-Da Chai,  R. A. DiStasio Jr.,  A. Dreuw,  
 B. D. Dunietz,  T. R. Furlani,  Chao-Ping Hsu,  Yousung Jung,  Jing Kong,  
 D. S. Lambrecht,  WanZhen Liang,  C. Ochsenfeld,  V. A. Rassolov,  
 L. V. Slipchenko,  J. E. Subotnik,  T. Van Voorhis,  J. M. Herbert,  
 A. I. Krylov,  P. M. W. Gill,  M. Head-Gordon

 Contributors to earlier versions of Q-Chem not listed above: 
 R. D. Adamson,  B. Austin,  J. Baker,  G. J. O. Beran,  K. Brandhorst,  
 S. T. Brown,  E. F. C. Byrd,  A. K. Chakraborty,  C.-L. Cheng,  
 Siu Hung Chien,  D. M. Chipman,  D. L. Crittenden,  H. Dachsel,  
 R. J. Doerksen,  A. D. Dutoi,  L. Fusti-Molnar,  W. A. Goddard III,  
 A. Golubeva-Zadorozhnaya,  S. R. Gwaltney,  G. Hawkins,  A. Heyden,  
 S. Hirata,  G. Kedziora,  F. J. Keil,  C. Kelley,  Jihan Kim,  R. A. King,  
 R. Z. Khaliullin,  P. P. Korambath,  W. Kurlancheek,  A. M. Lee,  M. S. Lee,  
 S. V. Levchenko,  Ching Yeh Lin,  D. Liotard,  R. C. Lochan,  I. Lotan,  
 P. E. Maslen,  N. Nair,  D. P. O'Neill,  D. Neuhauser,  E. Neuscamman,  
 C. M. Oana,  R. Olson,  B. Peters,  R. Peverati,  P. A. Pieniazek,  
 Y. M. Rhee,  J. Ritchie,  M. A. Rohrdanz,  E. Rosta,  N. J. Russ,  
 H. F. Schaefer III,  N. E. Schultz,  N. Shenvi,  A. C. Simmonett,  A. Sodt,  
 D. Stuck,  K. S. Thanthiriwatte,  V. Vanovschi,  Tao Wang,  A. Warshel,  
 C. F. Williams,  Q. Wu,  X. Xu,  W. Zhang

 Please cite Q-Chem as follows:
 Y. Shao et al., Mol. Phys. 113, 184-215 (2015)
 DOI: 10.1080/00268976.2014.952696

 Q-Chem 5.0.2 for Intel X86 EM64T Linux

 Parts of Q-Chem use Armadillo 5.200.1 (Boston Tea Smuggler).
 http://arma.sourceforge.net/

 Q-Chem begins on Fri Mar  4 05:31:13 2022  

Host: 
0

     Scratch files written to ./irc_product.d//
 Dec517 15110_ 26548  26544 5633   
Processing $rem in /home/leeping/opt/qchem/5.0.2-openmp/config/preferences.
 MEM_STATIC 2000
 MEM_TOTAL  8000
 SYMMETRY   OFF
 SYM_IGNORE TRUE 

Checking the input file for inconsistencies... 	...done.

--------------------------------------------------------------
User input:
--------------------------------------------------------------
$molecule
0 2
C        1.5152450427    0.4300405913   -0.3036001304
C        0.7887463348   -0.8402348371   -0.0442995949
C       -0.5546056981   -0.6840028825   -0.6647507921
C       -0.9884024823    0.7012255347    0.8811547136
C       -0.6338281134    0.8912473481   -0.5887312104
N        0.7580574143    1.4079357313   -0.6535347267
H        2.5882137149    0.5589942981   -0.1737010435
H        1.2819486716   -1.8047242421    0.0203290160
H       -1.0495819725   -1.3662377475   -1.3482248869
H       -1.1136940818    1.4267744795    1.6795823481
H       -1.3131652223    1.4486816884   -1.2342217103
C       -0.5346846560   -0.6847571093    0.8643429646
H       -0.7442489518   -1.4849428529    1.5656550528
$end

$rem
method                b3lyp
basis                 6-31+g(d,p)
unrestricted          true
symmetry              off
sym_ignore            true
incdft                false
incfock               0
scf_convergence       8
thresh                14
jobtype               sp
scf_guess             core
scf_guess_mix         5
scf_algorithm         diis
max_scf_cycles        100
$end

--------------------------------------------------------------
 ----------------------------------------------------------------
             Standard Nuclear Orientation (Angstroms)
    I     Atom           X                Y                Z
 ----------------------------------------------------------------
    1      C       1.5152450427     0.4300405913    -0.3036001304
    2      C       0.7887463348    -0.8402348371    -0.0442995949
    3      C      -0.5546056981    -0.6840028825    -0.6647507921
    4      C      -0.9884024823     0.7012255347     0.8811547136
    5      C      -0.6338281134     0.8912473481    -0.5887312104
    6      N       0.7580574143     1.4079357313    -0.6535347267
    7      H       2.5882137149     0.5589942981    -0.1737010435
    8      H       1.2819486716    -1.8047242421     0.0203290160
    9      H      -1.0495819725    -1.3662377475    -1.3482248869
   10      H      -1.1136940818     1.4267744795     1.6795823481
   11      H      -1.3131652223     1.4486816884    -1.2342217103
   12      C      -0.5346846560    -0.6847571093     0.8643429646
   13      H      -0.7442489518    -1.4849428529     1.5656550528
 ----------------------------------------------------------------
 Nuclear Repulsion Energy =   281.6858027783 hartrees
 There are       25 alpha and       24 beta electrons
 Requested basis set is 6-31+G(d,p)
 There are 53 shells and 163 basis functions

 Total QAlloc Memory Limit   8000 MB
 Mega-Array Size      1956 MB
 MEM_STATIC part      2000 MB

                       Distance Matrix (Angstroms)
             C (  1)   C (  2)   C (  3)   C (  4)   C (  5)   N (  6)
   C (  2)  1.486148
   C (  3)  2.378194  1.487939
   C (  4)  2.783062  2.528008  2.120580
   C (  5)  2.216422  2.306112  1.579072  1.523941
   N (  6)  1.285327  2.329459  2.469700  2.429986  1.486106
   H (  7)  1.088469  2.283127  3.415185  3.731640  3.265608  2.073744
   H (  8)  2.270139  1.085203  2.257938  3.489312  3.362948  3.324115
   H (  9)  3.300938  2.314379  1.085165  3.041099  2.417834  3.383222
   H ( 10)  3.440612  3.424964  3.203726  1.086097  2.379560  2.991194
   H ( 11)  3.146997  3.327625  2.334107  2.266932  1.090362  2.151469
   C ( 12)  2.609421  1.612847  1.529224  1.458455  2.145937  2.890415
   H ( 13)  3.502369  2.314666  2.377431  2.303798  3.209338  3.943409
             H (  7)   H (  8)   H (  9)   H ( 10)   H ( 11)   C ( 12)
   H (  8)  2.707608
   H (  9)  4.280138  2.738840
   H ( 10)  4.229873  4.351415  4.119787
   H ( 11)  4.139687  4.346627  2.829531  2.920706
   C ( 12)  3.518089  2.294960  2.371706  2.336329  3.092178
   H ( 13)  4.278825  2.568223  2.932237  2.937272  4.095013  1.084460

 
 A cutoff of  1.0D-14 yielded   1404 shell pairs
 There are     13508 function pairs
 
 -------------------------------------------------------
 OpenMP Integral Computing Module                       
 Release: version 1.0, May 2013, Q-Chem Inc. Pittsburgh 
 -------------------------------------------------------
 Integral Job Info:
 Integral job number is                      11
 Integral operator is                         1
 short-range coefficients                     0
 long-range coefficients              100000000
 Omega coefficients                           0
 if combine SR and LR in K                    0
 Integral screening is                        0
 Integral computing path is                   2
 max size of driver memory is            800000
 size of driver memory is                593474
 size of scratch memory is              2361544
 max col of scratch BK array               1296
 max len of scratch array in speh3          155
 max len of scratch index in speh4           18
 max int batch size is                      520
 min int batch size is                       52
 fixed nKL is                                52
 max L of basis functions is                  2
 order of int derivative is                   0
 number of shells is                         53
 number of basis is                         163
 number of cartesian basis is               163
 number of contracted shell pairs          1404
 number of primitive shell pairs           4835
 maxK2 (contraction) of shell pair           36
 max number of K2 of shell pair               1
 max number of CS2 of shell pair            126
 max number of PS2 of shell pair            708
 mem total for path MDJ                  535308
 -------------------------------------------------------
 Smallest overlap matrix eigenvalue = 1.85E-05

 Scale SEOQF with 1.000000e-01/1.000000e-01/1.000000e-01

 Standard Electronic Orientation quadrupole field applied
 Nucleus-field energy     =     0.0000000020 hartrees
 Guess MOs from core Hamiltonian diagonalization
 Mixing HOMO and LUMO in initial guess
 Adding  50% of the LUMO to the HOMO
 An unrestricted hybrid HF-DFT SCF calculation will be
 performed using Pulay DIIS extrapolation
 Exchange:     0.2000 Hartree-Fock + 0.0800 Slater + 0.7200 B88
 Correlation:  0.1900 VWN1RPA + 0.8100 LYP
 Using SG-1 standard quadrature grid
 SCF converges when DIIS error is below 1.0E-08
 using 4 threads for integral computing
 -------------------------------------------------------
 OpenMP Integral computing Module                
 Release: version 1.0, May 2013, Q-Chem Inc. Pittsburgh 
 -------------------------------------------------------
 -------------------------------------------------------
 OpenMP BLAS3 based DFT computing Module                
 Release: version 1.0, May 2013, Q-Chem Inc. Pittsburgh 
 -------------------------------------------------------
 ---------------------------------------
  Cycle       Energy         DIIS Error
 ---------------------------------------
    1    -236.4949276775      9.82E-02
    2    -213.9592773981      7.07E-02
    3    -265.1331312905      6.62E-02
    4    -270.2159876760      6.23E-02
    5    -275.6433353024      5.07E-02
    6    -283.6778522620      2.54E-02
    7    -285.6771871566      1.75E-02
    8    -286.3083521764      1.08E-02
    9    -286.7501710571      5.62E-03
   10    -286.8436036189      2.08E-03
   11    -286.8567527579      9.86E-04
   12    -286.8599990050      2.01E-04
   13    -286.8602579980      3.67E-05
   14    -286.8602835927      2.00E-05
   15    -286.8602876963      1.05E-05
   16    -286.8602889660      3.48E-06
   17    -286.8602892104      1.06E-06
   18    -286.8602892388      5.04E-07
   19    -286.8602892489      1.57E-07
   20    -286.8602892580      6.28E-08
   21    -286.8602892638      2.37E-08
   22    -286.8602892652      1.09E-08
   23    -286.8602892655      3.91E-09 Convergence criterion met
 ---------------------------------------
 <S^2> = 0.7556
 SCF time:  CPU 115.90 s  wall 29.93 s
 SCF   energy in the final basis set = -286.86028927
 Total energy in the final basis set = -286.86028927
 
 --------------------------------------------------------------
 
                    Orbital Energies (a.u.)
 --------------------------------------------------------------
 
 Alpha MOs
 -- Occupied --
-14.332 -10.230 -10.230 -10.224 -10.222 -10.219 -10.211  -0.974
 -0.866  -0.757  -0.667  -0.618  -0.581  -0.544  -0.528  -0.473
 -0.441  -0.421  -0.398  -0.371  -0.347  -0.314  -0.274  -0.269
 -0.196
 -- Virtual --
 -0.020   0.002   0.017   0.022   0.026   0.046   0.048   0.063
  0.068   0.075   0.085   0.097   0.102   0.107   0.113   0.117
  0.120   0.133   0.154   0.166   0.167   0.174   0.181   0.186
  0.187   0.197   0.207   0.214   0.226   0.238   0.249   0.253
  0.261   0.270   0.281   0.294   0.299   0.315   0.326   0.335
  0.359   0.387   0.440   0.452   0.614   0.649   0.668   0.698
  0.718   0.725   0.733   0.747   0.749   0.760   0.781   0.787
  0.805   0.809   0.849   0.879   0.897   0.913   0.936   0.980
  0.987   0.999   1.031   1.048   1.086   1.127   1.147   1.150
  1.202   1.276   1.325   1.361   1.411   1.433   1.472   1.500
  1.571   1.587   1.637   1.669   1.750   1.760   1.810   1.843
  1.892   1.925   1.950   1.965   2.003   2.026   2.081   2.153
  2.180   2.188   2.262   2.298   2.332   2.348   2.380   2.401
  2.417   2.447   2.481   2.484   2.487   2.517   2.533   2.545
  2.550   2.603   2.639   2.668   2.697   2.739   2.756   2.806
  2.817   2.881   2.966   3.042   3.104   3.271   3.327   3.362
  3.475   3.616   3.653   4.158   4.365   4.484   4.601   4.659
  4.665   4.885
 
 Beta MOs
 -- Occupied --
-14.331 -10.231 -10.230 -10.225 -10.220 -10.217 -10.199  -0.970
 -0.862  -0.747  -0.657  -0.612  -0.577  -0.542  -0.518  -0.470
 -0.435  -0.416  -0.394  -0.367  -0.335  -0.305  -0.269  -0.266
 -- Virtual --
 -0.074  -0.012   0.002   0.018   0.023   0.026   0.046   0.048
  0.065   0.068   0.080   0.087   0.100   0.102   0.107   0.116
  0.117   0.123   0.135   0.156   0.167   0.169   0.175   0.182
  0.187   0.189   0.200   0.211   0.216   0.233   0.239   0.251
  0.255   0.265   0.271   0.284   0.298   0.301   0.321   0.329
  0.337   0.362   0.389   0.449   0.455   0.617   0.664   0.674
  0.702   0.726   0.732   0.734   0.754   0.754   0.772   0.790
  0.795   0.810   0.814   0.851   0.881   0.900   0.915   0.940
  0.982   0.990   1.003   1.033   1.050   1.090   1.130   1.151
  1.162   1.204   1.282   1.330   1.364   1.414   1.439   1.481
  1.508   1.576   1.591   1.640   1.672   1.752   1.773   1.819
  1.853   1.902   1.933   1.958   1.975   2.010   2.030   2.090
  2.160   2.186   2.197   2.265   2.300   2.334   2.352   2.383
  2.407   2.421   2.451   2.483   2.489   2.499   2.521   2.540
  2.553   2.560   2.609   2.645   2.671   2.701   2.741   2.761
  2.810   2.820   2.883   2.968   3.046   3.106   3.272   3.329
  3.366   3.480   3.620   3.656   4.160   4.373   4.497   4.603
  4.664   4.669   4.889
 --------------------------------------------------------------
 
          Ground-State Mulliken Net Atomic Charges

     Atom                 Charge (a.u.)    Spin (a.u.)
  --------------------------------------------------------
      1 C                    -0.097483       0.044411
      2 C                    -0.093554       0.113759
      3 C                    -0.125840       0.059892
      4 C                    -0.071695       1.021662
      5 C                    -0.075616      -0.123440
      6 N                    -0.209980       0.028525
      7 H                     0.132492       0.004395
      8 H                     0.138049       0.001094
      9 H                     0.132591      -0.000564
     10 H                     0.130148      -0.023104
     11 H                     0.135707       0.019279
     12 C                    -0.135442      -0.150717
     13 H                     0.140622       0.004807
  --------------------------------------------------------
  Sum of atomic charges =     0.000000
  Sum of spin   charges =     1.000000

 -----------------------------------------------------------------
                    Cartesian Multipole Moments
 -----------------------------------------------------------------
    Charge (ESU x 10^10)
                 0.0000
    Dipole Moment (Debye)
         X      -0.3622      Y      -2.6321      Z       0.5994
       Tot       2.7236
    Quadrupole Moments (Debye-Ang)
        XX     -40.0876     XY      -2.9424     YY     -43.7340
        XZ       1.7152     YZ       1.6770     ZZ     -41.3208
    Octopole Moments (Debye-Ang^2)
       XXX       6.6956    XXY      -7.4731    XYY      -8.7628
       YYY     -33.7326    XXZ       0.5341    XYZ       1.9820
       YYZ       7.3183    XZZ      -7.0907    YZZ      -8.0606
       ZZZ       9.5427
    Hexadecapole Moments (Debye-Ang^3)
      XXXX    -265.6597   XXXY      -3.8213   XXYY     -91.1236
      XYYY     -23.4958   YYYY    -283.7020   XXXZ      32.9914
      XXYZ       7.1657   XYYZ      13.8411   YYYZ      25.4730
      XXZZ     -76.9650   XYZZ      -4.4823   YYZZ     -70.9350
      XZZZ      28.9365   YZZZ      20.6766   ZZZZ    -173.3882
 -----------------------------------------------------------------
Archival summary:
1\1\c8-66\SP\ProcedureUnspecified\6-31+G**\166(2)\hpark21\FriMar405:31:442022FriMar405:31:442022\0\\#,ProcedureUnspecified,6-31+G**,\\0,2\N\C,1,1.28533\H,2,1.08847,1,121.538\C,1,1.48611,2,105.983,3,-174.247,0\H,4,1.09036,1,112.332,2,-156.027,0\C,2,1.48615,1,114.194,3,177.502,0\H,6,1.0852,2,123.222,1,164.577,0\C,6,1.48794,2,106.191,1,16.5849,0\H,8,1.08516,6,127.476,2,129.114,0\C,4,1.52394,1,107.658,2,70.6234,0\H,10,1.0861,4,130.738,1,66.3082,0\C,10,1.45845,4,92.0055,1,-91.6797,0\H,12,1.08446,10,129.318,4,-162.79,0\\\@

 Total job time:  30.72s(wall), 117.61s(cpu) 
 Fri Mar  4 05:31:44 2022

        *************************************************************
        *                                                           *
        *  Thank you very much for using Q-Chem.  Have a nice day.  *
        *                                                           *
        *************************************************************


