
Running Job 1 of 1 qcfsm.in
qchem qcfsm.in_42191.0 ./qcfsm.d/ 1
/home/leeping/opt/qchem/5.0.2-openmp/exe/qcprog.exe_s qcfsm.in_42191.0 ./qcfsm.d/
Check license passed

                  Welcome to Q-Chem
     A Quantum Leap Into The Future Of Chemistry


 Q-Chem 5.0, Q-Chem, Inc., Pleasanton, CA (2017)

 Yihan Shao,  Zhengting Gan,  E. Epifanovsky,  A. T. B. Gilbert,  M. Wormit,  
 J. Kussmann,  A. W. Lange,  A. Behn,  Jia Deng,  Xintian Feng,  D. Ghosh,  
 M. Goldey,  P. R. Horn,  L. D. Jacobson,  I. Kaliman,  T. Kus,  A. Landau,  
 Jie Liu,  E. I. Proynov,  R. M. Richard,  R. P. Steele,  E. J. Sundstrom,  
 H. L. Woodcock III,  P. M. Zimmerman,  D. Zuev,  B. Albrecht,  E. Alguire,  
 S. A. Baeppler,  D. Barton,  Z. Benda,  Y. A. Bernard,  E. J. Berquist,  
 K. B. Bravaya,  H. Burton,  D. Casanova,  Chun-Min Chang,  Yunqing Chen,  
 A. Chien,  K. D. Closser,  M. P. Coons,  S. Dasgupta,  A. L. Dempwolff,  
 M. Diedenhofen,  Hainam Do,  R. G. Edgar,  Po-Tung Fang,  S. Fatehi,  
 Qingguo Feng,  J. Fosso-Tande,  Qinghui Ge,  A. Ghysels,  G. Gidofalvi,  
 J. Gomes,  J. Gonthier,  A. Gunina,  M. W. D. Hanson-Heine,  
 P. H. P. Harbach,  A. W. Hauser,  J. E. Herr,  E. G. Hohenstein,  
 Z. C. Holden,  Kerwin Hui,  T.-C. Jagau,  Hyunjun Ji,  B. Kaduk,  
 K. Khistyaev,  Jaehoon Kim,  P. Klunzinger,  K. Koh,  D. Kosenkov,  
 L. Koulias,  T. Kowalczyk,  C. M. Krauter,  A. Kunitsa,  Ka Un Lao,  
 A. Laurent,  K. V. Lawler,  Joonho Lee,  D. Lefrancois,  S. Lehtola,  
 D. S. Levine,  Yi-Pei Li,  You-Sheng Lin,  Fenglai Liu,  E. Livshits,  
 A. Luenser,  P. Manohar,  E. Mansoor,  S. F. Manzer,  Shan-Ping Mao,  
 Yuezhi Mao,  N. Mardirossian,  A. V. Marenich,  T. Markovich,  
 L. A. Martinez-Martinez,  S. A. Maurer,  N. J. Mayhall,  S. C. McKenzie,  
 J.-M. Mewes,  A. F. Morrison,  J. W. Mullinax,  K. Nanda,  
 T. S. Nguyen-Beck,  R. Olivares-Amaya,  J. A. Parkhill,  T. M. Perrine,  
 F. Plasser,  S. Prager,  A. Prociuk,  E. Ramos,  D. R. Rehn,  F. Rob,  
 M. Schneider,  N. Sergueev,  S. M. Sharada,  S. Sharma,  D. W. Small,  
 T. Stauch,  T. Stein,  Yu-Chuan Su,  A. J. W. Thom,  A. Tkatchenko,  
 T. Tsuchimochi,  L. Vogt,  O. Vydrov,  M. A. Watson,  J. Wenzel,  
 M. de Wergifosse,  T. A. Wesolowski,  A. White,  J. Witte,  A. Yamada,  
 Jun Yang,  K. Yao,  S. Yeganeh,  S. R. Yost,  Zhi-Qiang You,  A. Zech,  
 Igor Ying Zhang,  Xing Zhang,  Yan Zhao,  Ying Zhu,  B. R. Brooks,  
 G. K. L. Chan,  C. J. Cramer,  M. S. Gordon,  W. J. Hehre,  A. Klamt,  
 M. W. Schmidt,  C. D. Sherrill,  D. G. Truhlar,  A. Aspuru-Guzik,  R. Baer,  
 A. T. Bell,  N. A. Besley,  Jeng-Da Chai,  R. A. DiStasio Jr.,  A. Dreuw,  
 B. D. Dunietz,  T. R. Furlani,  Chao-Ping Hsu,  Yousung Jung,  Jing Kong,  
 D. S. Lambrecht,  WanZhen Liang,  C. Ochsenfeld,  V. A. Rassolov,  
 L. V. Slipchenko,  J. E. Subotnik,  T. Van Voorhis,  J. M. Herbert,  
 A. I. Krylov,  P. M. W. Gill,  M. Head-Gordon

 Contributors to earlier versions of Q-Chem not listed above: 
 R. D. Adamson,  B. Austin,  J. Baker,  G. J. O. Beran,  K. Brandhorst,  
 S. T. Brown,  E. F. C. Byrd,  A. K. Chakraborty,  C.-L. Cheng,  
 Siu Hung Chien,  D. M. Chipman,  D. L. Crittenden,  H. Dachsel,  
 R. J. Doerksen,  A. D. Dutoi,  L. Fusti-Molnar,  W. A. Goddard III,  
 A. Golubeva-Zadorozhnaya,  S. R. Gwaltney,  G. Hawkins,  A. Heyden,  
 S. Hirata,  G. Kedziora,  F. J. Keil,  C. Kelley,  Jihan Kim,  R. A. King,  
 R. Z. Khaliullin,  P. P. Korambath,  W. Kurlancheek,  A. M. Lee,  M. S. Lee,  
 S. V. Levchenko,  Ching Yeh Lin,  D. Liotard,  R. C. Lochan,  I. Lotan,  
 P. E. Maslen,  N. Nair,  D. P. O'Neill,  D. Neuhauser,  E. Neuscamman,  
 C. M. Oana,  R. Olson,  B. Peters,  R. Peverati,  P. A. Pieniazek,  
 Y. M. Rhee,  J. Ritchie,  M. A. Rohrdanz,  E. Rosta,  N. J. Russ,  
 H. F. Schaefer III,  N. E. Schultz,  N. Shenvi,  A. C. Simmonett,  A. Sodt,  
 D. Stuck,  K. S. Thanthiriwatte,  V. Vanovschi,  Tao Wang,  A. Warshel,  
 C. F. Williams,  Q. Wu,  X. Xu,  W. Zhang

 Please cite Q-Chem as follows:
 Y. Shao et al., Mol. Phys. 113, 184-215 (2015)
 DOI: 10.1080/00268976.2014.952696

 Q-Chem 5.0.2 for Intel X86 EM64T Linux

 Parts of Q-Chem use Armadillo 5.200.1 (Boston Tea Smuggler).
 http://arma.sourceforge.net/

 Q-Chem begins on Fri Mar  4 01:37:41 2022  

Host: 
0

     Scratch files written to ./qcfsm.d//
 Dec517 15110_ 26548  26544 5633   
Processing $rem in /home/leeping/opt/qchem/5.0.2-openmp/config/preferences.
 MEM_STATIC 2000
 MEM_TOTAL  8000
 SYMMETRY   OFF
 SYM_IGNORE TRUE 
 Now reading second FSM geometry

Checking the input file for inconsistencies... 	...done.

--------------------------------------------------------------
User input:
--------------------------------------------------------------
$molecule
0 2
C        1.5196817895    0.3440739078   -0.2649461972
C        0.6224748319   -0.8939218341   -0.0647136388
C       -0.3953703744   -0.5206731519   -1.1472882853
C       -1.0023286462    0.5091940545    0.8086810719
C       -0.5861713701    0.8954094682   -0.6198733192
N        0.8530895815    1.3865087220   -0.5766345126
H        2.6004622616    0.3578332345   -0.1344527725
H        1.1022922546   -1.8726626952   -0.0767669264
H       -1.2213134024   -1.1742516431   -1.4232003148
H       -1.7271370039    1.0439991456    1.4125314193
H       -1.2321738086    1.5929355166   -1.1508801546
C       -0.2722119408   -0.5659090966    1.1475628476
H       -0.2612941731   -1.1025356283    2.0899807822
****
C        1.4634472714    0.2995955640   -0.7911101075
C        1.0988594007   -0.9937694383   -0.4647324744
C       -0.0964799067   -1.4397118758    0.2036773431
C       -1.2276448266    0.7715759993    0.5554921329
C       -0.3287949944    1.6583377556   -0.0057823792
N        0.8723779113    1.5030058167   -0.6122492020
H        2.4251608358    0.3887676499   -1.3013513074
H        1.8065893638   -1.7681087751   -0.7508283408
H       -0.1794325389   -2.5134016516    0.3602415170
H       -2.1269252218    1.2161704784    0.9752348445
H       -0.6304264634    2.7071094593    0.0395261345
C       -1.1218160504   -0.6624035273    0.6534049182
H       -1.9549147806   -1.1671674553    1.1384769211
$end

$rem
method                b3lyp
basis                 6-31g(d)
unrestricted          true
symmetry              off
sym_ignore            true
incdft                false
incfock               0
scf_convergence       8
thresh                14
jobtype               fsm
scf_guess             core
scf_guess_mix         5
scf_algorithm         diis
max_scf_cycles        100
fsm_nnode             21
fsm_ngrad             6
fsm_mode              2
fsm_opt_mode          2
$end

--------------------------------------------------------------
 ----------------------------------------------------------------
             Standard Nuclear Orientation (Angstroms)
    I     Atom           X                Y                Z
 ----------------------------------------------------------------
    1      C       1.5196817895     0.3440739078    -0.2649461972
    2      C       0.6224748319    -0.8939218341    -0.0647136388
    3      C      -0.3953703744    -0.5206731519    -1.1472882853
    4      C      -1.0023286462     0.5091940545     0.8086810719
    5      C      -0.5861713701     0.8954094682    -0.6198733192
    6      N       0.8530895815     1.3865087220    -0.5766345126
    7      H       2.6004622616     0.3578332345    -0.1344527725
    8      H       1.1022922546    -1.8726626952    -0.0767669264
    9      H      -1.2213134024    -1.1742516431    -1.4232003148
   10      H      -1.7271370039     1.0439991456     1.4125314193
   11      H      -1.2321738086     1.5929355166    -1.1508801546
   12      C      -0.2722119408    -0.5659090966     1.1475628476
   13      H      -0.2612941731    -1.1025356283     2.0899807822
 ----------------------------------------------------------------
 Nuclear Repulsion Energy =   279.1132855027 hartrees
 There are       25 alpha and       24 beta electrons
 Requested basis set is 6-31G(d)
 There are 40 shells and 117 basis functions

 Total QAlloc Memory Limit   8000 MB
 Mega-Array Size      1956 MB
 MEM_STATIC part      2000 MB
 beginning FSman 

*******************************************
*******************************************
******** Starting FSM Calculation *********
*******************************************
*******************************************
-FSM parameters:
 Maximum displacement of each coordinate during optimization (Angstrom)      0.05
 Maximum optimization steps for each new node                                6
 The scaling factor for optimization (hartrees/Angstrom^2)                   1.75
 The number of LST interpolations used for reparameterization                100
-Aligning product structure to maximum coincidence with the reactant structure
 Total R --> P Distance 4.607707
 New node interpolation distace (Angstroms): 0.22
-Performing force calculation on reactant structure in state:0
 ----------------------------------------------------------------
             Standard Nuclear Orientation (Angstroms)
    I     Atom           X                Y                Z
 ----------------------------------------------------------------
    1      C       1.5196817895     0.3440739078    -0.2649461972
    2      C       0.6224748319    -0.8939218341    -0.0647136388
    3      C      -0.3953703744    -0.5206731519    -1.1472882853
    4      C      -1.0023286462     0.5091940545     0.8086810719
    5      C      -0.5861713701     0.8954094682    -0.6198733192
    6      N       0.8530895815     1.3865087220    -0.5766345126
    7      H       2.6004622616     0.3578332345    -0.1344527725
    8      H       1.1022922546    -1.8726626952    -0.0767669264
    9      H      -1.2213134024    -1.1742516431    -1.4232003148
   10      H      -1.7271370039     1.0439991456     1.4125314193
   11      H      -1.2321738086     1.5929355166    -1.1508801546
   12      C      -0.2722119408    -0.5659090966     1.1475628476
   13      H      -0.2612941731    -1.1025356283     2.0899807822
 ----------------------------------------------------------------
 Nuclear Repulsion Energy =   279.1132855027 hartrees
 There are       25 alpha and       24 beta electrons

                       Distance Matrix (Angstroms)
             C (  1)   C (  2)   C (  3)   C (  4)   C (  5)   N (  6)
   C (  2)  1.541981
   C (  3)  2.278978  1.532087
   C (  4)  2.745993  2.317658  2.292344
   C (  5)  2.205575  2.229514  1.523109  1.537243
   N (  6)  1.275996  2.348534  2.349817  2.476158  1.521355
   H (  7)  1.088717  2.341834  3.282167  3.727266  3.267913  2.075334
   H (  8)  2.263525  1.090093  2.284050  3.299498  3.287567  3.306685
   H (  9)  3.340647  2.307298  1.088795  2.804147  2.309164  3.402545
   H ( 10)  3.720976  3.385036  3.282450  1.084435  2.335498  3.275922
   H ( 11)  3.149166  3.286935  2.273234  2.251045  1.088958  2.172716
   C ( 12)  2.456447  1.541970  2.298599  1.343041  2.314704  2.837445
   H ( 13)  3.287892  2.338221  3.291877  2.188272  3.382401  3.814188
             H (  7)   H (  8)   H (  9)   H ( 10)   H ( 11)   C ( 12)
   H (  8)  2.687555
   H (  9)  4.314409  2.774852
   H ( 10)  4.646730  4.327886  3.635639
   H ( 11)  4.153035  4.314374  2.780576  2.667845
   C ( 12)  3.278585  2.257399  2.807080  2.186051  3.296206
   H ( 13)  3.907740  2.673436  3.642694  2.686121  4.325662  1.084545

 
 Requested basis set is 6-31G(d)
 There are 40 shells and 117 basis functions
 A cutoff of  1.0D-14 yielded    814 shell pairs
 There are      7086 function pairs
 
 -------------------------------------------------------
 OpenMP Integral Computing Module                       
 Release: version 1.0, May 2013, Q-Chem Inc. Pittsburgh 
 -------------------------------------------------------
 Integral Job Info:
 Integral job number is                      11
 Integral operator is                         1
 short-range coefficients                     0
 long-range coefficients              100000000
 Omega coefficients                           0
 if combine SR and LR in K                    0
 Integral screening is                        0
 Integral computing path is                   2
 max size of driver memory is            800000
 size of driver memory is                593474
 size of scratch memory is              2361544
 max col of scratch BK array               1296
 max len of scratch array in speh3          155
 max len of scratch index in speh4           18
 max int batch size is                      520
 min int batch size is                       52
 fixed nKL is                                52
 max L of basis functions is                  2
 order of int derivative is                   0
 number of shells is                         40
 number of basis is                         117
 number of cartesian basis is               117
 number of contracted shell pairs           814
 number of primitive shell pairs           3589
 maxK2 (contraction) of shell pair           36
 max number of K2 of shell pair               1
 max number of CS2 of shell pair             85
 max number of PS2 of shell pair            390
 mem total for path MDJ                  535308
 -------------------------------------------------------
 Smallest overlap matrix eigenvalue = 1.11E-03

 Scale SEOQF with 1.000000e-01/1.000000e-01/1.000000e-01

 Standard Electronic Orientation quadrupole field applied
 Nucleus-field energy     =     0.0000000007 hartrees
 Guess MOs from core Hamiltonian diagonalization
 Mixing HOMO and LUMO in initial guess
 Adding  50% of the LUMO to the HOMO
 An unrestricted hybrid HF-DFT SCF calculation will be
 performed using Pulay DIIS extrapolation
 Exchange:     0.2000 Hartree-Fock + 0.0800 Slater + 0.7200 B88
 Correlation:  0.1900 VWN1RPA + 0.8100 LYP
 Using SG-1 standard quadrature grid
 SCF converges when DIIS error is below 1.0E-08
 using 4 threads for integral computing
 -------------------------------------------------------
 OpenMP Integral computing Module                
 Release: version 1.0, May 2013, Q-Chem Inc. Pittsburgh 
 -------------------------------------------------------
 -------------------------------------------------------
 OpenMP BLAS3 based DFT computing Module                
 Release: version 1.0, May 2013, Q-Chem Inc. Pittsburgh 
 -------------------------------------------------------
 ---------------------------------------
  Cycle       Energy         DIIS Error
 ---------------------------------------
    1    -235.0576941012      1.38E-01
    2    -230.1599903761      1.00E-01
    3    -251.0296327103      1.10E-01
    4    -282.7601552778      4.18E-02
    5    -282.6523427296      4.16E-02
    6    -286.2723079597      1.59E-02
    7    -286.5140818892      1.13E-02
    8    -286.7803898684      5.38E-03
    9    -286.8419043105      1.93E-03
   10    -286.8491956468      1.11E-03
   11    -286.8511961860      3.15E-04
   12    -286.8515632107      1.01E-04
   13    -286.8516205242      4.96E-05
   14    -286.8516333387      1.27E-05
   15    -286.8516353601      5.52E-06
   16    -286.8516359111      1.45E-06
   17    -286.8516362084      6.27E-07
   18    -286.8516363586      4.42E-07
   19    -286.8516364931      1.75E-07
   20    -286.8516365108      2.21E-08
   21    -286.8516365108      6.29E-09 Convergence criterion met
 ---------------------------------------
 <S^2> = 0.7537
 SCF time:  CPU 50.21 s  wall 12.85 s
 SCF   energy in the final basis set = -286.85163651
 Total energy in the final basis set = -286.85163651
 
 --------------------------------------------------------------
 
                    Orbital Energies (a.u.)
 --------------------------------------------------------------
 
 Alpha MOs
 -- Occupied --
-14.322 -10.223 -10.220 -10.210 -10.204 -10.201 -10.197  -0.952
 -0.821  -0.726  -0.705  -0.579  -0.573  -0.531  -0.512  -0.472
 -0.418  -0.410  -0.381  -0.373  -0.348  -0.294  -0.271  -0.258
 -0.196
 -- Virtual --
 -0.021   0.029   0.103   0.140   0.150   0.154   0.159   0.163
  0.172   0.210   0.215   0.255   0.288   0.322   0.346   0.366
  0.495   0.510   0.532   0.540   0.570   0.599   0.606   0.622
  0.635   0.641   0.655   0.689   0.700   0.729   0.778   0.791
  0.800   0.817   0.825   0.846   0.858   0.876   0.891   0.940
  0.965   1.005   1.059   1.092   1.201   1.264   1.334   1.339
  1.396   1.407   1.487   1.510   1.563   1.611   1.659   1.725
  1.784   1.796   1.827   1.892   1.954   1.986   2.000   2.049
  2.097   2.138   2.172   2.208   2.235   2.276   2.315   2.335
  2.425   2.476   2.515   2.533   2.548   2.618   2.629   2.645
  2.722   2.835   2.856   2.904   2.939   3.922   4.188   4.267
  4.279   4.396   4.543   4.678
 
 Beta MOs
 -- Occupied --
-14.321 -10.224 -10.221 -10.210 -10.200 -10.196 -10.190  -0.949
 -0.815  -0.725  -0.690  -0.577  -0.561  -0.527  -0.509  -0.463
 -0.414  -0.406  -0.379  -0.369  -0.342  -0.287  -0.261  -0.255
 -- Virtual --
 -0.045  -0.016   0.031   0.105   0.143   0.153   0.158   0.160
  0.166   0.176   0.216   0.223   0.267   0.290   0.324   0.349
  0.369   0.497   0.529   0.540   0.544   0.577   0.603   0.611
  0.624   0.641   0.658   0.662   0.693   0.708   0.742   0.782
  0.793   0.810   0.819   0.827   0.848   0.860   0.879   0.894
  0.942   0.973   1.013   1.060   1.099   1.204   1.265   1.338
  1.345   1.401   1.411   1.489   1.513   1.578   1.619   1.665
  1.728   1.793   1.799   1.837   1.910   1.966   1.998   2.003
  2.054   2.119   2.144   2.179   2.224   2.249   2.281   2.317
  2.339   2.428   2.493   2.517   2.542   2.553   2.630   2.636
  2.648   2.729   2.837   2.859   2.906   2.942   3.923   4.190
  4.269   4.307   4.399   4.549   4.679
 --------------------------------------------------------------
 
          Ground-State Mulliken Net Atomic Charges

     Atom                 Charge (a.u.)    Spin (a.u.)
  --------------------------------------------------------
      1 C                     0.092159      -0.008835
      2 C                    -0.245794      -0.043951
      3 C                    -0.096669       0.975962
      4 C                    -0.088110       0.040454
      5 C                    -0.094677      -0.045174
      6 N                    -0.324968       0.022050
      7 H                     0.149647      -0.000174
      8 H                     0.133887       0.002856
      9 H                     0.138918      -0.026655
     10 H                     0.146065       0.000872
     11 H                     0.139817       0.003027
     12 C                    -0.095880       0.079260
     13 H                     0.145606       0.000306
  --------------------------------------------------------
  Sum of atomic charges =    -0.000000
  Sum of spin   charges =     1.000000

 -----------------------------------------------------------------
                    Cartesian Multipole Moments
 -----------------------------------------------------------------
    Charge (ESU x 10^10)
                -0.0000
    Dipole Moment (Debye)
         X      -0.7019      Y      -1.9435      Z       1.1715
       Tot       2.3753
    Quadrupole Moments (Debye-Ang)
        XX     -37.5367     XY      -3.9693     YY     -43.0237
        XZ       1.0747     YZ       0.6229     ZZ     -40.9161
    Octopole Moments (Debye-Ang^2)
       XXX      -4.1236    XXY      -5.2798    XYY     -10.0516
       YYY     -26.4765    XXZ       3.8099    XYZ       0.5338
       YYZ       6.4009    XZZ      -7.6016    YZZ      -7.3446
       ZZZ      17.1454
    Hexadecapole Moments (Debye-Ang^3)
      XXXX    -231.9031   XXXY      -5.2923   XXYY     -80.9209
      XYYY     -17.8038   YYYY    -239.6484   XXXZ      19.9933
      XXYZ      10.8974   XYYZ      11.5484   YYYZ      22.9006
      XXZZ     -75.6981   XYZZ      -3.7509   YYZZ     -71.1268
      XZZZ      19.8472   YZZZ      13.1790   ZZZZ    -211.0820
 -----------------------------------------------------------------
 Calculating analytic gradient of the SCF energy
 Gradient of SCF Energy
            1           2           3           4           5           6
    1  -0.0000008  -0.0000289   0.0000078  -0.0000143  -0.0000524   0.0000720
    2   0.0000267  -0.0000323   0.0000054   0.0000511  -0.0000548  -0.0000085
    3  -0.0000094   0.0000199   0.0000215  -0.0000233   0.0000005  -0.0000072
            7           8           9          10          11          12
    1  -0.0000008  -0.0000062   0.0000278  -0.0000180   0.0000339   0.0000105
    2  -0.0000199  -0.0000079   0.0000118   0.0000046   0.0000064   0.0000057
    3   0.0000405   0.0000363  -0.0000143  -0.0000310  -0.0000323  -0.0000142
           13
    1  -0.0000305
    2   0.0000117
    3   0.0000129
 Max gradient component =       7.201E-05
 RMS gradient           =       2.667E-05
 Gradient time:  CPU 7.94 s  wall 2.04 s
-Performing force calculation on product structure in state0
 ----------------------------------------------------------------
             Standard Nuclear Orientation (Angstroms)
    I     Atom           X                Y                Z
 ----------------------------------------------------------------
    1      C       1.4635983284     0.2993779369    -0.7909130195
    2      C       1.0990393823    -0.9938784964    -0.4640731864
    3      C      -0.0964125135    -1.4396338308     0.2042600750
    4      C      -1.2278274877     0.7717130960     0.5548976580
    5      C      -0.3289230734     1.6583094998    -0.0065506318
    6      N       0.8723956640     1.5028169551    -0.6126873553
    7      H       2.4254174366     0.3884110627    -1.3009795136
    8      H       1.8068928247    -1.7682825149    -0.7496880914
    9      H      -0.1793159153    -2.5132643039     0.3612564049
   10      H      -2.1272351082     1.2164133958     0.9742554998
   11      H      -0.6306463386     2.7070765588     0.0382513558
   12      C      -1.1219084461    -0.6622169573     0.6534353917
   13      H      -1.9550747536    -1.1668424017     1.1385354125
 ----------------------------------------------------------------
 Nuclear Repulsion Energy =   260.7255689258 hartrees
 There are       25 alpha and       24 beta electrons

                       Distance Matrix (Angstroms)
             C (  1)   C (  2)   C (  3)   C (  4)   C (  5)   N (  6)
   C (  2)  1.382838
   C (  3)  2.539324  1.440303
   C (  4)  3.045994  3.093529  2.508606
   C (  5)  2.382237  3.046720  3.113801  1.381777
   N (  6)  1.352609  2.511363  3.203749  2.511714  1.354528
   H (  7)  1.092333  2.090554  3.459353  4.115507  3.297663  2.031631
   H (  8)  2.096371  1.087352  2.154205  4.166899  4.105545  3.404724
   H (  9)  3.455086  2.150324  1.088211  3.453686  4.190429  4.264220
   H ( 10)  4.104980  4.166897  3.430994  1.087453  2.095514  3.405613
   H ( 11)  3.297027  4.115970  4.184277  2.090258  1.092225  2.033002
   C ( 12)  3.113784  2.508273  1.363003  1.441209  2.539537  3.204323
   H ( 13)  4.190453  3.453387  2.098073  2.151167  3.455007  4.264792
             H (  7)   H (  8)   H (  9)   H ( 10)   H ( 11)   C ( 12)
   H (  8)  2.310373
   H (  9)  4.238795  2.394623
   H ( 10)  5.156445  5.230464  4.252135
   H ( 11)  4.063161  5.156674  5.249761  2.310402
   C ( 12)  4.184146  3.430745  2.097671  2.154730  3.460047
   H ( 13)  5.249644  4.252002  2.360156  2.395107  4.239338  1.088180

 
 Applying Cartesian multipole field
    Component          Value
    ---------          -----
     (2,0,0)        1.00000E-11
     (0,2,0)        2.00000E-11
     (0,0,2)       -3.00000E-11
 Nucleus-field energy     =     0.0000000059 hartrees
 Requested basis set is 6-31G(d)
 There are 40 shells and 117 basis functions
 A cutoff of  1.0D-14 yielded    791 shell pairs
 There are      7063 function pairs
 Smallest overlap matrix eigenvalue = 1.33E-03
 Guess MOs from core Hamiltonian diagonalization
 Mixing HOMO and LUMO in initial guess
 Adding  50% of the LUMO to the HOMO
 An unrestricted hybrid HF-DFT SCF calculation will be
 performed using Pulay DIIS extrapolation
 Exchange:     0.2000 Hartree-Fock + 0.0800 Slater + 0.7200 B88
 Correlation:  0.1900 VWN1RPA + 0.8100 LYP
 Using SG-1 standard quadrature grid
 SCF converges when DIIS error is below 1.0E-08
 using 4 threads for integral computing
 -------------------------------------------------------
 OpenMP Integral computing Module                
 Release: version 1.0, May 2013, Q-Chem Inc. Pittsburgh 
 -------------------------------------------------------
 -------------------------------------------------------
 OpenMP BLAS3 based DFT computing Module                
 Release: version 1.0, May 2013, Q-Chem Inc. Pittsburgh 
 -------------------------------------------------------
 ---------------------------------------
  Cycle       Energy         DIIS Error
 ---------------------------------------
    1    -239.4867516537      1.26E-01
    2    -227.9002934624      1.03E-01
    3    -250.2594860728      1.03E-01
    4    -281.9161900288      4.85E-02
    5    -282.4533895447      4.74E-02
    6    -285.5304027878      2.31E-02
    7    -286.6137945924      1.25E-02
    8    -286.8608199566      4.94E-03
    9    -286.9210454923      8.95E-04
   10    -286.9229905592      7.33E-04
   11    -286.9240004496      1.81E-04
   12    -286.9242024653      8.02E-05
   13    -286.9243029115      4.09E-05
   14    -286.9243367813      1.23E-05
   15    -286.9243453844      4.98E-06
   16    -286.9243470064      3.02E-06
   17    -286.9243476841      6.72E-07
   18    -286.9243477193      2.73E-07
   19    -286.9243477229      9.65E-08
   20    -286.9243477233      3.20E-08
   21    -286.9243477233      1.26E-08
   22    -286.9243477233      6.86E-09 Convergence criterion met
 ---------------------------------------
 <S^2> = 0.7684
 SCF time:  CPU 51.50 s  wall 13.87 s
 SCF   energy in the final basis set = -286.92434772
 Total energy in the final basis set = -286.92434772
 
 --------------------------------------------------------------
 
                    Orbital Energies (a.u.)
 --------------------------------------------------------------
 
 Alpha MOs
 -- Occupied --
-14.322 -10.232 -10.232 -10.212 -10.211 -10.201 -10.200  -0.922
 -0.818  -0.784  -0.693  -0.667  -0.551  -0.537  -0.518  -0.449
 -0.439  -0.414  -0.394  -0.386  -0.349  -0.322  -0.299  -0.251
 -0.162
 -- Virtual --
 -0.072   0.077   0.097   0.101   0.117   0.142   0.181   0.184
  0.193   0.213   0.266   0.320   0.356   0.390   0.412   0.483
  0.496   0.521   0.547   0.576   0.584   0.587   0.591   0.610
  0.619   0.624   0.646   0.658   0.714   0.718   0.833   0.840
  0.847   0.854   0.868   0.872   0.885   0.922   0.965   0.975
  1.024   1.027   1.043   1.127   1.177   1.185   1.300   1.303
  1.326   1.401   1.429   1.480   1.482   1.546   1.574   1.586
  1.682   1.732   1.769   1.829   1.850   1.919   1.925   2.030
  2.046   2.048   2.100   2.141   2.142   2.191   2.247   2.391
  2.410   2.414   2.446   2.545   2.577   2.601   2.614   2.739
  2.749   2.807   3.052   3.250   3.250   4.018   4.046   4.102
  4.196   4.239   4.532   4.595
 
 Beta MOs
 -- Occupied --
-14.314 -10.233 -10.233 -10.210 -10.210 -10.196 -10.196  -0.911
 -0.809  -0.777  -0.681  -0.665  -0.546  -0.535  -0.514  -0.447
 -0.438  -0.411  -0.383  -0.373  -0.348  -0.295  -0.276  -0.241
 -- Virtual --
 -0.078  -0.070   0.078   0.118   0.124   0.125   0.142   0.182
  0.187   0.196   0.219   0.268   0.324   0.360   0.393   0.415
  0.486   0.504   0.525   0.551   0.587   0.588   0.592   0.596
  0.614   0.624   0.629   0.649   0.676   0.716   0.729   0.834
  0.843   0.846   0.869   0.875   0.880   0.887   0.925   0.967
  0.979   1.026   1.030   1.045   1.133   1.180   1.189   1.311
  1.315   1.333   1.411   1.429   1.489   1.492   1.560   1.582
  1.597   1.685   1.737   1.781   1.831   1.853   1.922   1.933
  2.036   2.058   2.061   2.110   2.141   2.147   2.203   2.259
  2.399   2.422   2.426   2.448   2.558   2.578   2.611   2.624
  2.742   2.761   2.810   3.054   3.252   3.254   4.030   4.053
  4.109   4.200   4.239   4.537   4.601
 --------------------------------------------------------------
 
          Ground-State Mulliken Net Atomic Charges

     Atom                 Charge (a.u.)    Spin (a.u.)
  --------------------------------------------------------
      1 C                     0.036346      -0.114998
      2 C                    -0.132032       0.351027
      3 C                    -0.110786       0.088610
      4 C                    -0.131157       0.342988
      5 C                     0.035072      -0.110213
      6 N                    -0.423421       0.386810
      7 H                     0.142540       0.003520
      8 H                     0.134297      -0.018520
      9 H                     0.142000      -0.006391
     10 H                     0.134430      -0.018149
     11 H                     0.142664       0.003282
     12 C                    -0.111866       0.098919
     13 H                     0.141913      -0.006885
  --------------------------------------------------------
  Sum of atomic charges =    -0.000000
  Sum of spin   charges =     1.000000

 -----------------------------------------------------------------
                    Cartesian Multipole Moments
 -----------------------------------------------------------------
    Charge (ESU x 10^10)
                -0.0000
    Dipole Moment (Debye)
         X      -1.0625      Y      -1.8304      Z       0.7447
       Tot       2.2436
    Quadrupole Moments (Debye-Ang)
        XX     -38.0012     XY      -3.5093     YY     -39.7346
        XZ      -2.4089     YZ       1.4354     ZZ     -42.2637
    Octopole Moments (Debye-Ang^2)
       XXX      -9.2821    XXY      -8.8786    XYY     -11.0307
       YYY     -25.2140    XXZ       2.7809    XYZ       2.9220
       YYZ       7.3470    XZZ      -3.5711    YZZ      -7.0117
       ZZZ       6.5847
    Hexadecapole Moments (Debye-Ang^3)
      XXXX    -315.1599   XXXY       2.0083   XXYY    -125.9664
      XYYY     -14.4788   YYYY    -394.6187   XXXZ      58.5357
      XXYZ       8.3104   XYYZ      25.6618   YYYZ      23.8076
      XXZZ     -70.4595   XYZZ       1.6742   YYZZ     -95.3778
      XZZZ      75.4055   YZZZ      17.2591   ZZZZ    -128.4336
 -----------------------------------------------------------------
 Calculating analytic gradient of the SCF energy
 Gradient of SCF Energy
            1           2           3           4           5           6
    1   0.0000004  -0.0000237   0.0000241   0.0000592  -0.0001658   0.0001270
    2   0.0002468  -0.0001204   0.0000337  -0.0000057   0.0000095  -0.0001419
    3   0.0000842   0.0000048   0.0000033  -0.0000002  -0.0000074  -0.0000670
            7           8           9          10          11          12
    1  -0.0000103  -0.0000091   0.0000050   0.0000049   0.0000158  -0.0000235
    2  -0.0000105   0.0000073  -0.0000098   0.0000153   0.0000064  -0.0000187
    3  -0.0000408  -0.0000229  -0.0000202   0.0000251   0.0000347   0.0000269
           13
    1  -0.0000041
    2  -0.0000119
    3  -0.0000203
 Max gradient component =       2.468E-04
 RMS gradient           =       6.492E-05
 Gradient time:  CPU 7.03 s  wall 1.86 s

STARTING FREEZING STRING ITERATION # 1
 The distance between the innermost nodes (Angstroms): 4.608
-Adding two new nodes
 The distance between the previous and current R_nodes (Angstroms): 0.2314
 The distance between the previous and current P_nodes (Angstroms): 0.2286
-Optimizing new reactant side node
 Using BFGS, step: 2 E_tol 0.0727
 max_steps 6, node_spacing 0.2194, sigma 0.7000
 ----------------------------------------------------------------
             Standard Nuclear Orientation (Angstroms)
    I     Atom           X                Y                Z
 ----------------------------------------------------------------
    1      C       1.5264942326     0.3447426359    -0.2865286914
    2      C       0.6651350093    -0.9022191102    -0.0806465212
    3      C      -0.4035376223    -0.5751705936    -1.1140533790
    4      C      -1.0102615068     0.5329132308     0.8058183454
    5      C      -0.5803080525     0.9467022286    -0.5991187645
    6      N       0.8596186288     1.3989040037    -0.5726484772
    7      H       2.6111691320     0.3603453350    -0.1955715264
    8      H       1.1628066209    -1.8715111355    -0.1079048247
    9      H      -1.2002739429    -1.2712348459    -1.3685012304
   10      H      -1.7518277190     1.0542178510     1.4009787619
   11      H      -1.2150585419     1.6691424691    -1.1100168717
   12      C      -0.3171351809    -0.5749029047     1.1355816319
   13      H      -0.3611761788    -1.1202170087     2.0720723270
 ----------------------------------------------------------------
 Nuclear Repulsion Energy =   277.0208195938 hartrees
 There are       25 alpha and       24 beta electrons

                       Distance Matrix (Angstroms)
             C (  1)   C (  2)   C (  3)   C (  4)   C (  5)   N (  6)
   C (  2)  1.529458
   C (  3)  2.292610  1.522154
   C (  4)  2.768350  2.377473  2.298232
   C (  5)  2.213297  2.288766  1.616324  1.526411
   N (  6)  1.279783  2.361156  2.405339  2.479226  1.509495
   H (  7)  1.088594  2.322569  3.287439  3.761292  3.269892  2.070923
   H (  8)  2.252988  1.089930  2.268539  3.367250  3.349935  3.317156
   H (  9)  3.349226  2.296626  1.088135  2.831735  2.428076  3.464994
   H ( 10)  3.754788  3.444498  3.286058  1.084387  2.320433  3.291453
   H ( 11)  3.154089  3.347631  2.386530  2.236824  1.088965  2.160111
   C ( 12)  2.503421  1.597248  2.251294  1.347748  2.322440  2.863340
   H ( 13)  3.357440  2.394794  3.232687  2.181181  3.384588  3.851085
             H (  7)   H (  8)   H (  9)   H ( 10)   H ( 11)   C ( 12)
   H (  8)  2.662071
   H (  9)  4.308702  2.744738
   H ( 10)  4.697465  4.396784  3.658136
   H ( 11)  4.145983  4.381176  2.951754  2.640332
   C ( 12)  3.349869  2.327591  2.745040  2.186964  3.299200
   H ( 13)  4.021083  2.763922  3.544635  2.666917  4.316866  1.084584

 
 Applying Cartesian multipole field
    Component          Value
    ---------          -----
     (2,0,0)        1.00000E-11
     (0,2,0)        2.00000E-11
     (0,0,2)       -3.00000E-11
 Nucleus-field energy     =     0.0000000010 hartrees
 Requested basis set is 6-31G(d)
 There are 40 shells and 117 basis functions
 A cutoff of  1.0D-14 yielded    813 shell pairs
 There are      7085 function pairs
 Smallest overlap matrix eigenvalue = 1.19E-03
 Guess MOs from core Hamiltonian diagonalization
 Mixing HOMO and LUMO in initial guess
 Adding  50% of the LUMO to the HOMO
 An unrestricted hybrid HF-DFT SCF calculation will be
 performed using Pulay DIIS extrapolation
 Exchange:     0.2000 Hartree-Fock + 0.0800 Slater + 0.7200 B88
 Correlation:  0.1900 VWN1RPA + 0.8100 LYP
 Using SG-1 standard quadrature grid
 SCF converges when DIIS error is below 1.0E-08
 using 4 threads for integral computing
 -------------------------------------------------------
 OpenMP Integral computing Module                
 Release: version 1.0, May 2013, Q-Chem Inc. Pittsburgh 
 -------------------------------------------------------
 -------------------------------------------------------
 OpenMP BLAS3 based DFT computing Module                
 Release: version 1.0, May 2013, Q-Chem Inc. Pittsburgh 
 -------------------------------------------------------
 ---------------------------------------
  Cycle       Energy         DIIS Error
 ---------------------------------------
    1    -234.7912539255      1.37E-01
    2    -230.6904340926      9.99E-02
    3    -248.9253205812      1.14E-01
    4    -282.3077548307      4.34E-02
    5    -282.5364499611      4.27E-02
    6    -286.3885132570      1.42E-02
    7    -286.7134748985      8.07E-03
    8    -286.8294674762      2.90E-03
    9    -286.8412802182      1.44E-03
   10    -286.8441773535      6.39E-04
   11    -286.8448615522      1.45E-04
   12    -286.8449083002      4.44E-05
   13    -286.8449133460      1.76E-05
   14    -286.8449147664      4.62E-06
   15    -286.8449149830      1.28E-06
   16    -286.8449150110      4.05E-07
   17    -286.8449150162      8.41E-08
   18    -286.8449150176      5.15E-08
   19    -286.8449150182      3.52E-08
   20    -286.8449150185      1.22E-08
   21    -286.8449150186      2.94E-09 Convergence criterion met
 ---------------------------------------
 <S^2> = 0.7540
 SCF time:  CPU 49.81 s  wall 12.62 s
 SCF   energy in the final basis set = -286.84491502
 Total energy in the final basis set = -286.84491502
 
 --------------------------------------------------------------
 
                    Orbital Energies (a.u.)
 --------------------------------------------------------------
 
 Alpha MOs
 -- Occupied --
-14.322 -10.226 -10.224 -10.214 -10.207 -10.206 -10.199  -0.946
 -0.817  -0.732  -0.692  -0.584  -0.574  -0.526  -0.510  -0.467
 -0.420  -0.409  -0.380  -0.378  -0.341  -0.292  -0.273  -0.259
 -0.185
 -- Virtual --
 -0.021   0.024   0.104   0.134   0.142   0.150   0.159   0.165
  0.170   0.203   0.205   0.249   0.288   0.313   0.352   0.368
  0.496   0.503   0.524   0.540   0.579   0.586   0.599   0.615
  0.629   0.645   0.652   0.687   0.698   0.730   0.774   0.794
  0.805   0.818   0.825   0.847   0.860   0.874   0.892   0.940
  0.964   1.007   1.056   1.091   1.189   1.250   1.322   1.339
  1.388   1.393   1.475   1.516   1.574   1.616   1.659   1.720
  1.743   1.777   1.796   1.884   1.952   1.987   2.002   2.045
  2.083   2.127   2.132   2.188   2.239   2.261   2.293   2.324
  2.414   2.443   2.504   2.525   2.561   2.603   2.621   2.636
  2.711   2.812   2.847   2.900   2.939   3.917   4.171   4.262
  4.268   4.392   4.520   4.656
 
 Beta MOs
 -- Occupied --
-14.322 -10.226 -10.224 -10.214 -10.204 -10.198 -10.193  -0.944
 -0.811  -0.729  -0.679  -0.580  -0.562  -0.522  -0.508  -0.458
 -0.416  -0.405  -0.378  -0.374  -0.334  -0.283  -0.265  -0.255
 -- Virtual --
 -0.036  -0.015   0.027   0.105   0.141   0.144   0.156   0.160
  0.166   0.172   0.209   0.211   0.259   0.290   0.315   0.354
  0.370   0.498   0.523   0.531   0.547   0.584   0.590   0.604
  0.619   0.634   0.654   0.670   0.691   0.703   0.742   0.779
  0.797   0.814   0.820   0.827   0.849   0.862   0.877   0.896
  0.942   0.970   1.017   1.058   1.098   1.192   1.252   1.327
  1.346   1.393   1.396   1.477   1.520   1.589   1.624   1.665
  1.723   1.753   1.782   1.803   1.902   1.957   2.002   2.012
  2.052   2.098   2.131   2.140   2.204   2.256   2.267   2.296
  2.327   2.418   2.458   2.507   2.534   2.566   2.614   2.626
  2.639   2.718   2.814   2.850   2.901   2.941   3.918   4.174
  4.269   4.290   4.394   4.526   4.657
 --------------------------------------------------------------
 
          Ground-State Mulliken Net Atomic Charges

     Atom                 Charge (a.u.)    Spin (a.u.)
  --------------------------------------------------------
      1 C                     0.099564      -0.005844
      2 C                    -0.242114      -0.047230
      3 C                    -0.109110       0.980964
      4 C                    -0.079137       0.042499
      5 C                    -0.096072      -0.043322
      6 N                    -0.326955       0.012566
      7 H                     0.148755      -0.000204
      8 H                     0.138670       0.003237
      9 H                     0.140641      -0.030069
     10 H                     0.149021      -0.000698
     11 H                     0.141619       0.001990
     12 C                    -0.109838       0.082629
     13 H                     0.144955       0.003483
  --------------------------------------------------------
  Sum of atomic charges =    -0.000000
  Sum of spin   charges =     1.000000

 -----------------------------------------------------------------
                    Cartesian Multipole Moments
 -----------------------------------------------------------------
    Charge (ESU x 10^10)
                -0.0000
    Dipole Moment (Debye)
         X      -0.7417      Y      -1.9346      Z       1.1851
       Tot       2.3869
    Quadrupole Moments (Debye-Ang)
        XX     -37.5085     XY      -4.1305     YY     -42.6278
        XZ       0.6635     YZ       0.6457     ZZ     -41.3235
    Octopole Moments (Debye-Ang^2)
       XXX      -4.0396    XXY      -5.5112    XYY     -10.4701
       YYY     -26.6031    XXZ       3.7962    XYZ       0.7003
       YYZ       5.9365    XZZ      -7.5800    YZZ      -7.3443
       ZZZ      17.4336
    Hexadecapole Moments (Debye-Ang^3)
      XXXX    -236.7196   XXXY      -5.8936   XXYY     -82.6272
      XYYY     -18.5798   YYYY    -247.8449   XXXZ      21.7173
      XXYZ      10.6000   XYYZ      12.5780   YYYZ      22.0729
      XXZZ     -75.7639   XYZZ      -3.2591   YYZZ     -71.6770
      XZZZ      21.8308   YZZZ      12.2039   ZZZZ    -207.8613
 -----------------------------------------------------------------
 Calculating analytic gradient of the SCF energy
 Gradient of SCF Energy
            1           2           3           4           5           6
    1  -0.0001127   0.0226051  -0.0031421  -0.0049470  -0.0055400   0.0014895
    2  -0.0035643  -0.0106382  -0.0278925   0.0071916   0.0303664   0.0055560
    3  -0.0008898  -0.0112670   0.0091317  -0.0011356   0.0059039  -0.0007448
            7           8           9          10          11          12
    1  -0.0002750   0.0017980   0.0029542  -0.0001786   0.0003605  -0.0139088
    2  -0.0001996   0.0001352  -0.0036650   0.0005901   0.0037177  -0.0032184
    3  -0.0009108  -0.0031479  -0.0016120  -0.0008695   0.0028739   0.0023232
           13
    1  -0.0011032
    2   0.0016208
    3   0.0003448
 Max gradient component =       3.037E-02
 RMS gradient           =       8.785E-03
 Gradient time:  CPU 7.85 s  wall 2.01 s
 ----------------------------------------------------------------
             Standard Nuclear Orientation (Angstroms)
    I     Atom           X                Y                Z
 ----------------------------------------------------------------
    1      C       1.5275777500     0.3482696122    -0.2881224820
    2      C       0.6481633623    -0.8927180124    -0.0714032995
    3      C      -0.4015910042    -0.5546313451    -1.1182871191
    4      C      -1.0058839245     0.5290810555     0.8068912353
    5      C      -0.5740007178     0.9233286381    -0.6021457577
    6      N       0.8591193857     1.3948891433    -0.5713376817
    7      H       2.6128261005     0.3607754904    -0.2022502098
    8      H       1.1685267772    -1.8713547458    -0.1084670700
    9      H      -1.2004592541    -1.2795340446    -1.3600761112
   10      H      -1.7543571503     1.0550630289     1.4005935333
   11      H      -1.2130633540     1.6750176581    -1.1075809007
   12      C      -0.3087403887    -0.5725851624     1.1321320729
   13      H      -0.3724743237    -1.1238884409     2.0695154115
 ----------------------------------------------------------------
 Nuclear Repulsion Energy =   278.0436167243 hartrees
 There are       25 alpha and       24 beta electrons

                       Distance Matrix (Angstroms)
             C (  1)   C (  2)   C (  3)   C (  4)   C (  5)   N (  6)
   C (  2)  1.536355
   C (  3)  2.286066  1.520609
   C (  4)  2.765895  2.351337  2.290396
   C (  5)  2.201349  2.252420  1.574958  1.525562
   N (  6)  1.273758  2.351081  2.385199  2.475354  1.509023
   H (  7)  1.088712  2.334152  3.280824  3.760553  3.260713  2.069083
   H (  8)  2.255643  1.109000  2.284462  3.365715  3.330222  3.313356
   H (  9)  3.352762  2.286419  1.105503  2.829257  2.412367  3.466484
   H ( 10)  3.757980  3.425307  3.281136  1.090574  2.328424  3.291543
   H ( 11)  3.153234  3.336330  2.372749  2.240825  1.108559  2.158696
   C ( 12)  2.497431  1.570556  2.252405  1.343674  2.305611  2.852483
   H ( 13)  3.366883  2.382997  3.238362  2.174336  3.371867  3.851645
             H (  7)   H (  8)   H (  9)   H ( 10)   H ( 11)   C ( 12)
   H (  8)  2.660301
   H (  9)  4.309562  2.743879
   H ( 10)  4.703555  4.402776  3.657655
   H ( 11)  4.145393  4.387135  2.965348  2.639750
   C ( 12)  3.344740  2.325555  2.739715  2.193426  3.299369
   H ( 13)  4.034497  2.770740  3.531555  2.665499  4.316759  1.089351

 
 Applying Cartesian multipole field
    Component          Value
    ---------          -----
     (2,0,0)        1.00000E-11
     (0,2,0)        2.00000E-11
     (0,0,2)       -3.00000E-11
 Nucleus-field energy     =     0.0000000009 hartrees
 Requested basis set is 6-31G(d)
 There are 40 shells and 117 basis functions
 A cutoff of  1.0D-14 yielded    814 shell pairs
 There are      7086 function pairs
 Smallest overlap matrix eigenvalue = 1.12E-03
 Guess MOs from core Hamiltonian diagonalization
 Mixing HOMO and LUMO in initial guess
 Adding  50% of the LUMO to the HOMO
 An unrestricted hybrid HF-DFT SCF calculation will be
 performed using Pulay DIIS extrapolation
 Exchange:     0.2000 Hartree-Fock + 0.0800 Slater + 0.7200 B88
 Correlation:  0.1900 VWN1RPA + 0.8100 LYP
 Using SG-1 standard quadrature grid
 SCF converges when DIIS error is below 1.0E-08
 using 4 threads for integral computing
 -------------------------------------------------------
 OpenMP Integral computing Module                
 Release: version 1.0, May 2013, Q-Chem Inc. Pittsburgh 
 -------------------------------------------------------
 -------------------------------------------------------
 OpenMP BLAS3 based DFT computing Module                
 Release: version 1.0, May 2013, Q-Chem Inc. Pittsburgh 
 -------------------------------------------------------
 ---------------------------------------
  Cycle       Energy         DIIS Error
 ---------------------------------------
    1    -234.7030901481      1.38E-01
    2    -230.3562881028      1.00E-01
    3    -249.5125506524      1.13E-01
    4    -282.3463773780      4.32E-02
    5    -282.4994072586      4.28E-02
    6    -286.3584634587      1.46E-02
    7    -286.6737234439      8.96E-03
    8    -286.8301737404      2.83E-03
    9    -286.8421577681      1.63E-03
   10    -286.8467583016      3.80E-04
   11    -286.8469794623      2.40E-04
   12    -286.8470898671      5.27E-05
   13    -286.8471023910      2.49E-05
   14    -286.8471060462      6.90E-06
   15    -286.8471069528      2.53E-06
   16    -286.8471071909      9.81E-07
   17    -286.8471073072      4.75E-07
   18    -286.8471073713      3.16E-07
   19    -286.8471074155      1.07E-07
   20    -286.8471074185      9.19E-09 Convergence criterion met
 ---------------------------------------
 <S^2> = 0.7538
 SCF time:  CPU 47.96 s  wall 12.76 s
 SCF   energy in the final basis set = -286.84710742
 Total energy in the final basis set = -286.84710742
 
 --------------------------------------------------------------
 
                    Orbital Energies (a.u.)
 --------------------------------------------------------------
 
 Alpha MOs
 -- Occupied --
-14.322 -10.226 -10.223 -10.214 -10.207 -10.205 -10.199  -0.952
 -0.822  -0.729  -0.696  -0.581  -0.573  -0.526  -0.509  -0.469
 -0.419  -0.407  -0.378  -0.376  -0.344  -0.293  -0.275  -0.259
 -0.189
 -- Virtual --
 -0.020   0.025   0.099   0.134   0.144   0.149   0.157   0.164
  0.168   0.209   0.211   0.252   0.289   0.316   0.350   0.367
  0.495   0.505   0.526   0.542   0.576   0.594   0.601   0.617
  0.633   0.645   0.653   0.688   0.699   0.729   0.777   0.788
  0.798   0.815   0.821   0.842   0.857   0.873   0.892   0.928
  0.959   1.002   1.060   1.092   1.194   1.253   1.320   1.344
  1.389   1.399   1.480   1.519   1.574   1.616   1.661   1.724
  1.760   1.791   1.802   1.883   1.953   1.984   1.997   2.047
  2.089   2.132   2.147   2.201   2.238   2.276   2.302   2.330
  2.418   2.454   2.508   2.524   2.562   2.613   2.626   2.640
  2.718   2.823   2.852   2.899   2.943   3.921   4.174   4.264
  4.270   4.394   4.527   4.671
 
 Beta MOs
 -- Occupied --
-14.321 -10.226 -10.223 -10.214 -10.203 -10.198 -10.193  -0.949
 -0.816  -0.727  -0.683  -0.579  -0.560  -0.522  -0.507  -0.461
 -0.416  -0.403  -0.375  -0.374  -0.338  -0.285  -0.265  -0.256
 -- Virtual --
 -0.039  -0.014   0.027   0.100   0.140   0.147   0.153   0.158
  0.166   0.171   0.215   0.217   0.263   0.291   0.318   0.352
  0.370   0.497   0.525   0.533   0.548   0.584   0.598   0.605
  0.620   0.638   0.656   0.667   0.692   0.704   0.741   0.781
  0.790   0.808   0.818   0.823   0.844   0.858   0.876   0.895
  0.929   0.965   1.012   1.062   1.099   1.198   1.254   1.324
  1.350   1.393   1.404   1.482   1.522   1.588   1.623   1.668
  1.727   1.769   1.795   1.810   1.902   1.958   1.998   2.008
  2.052   2.108   2.136   2.154   2.217   2.256   2.280   2.305
  2.333   2.422   2.469   2.513   2.533   2.566   2.624   2.633
  2.644   2.725   2.826   2.855   2.900   2.945   3.922   4.176
  4.269   4.294   4.396   4.533   4.672
 --------------------------------------------------------------
 
          Ground-State Mulliken Net Atomic Charges

     Atom                 Charge (a.u.)    Spin (a.u.)
  --------------------------------------------------------
      1 C                     0.096393      -0.007417
      2 C                    -0.243833      -0.045261
      3 C                    -0.104496       0.974430
      4 C                    -0.080035       0.045222
      5 C                    -0.096659      -0.042700
      6 N                    -0.324221       0.015550
      7 H                     0.148928      -0.000159
      8 H                     0.135551       0.003532
      9 H                     0.139153      -0.027967
     10 H                     0.148994      -0.000396
     11 H                     0.139345       0.002485
     12 C                    -0.103553       0.080250
     13 H                     0.144434       0.002431
  --------------------------------------------------------
  Sum of atomic charges =    -0.000000
  Sum of spin   charges =     1.000000

 -----------------------------------------------------------------
                    Cartesian Multipole Moments
 -----------------------------------------------------------------
    Charge (ESU x 10^10)
                -0.0000
    Dipole Moment (Debye)
         X      -0.7226      Y      -1.9279      Z       1.1912
       Tot       2.3786
    Quadrupole Moments (Debye-Ang)
        XX     -37.5163     XY      -3.9874     YY     -42.7480
        XZ       0.5545     YZ       0.6833     ZZ     -41.3404
    Octopole Moments (Debye-Ang^2)
       XXX      -3.8900    XXY      -5.4852    XYY     -10.4688
       YYY     -26.5222    XXZ       3.9098    XYZ       0.6635
       YYZ       6.0484    XZZ      -7.5151    YZZ      -7.3577
       ZZZ      17.4694
    Hexadecapole Moments (Debye-Ang^3)
      XXXX    -235.6700   XXXY      -5.9872   XXYY     -82.0806
      XYYY     -18.4374   YYYY    -245.9691   XXXZ      21.1064
      XXYZ      10.7019   XYYZ      12.3243   YYYZ      22.4409
      XXZZ     -75.6960   XYZZ      -3.2701   YYZZ     -71.4576
      XZZZ      21.2741   YZZZ      12.5425   ZZZZ    -208.2160
 -----------------------------------------------------------------
 Calculating analytic gradient of the SCF energy
 Gradient of SCF Energy
            1           2           3           4           5           6
    1  -0.0016259   0.0031132   0.0044782   0.0005957   0.0080323   0.0018974
    2   0.0018425   0.0042234  -0.0088448   0.0024302   0.0042171   0.0001128
    3  -0.0039458  -0.0060631   0.0111179  -0.0018978   0.0097368   0.0018863
            7           8           9          10          11          12
    1  -0.0001730   0.0087695  -0.0038954  -0.0033897  -0.0055330  -0.0093623
    2   0.0002652  -0.0091321  -0.0123201   0.0025922   0.0128513   0.0014629
    3  -0.0011468  -0.0036454  -0.0025398   0.0015713  -0.0015800  -0.0066207
           13
    1  -0.0029069
    2   0.0002994
    3   0.0031271
 Max gradient component =       1.285E-02
 RMS gradient           =       5.596E-03
 Gradient time:  CPU 8.05 s  wall 2.73 s
 FSM gradient convergence criteria satisfied
done with opt_step_by_gradient, Reactant, iter1
-Optimizing new product side node
 Using BFGS, step: 2 E_tol 0.0727112
 max_steps 6, node_spacing 0.2194146, sigma 0.7000000
 ----------------------------------------------------------------
             Standard Nuclear Orientation (Angstroms)
    I     Atom           X                Y                Z
 ----------------------------------------------------------------
    1      C       1.4774049764     0.3077926634    -0.7705495188
    2      C       1.1037662531    -0.9857089672    -0.4447260684
    3      C      -0.1324766860    -1.4500499467     0.1070719189
    4      C      -1.2258828753     0.7676548534     0.5710193007
    5      C      -0.3469947017     1.6399809446    -0.0477688637
    6      N       0.8800326077     1.5016902740    -0.6123751000
    7      H       2.4539643183     0.4007441553    -1.2514747283
    8      H       1.8101740482    -1.7630323296    -0.7291711888
    9      H      -0.2243352150    -2.5235434937     0.2596103121
   10      H      -2.1169615652     1.2197531161     1.0012794453
   11      H      -0.6586570413     2.6871009547    -0.0325243400
   12      C      -1.1028694867    -0.6489512131     0.7144549235
   13      H      -1.9202078422    -1.1501787708     1.2304269789
 ----------------------------------------------------------------
 Nuclear Repulsion Energy =   260.6095621569 hartrees
 There are       25 alpha and       24 beta electrons

                       Distance Matrix (Angstroms)
             C (  1)   C (  2)   C (  3)   C (  4)   C (  5)   N (  6)
   C (  2)  1.385248
   C (  3)  2.540069  1.431220
   C (  4)  3.052711  3.087602  2.515750
   C (  5)  2.371829  3.025976  3.101336  1.384303
   N (  6)  1.344345  2.503062  3.202429  2.524700  1.357756
   H (  7)  1.092519  2.096695  3.458434  4.122788  3.290895  2.024300
   H (  8)  2.097800  1.088188  2.138025  4.160831  4.086341  3.396648
   H (  9)  3.460291  2.150553  1.088161  3.454281  4.176657  4.264094
   H ( 10)  4.109808  4.162701  3.444653  1.087905  2.099971  3.415457
   H ( 11)  3.281547  4.094579  4.172813  2.090522  1.092624  2.027065
   C ( 12)  3.127045  2.515223  1.397260  1.429153  2.528150  3.212108
   H ( 13)  4.203970  3.460868  2.132565  2.143593  3.448735  4.274304
             H (  7)   H (  8)   H (  9)   H ( 10)   H ( 11)   C ( 12)
   H (  8)  2.317152
   H (  9)  4.243598  2.386482
   H ( 10)  5.161302  5.226267  4.259622
   H ( 11)  4.049899  5.136548  5.236869  2.312685
   C ( 12)  4.197357  3.436722  2.119623  2.145392  3.447397
   H ( 13)  5.262944  4.258094  2.388430  2.389100  4.232171  1.088806

 
 Applying Cartesian multipole field
    Component          Value
    ---------          -----
     (2,0,0)        1.00000E-11
     (0,2,0)        2.00000E-11
     (0,0,2)       -3.00000E-11
 Nucleus-field energy     =     0.0000000058 hartrees
 Requested basis set is 6-31G(d)
 There are 40 shells and 117 basis functions
 A cutoff of  1.0D-14 yielded    791 shell pairs
 There are      7063 function pairs
 Smallest overlap matrix eigenvalue = 1.66E-03
 Guess MOs from core Hamiltonian diagonalization
 Mixing HOMO and LUMO in initial guess
 Adding  50% of the LUMO to the HOMO
 An unrestricted hybrid HF-DFT SCF calculation will be
 performed using Pulay DIIS extrapolation
 Exchange:     0.2000 Hartree-Fock + 0.0800 Slater + 0.7200 B88
 Correlation:  0.1900 VWN1RPA + 0.8100 LYP
 Using SG-1 standard quadrature grid
 SCF converges when DIIS error is below 1.0E-08
 using 4 threads for integral computing
 -------------------------------------------------------
 OpenMP Integral computing Module                
 Release: version 1.0, May 2013, Q-Chem Inc. Pittsburgh 
 -------------------------------------------------------
 -------------------------------------------------------
 OpenMP BLAS3 based DFT computing Module                
 Release: version 1.0, May 2013, Q-Chem Inc. Pittsburgh 
 -------------------------------------------------------
 ---------------------------------------
  Cycle       Energy         DIIS Error
 ---------------------------------------
    1    -239.3513765344      1.26E-01
    2    -227.5761167974      1.03E-01
    3    -250.6598973004      1.06E-01
    4    -283.3185980583      4.26E-02
    5    -282.4873701331      4.33E-02
    6    -286.3989154999      1.44E-02
    7    -286.5388930644      1.29E-02
    8    -286.8990060137      3.14E-03
    9    -286.9126722921      2.03E-03
   10    -286.9198034548      2.59E-04
   11    -286.9200142009      1.74E-04
   12    -286.9201039883      7.07E-05
   13    -286.9201485345      3.33E-05
   14    -286.9201698536      1.72E-05
   15    -286.9201789770      5.16E-06
   16    -286.9201809111      2.78E-06
   17    -286.9201815569      1.65E-06
   18    -286.9201817603      1.62E-06
   19    -286.9201818521      1.05E-06
   20    -286.9201819275      4.35E-07
   21    -286.9201819341      7.97E-08
   22    -286.9201819344      1.62E-08
   23    -286.9201819344      6.52E-09 Convergence criterion met
 ---------------------------------------
 <S^2> = 0.7668
 SCF time:  CPU 52.87 s  wall 13.58 s
 SCF   energy in the final basis set = -286.92018193
 Total energy in the final basis set = -286.92018193
 
 --------------------------------------------------------------
 
                    Orbital Energies (a.u.)
 --------------------------------------------------------------
 
 Alpha MOs
 -- Occupied --
-14.321 -10.233 -10.233 -10.215 -10.214 -10.200 -10.199  -0.923
 -0.816  -0.785  -0.689  -0.670  -0.552  -0.535  -0.517  -0.449
 -0.439  -0.416  -0.395  -0.382  -0.351  -0.320  -0.299  -0.251
 -0.158
 -- Virtual --
 -0.076   0.076   0.093   0.097   0.117   0.143   0.179   0.185
  0.194   0.219   0.260   0.321   0.354   0.394   0.402   0.487
  0.497   0.519   0.546   0.575   0.579   0.584   0.591   0.609
  0.618   0.620   0.645   0.659   0.705   0.717   0.817   0.841
  0.844   0.850   0.866   0.871   0.886   0.922   0.948   0.987
  1.016   1.027   1.030   1.127   1.161   1.177   1.247   1.297
  1.328   1.353   1.443   1.461   1.477   1.548   1.569   1.585
  1.700   1.735   1.780   1.829   1.848   1.915   1.921   2.009
  2.050   2.058   2.115   2.131   2.149   2.194   2.248   2.379
  2.400   2.420   2.438   2.549   2.563   2.595   2.602   2.736
  2.753   2.791   3.041   3.212   3.250   4.021   4.044   4.106
  4.191   4.241   4.534   4.572
 
 Beta MOs
 -- Occupied --
-14.314 -10.234 -10.234 -10.214 -10.212 -10.196 -10.195  -0.913
 -0.807  -0.778  -0.677  -0.668  -0.547  -0.533  -0.514  -0.447
 -0.437  -0.412  -0.379  -0.373  -0.350  -0.292  -0.276  -0.242
 -- Virtual --
 -0.075  -0.074   0.078   0.117   0.118   0.123   0.143   0.181
  0.188   0.196   0.224   0.262   0.326   0.357   0.396   0.406
  0.490   0.505   0.523   0.550   0.584   0.586   0.589   0.596
  0.614   0.623   0.624   0.648   0.675   0.708   0.728   0.818
  0.843   0.845   0.867   0.871   0.879   0.888   0.925   0.952
  0.991   1.019   1.029   1.032   1.132   1.165   1.181   1.254
  1.307   1.338   1.362   1.446   1.467   1.488   1.561   1.576
  1.596   1.707   1.739   1.793   1.831   1.852   1.918   1.929
  2.015   2.062   2.068   2.124   2.135   2.153   2.205   2.260
  2.392   2.407   2.431   2.440   2.561   2.572   2.600   2.612
  2.744   2.761   2.793   3.043   3.215   3.253   4.033   4.050
  4.112   4.196   4.242   4.539   4.578
 --------------------------------------------------------------
 
          Ground-State Mulliken Net Atomic Charges

     Atom                 Charge (a.u.)    Spin (a.u.)
  --------------------------------------------------------
      1 C                     0.041073      -0.111893
      2 C                    -0.135043       0.350998
      3 C                    -0.114396       0.086778
      4 C                    -0.129867       0.314441
      5 C                     0.035149      -0.094555
      6 N                    -0.422881       0.375764
      7 H                     0.143183       0.003484
      8 H                     0.133256      -0.018579
      9 H                     0.142791      -0.005798
     10 H                     0.136201      -0.016783
     11 H                     0.142189       0.002590
     12 C                    -0.114224       0.120693
     13 H                     0.142569      -0.007140
  --------------------------------------------------------
  Sum of atomic charges =    -0.000000
  Sum of spin   charges =     1.000000

 -----------------------------------------------------------------
                    Cartesian Multipole Moments
 -----------------------------------------------------------------
    Charge (ESU x 10^10)
                -0.0000
    Dipole Moment (Debye)
         X      -1.0773      Y      -1.8205      Z       0.7291
       Tot       2.2375
    Quadrupole Moments (Debye-Ang)
        XX     -38.0529     XY      -3.4650     YY     -39.8518
        XZ      -2.4963     YZ       1.3874     ZZ     -42.1831
    Octopole Moments (Debye-Ang^2)
       XXX      -8.5577    XXY      -8.5099    XYY     -11.2141
       YYY     -25.4741    XXZ       3.1299    XYZ       2.9759
       YYZ       6.9683    XZZ      -3.9744    YZZ      -6.9417
       ZZZ       7.1997
    Hexadecapole Moments (Debye-Ang^3)
      XXXX    -316.4383   XXXY       1.3200   XXYY    -126.0275
      XYYY     -14.9333   YYYY    -392.9789   XXXZ      58.5329
      XXYZ       7.9782   XYYZ      25.8837   YYYZ      23.2739
      XXZZ     -70.5956   XYZZ       1.6058   YYZZ     -95.2267
      XZZZ      75.3768   YZZZ      16.7240   ZZZZ    -129.0060
 -----------------------------------------------------------------
 Calculating analytic gradient of the SCF energy
 Gradient of SCF Energy
            1           2           3           4           5           6
    1  -0.0026700  -0.0004360   0.0149129  -0.0042270  -0.0006268   0.0056157
    2   0.0032857   0.0035489  -0.0167223  -0.0075614  -0.0042860  -0.0020711
    3  -0.0018978   0.0138583  -0.0328844  -0.0010767  -0.0064337   0.0024316
            7           8           9          10          11          12
    1  -0.0007744  -0.0007400   0.0004277  -0.0002846   0.0015110  -0.0118622
    2   0.0008797  -0.0007935   0.0000737  -0.0004932   0.0005540   0.0226894
    3  -0.0014067  -0.0001054   0.0022652   0.0007298   0.0010845   0.0226060
           13
    1  -0.0008464
    2   0.0008961
    3   0.0008294
 Max gradient component =       3.288E-02
 RMS gradient           =       9.017E-03
 Gradient time:  CPU 7.44 s  wall 1.90 s
 ----------------------------------------------------------------
             Standard Nuclear Orientation (Angstroms)
    I     Atom           X                Y                Z
 ----------------------------------------------------------------
    1      C       1.4830601984     0.3029972441    -0.7642856954
    2      C       1.1070390053    -0.9902281505    -0.4580899480
    3      C      -0.1682485535    -1.4236777005     0.1387768179
    4      C      -1.2181225796     0.7791883992     0.5740050955
    5      C      -0.3492260717     1.6449889570    -0.0439798422
    6      N       0.8716981124     1.5051364375    -0.6155257047
    7      H       2.4574131077     0.4003615320    -1.2440793393
    8      H       1.8116645582    -1.7607189637    -0.7244961664
    9      H      -0.2317286325    -2.5243534283     0.2417561316
   10      H      -2.1151191070     1.2202434110     1.0019418989
   11      H      -0.6650159574     2.6839409559    -0.0431510715
   12      C      -1.0740868952    -0.6847874911     0.6921018408
   13      H      -1.9123712212    -1.1498399046     1.2402989377
 ----------------------------------------------------------------
 Nuclear Repulsion Energy =   261.0683547896 hartrees
 There are       25 alpha and       24 beta electrons

                       Distance Matrix (Angstroms)
             C (  1)   C (  2)   C (  3)   C (  4)   C (  5)   N (  6)
   C (  2)  1.381152
   C (  3)  2.554163  1.473257
   C (  4)  3.051912  3.098779  2.478765
   C (  5)  2.382657  3.039172  3.079427  1.373498
   N (  6)  1.356846  2.511377  3.198189  2.511839  1.355315
   H (  7)  1.090434  2.091657  3.483319  4.118070  3.296447  2.032265
   H (  8)  2.090093  1.077555  2.186068  4.161351  4.090403  3.400180
   H (  9)  3.456376  2.153050  1.107304  3.463633  4.180773  4.264888
   H ( 10)  4.111909  4.171352  3.394949  1.087319  2.095886  3.408584
   H ( 11)  3.286816  4.100228  4.141546  2.077232  1.085885  2.019575
   C ( 12)  3.104156  2.484662  1.293318  1.475777  2.548548  3.208074
   H ( 13)  4.202148  3.467973  2.080938  2.155708  3.450198  4.271303
             H (  7)   H (  8)   H (  9)   H ( 10)   H ( 11)   C ( 12)
   H (  8)  2.314568
   H (  9)  4.241833  2.385841
   H ( 10)  5.159929  5.223634  4.259935
   H ( 11)  4.050497  5.133535  5.234046  2.310288
   C ( 12)  4.171072  3.389976  2.072771  2.192919  3.472214
   H ( 13)  5.260254  4.254649  2.389756  2.390652  4.230959  1.104316

 
 Applying Cartesian multipole field
    Component          Value
    ---------          -----
     (2,0,0)        1.00000E-11
     (0,2,0)        2.00000E-11
     (0,0,2)       -3.00000E-11
 Nucleus-field energy     =     0.0000000058 hartrees
 Requested basis set is 6-31G(d)
 There are 40 shells and 117 basis functions
 A cutoff of  1.0D-14 yielded    791 shell pairs
 There are      7063 function pairs
 Smallest overlap matrix eigenvalue = 1.35E-03
 Guess MOs from core Hamiltonian diagonalization
 Mixing HOMO and LUMO in initial guess
 Adding  50% of the LUMO to the HOMO
 An unrestricted hybrid HF-DFT SCF calculation will be
 performed using Pulay DIIS extrapolation
 Exchange:     0.2000 Hartree-Fock + 0.0800 Slater + 0.7200 B88
 Correlation:  0.1900 VWN1RPA + 0.8100 LYP
 Using SG-1 standard quadrature grid
 SCF converges when DIIS error is below 1.0E-08
 using 4 threads for integral computing
 -------------------------------------------------------
 OpenMP Integral computing Module                
 Release: version 1.0, May 2013, Q-Chem Inc. Pittsburgh 
 -------------------------------------------------------
 -------------------------------------------------------
 OpenMP BLAS3 based DFT computing Module                
 Release: version 1.0, May 2013, Q-Chem Inc. Pittsburgh 
 -------------------------------------------------------
 ---------------------------------------
  Cycle       Energy         DIIS Error
 ---------------------------------------
    1    -240.4572458603      1.26E-01
    2    -230.8142564676      1.01E-01
    3    -250.2805006523      1.07E-01
    4    -284.2742975161      3.68E-02
    5    -283.3976652643      3.86E-02
    6    -286.6503538472      1.04E-02
    7    -286.7160188658      9.54E-03
    8    -286.9070723549      1.92E-03
    9    -286.9113710287      1.49E-03
   10    -286.9152305800      1.59E-04
   11    -286.9153393838      1.02E-04
   12    -286.9153800287      4.26E-05
   13    -286.9154133216      1.51E-05
   14    -286.9154238154      8.37E-06
   15    -286.9154263214      2.61E-06
   16    -286.9154271235      8.26E-07
   17    -286.9154272116      2.59E-07
   18    -286.9154272148      1.27E-07
   19    -286.9154272158      6.34E-08
   20    -286.9154272161      5.20E-08
   21    -286.9154272162      2.03E-08
   22    -286.9154272162      4.60E-09 Convergence criterion met
 ---------------------------------------
 <S^2> = 0.7728
 SCF time:  CPU 50.78 s  wall 13.16 s
 SCF   energy in the final basis set = -286.91542722
 Total energy in the final basis set = -286.91542722
 
 --------------------------------------------------------------
 
                    Orbital Energies (a.u.)
 --------------------------------------------------------------
 
 Alpha MOs
 -- Occupied --
-14.324 -10.229 -10.227 -10.208 -10.207 -10.203 -10.203  -0.921
 -0.824  -0.782  -0.699  -0.661  -0.549  -0.536  -0.520  -0.448
 -0.438  -0.410  -0.397  -0.394  -0.339  -0.325  -0.297  -0.253
 -0.170
 -- Virtual --
 -0.063   0.073   0.095   0.102   0.118   0.140   0.179   0.184
  0.194   0.205   0.276   0.316   0.359   0.384   0.419   0.479
  0.494   0.514   0.546   0.576   0.579   0.585   0.594   0.612
  0.618   0.647   0.651   0.657   0.713   0.718   0.825   0.830
  0.848   0.850   0.867   0.874   0.882   0.924   0.962   0.972
  1.019   1.031   1.055   1.126   1.174   1.188   1.284   1.304
  1.327   1.358   1.449   1.463   1.481   1.547   1.578   1.587
  1.693   1.713   1.779   1.824   1.856   1.914   1.928   2.019
  2.041   2.069   2.102   2.148   2.153   2.203   2.246   2.379
  2.407   2.437   2.462   2.552   2.585   2.599   2.609   2.729
  2.756   2.833   3.044   3.240   3.253   4.014   4.051   4.092
  4.214   4.234   4.532   4.581
 
 Beta MOs
 -- Occupied --
-14.316 -10.231 -10.229 -10.207 -10.206 -10.198 -10.198  -0.910
 -0.815  -0.775  -0.687  -0.658  -0.544  -0.533  -0.517  -0.446
 -0.437  -0.407  -0.393  -0.373  -0.337  -0.300  -0.273  -0.243
 -- Virtual --
 -0.083  -0.061   0.075   0.119   0.123   0.125   0.139   0.181
  0.188   0.196   0.210   0.278   0.321   0.363   0.386   0.422
  0.482   0.503   0.518   0.551   0.581   0.586   0.590   0.600
  0.616   0.622   0.651   0.653   0.675   0.715   0.729   0.826
  0.832   0.848   0.868   0.873   0.882   0.886   0.926   0.964
  0.975   1.022   1.032   1.058   1.132   1.178   1.193   1.293
  1.313   1.336   1.367   1.452   1.470   1.492   1.561   1.586
  1.598   1.699   1.721   1.789   1.827   1.859   1.917   1.937
  2.033   2.047   2.080   2.112   2.148   2.158   2.215   2.258
  2.388   2.418   2.447   2.465   2.566   2.594   2.609   2.613
  2.733   2.766   2.836   3.047   3.243   3.256   4.026   4.058
  4.100   4.218   4.233   4.537   4.587
 --------------------------------------------------------------
 
          Ground-State Mulliken Net Atomic Charges

     Atom                 Charge (a.u.)    Spin (a.u.)
  --------------------------------------------------------
      1 C                     0.032425      -0.135064
      2 C                    -0.133450       0.382950
      3 C                    -0.108357       0.070605
      4 C                    -0.131801       0.372670
      5 C                     0.031962      -0.130151
      6 N                    -0.418562       0.401706
      7 H                     0.141273       0.004575
      8 H                     0.137423      -0.019828
      9 H                     0.137417      -0.005265
     10 H                     0.137200      -0.019397
     11 H                     0.140154       0.004318
     12 C                    -0.105308       0.078327
     13 H                     0.139625      -0.005447
  --------------------------------------------------------
  Sum of atomic charges =     0.000000
  Sum of spin   charges =     1.000000

 -----------------------------------------------------------------
                    Cartesian Multipole Moments
 -----------------------------------------------------------------
    Charge (ESU x 10^10)
                 0.0000
    Dipole Moment (Debye)
         X      -1.0508      Y      -1.8443      Z       0.7410
       Tot       2.2482
    Quadrupole Moments (Debye-Ang)
        XX     -37.9069     XY      -3.6507     YY     -39.9674
        XZ      -2.4318     YZ       1.5117     ZZ     -42.1368
    Octopole Moments (Debye-Ang^2)
       XXX      -8.5692    XXY      -8.5565    XYY     -10.7518
       YYY     -25.3949    XXZ       3.1047    XYZ       2.8933
       YYZ       6.6056    XZZ      -4.0859    YZZ      -7.0477
       ZZZ       7.3733
    Hexadecapole Moments (Debye-Ang^3)
      XXXX    -314.1382   XXXY      -0.2767   XXYY    -125.2368
      XYYY     -15.9570   YYYY    -395.4998   XXXZ      58.3048
      XXYZ       8.5058   XYYZ      25.7770   YYYZ      24.2555
      XXZZ     -70.2594   XYZZ       1.2461   YYZZ     -95.2251
      XZZZ      75.0845   YZZZ      17.1767   ZZZZ    -128.4216
 -----------------------------------------------------------------
 Calculating analytic gradient of the SCF energy
 Gradient of SCF Energy
            1           2           3           4           5           6
    1   0.0010975   0.0216492  -0.0780923  -0.0052824  -0.0050029   0.0003657
    2  -0.0021494  -0.0069770   0.0576684   0.0193817  -0.0056851   0.0064265
    3   0.0000070   0.0003699   0.0256258  -0.0033663  -0.0015119   0.0020165
            7           8           9          10          11          12
    1  -0.0019590  -0.0026713   0.0023693  -0.0001280   0.0023182   0.0731991
    2  -0.0000791   0.0057731  -0.0110030   0.0012832  -0.0042934  -0.0601420
    3  -0.0010935   0.0010438  -0.0000475   0.0000823   0.0004952  -0.0304747
           13
    1  -0.0078632
    2  -0.0002039
    3   0.0068534
 Max gradient component =       7.809E-02
 RMS gradient           =       2.339E-02
 Gradient time:  CPU 7.39 s  wall 1.89 s
WARNING!!!!! energy has increased from optimization step!
 ----------------------------------------------------------------
             Standard Nuclear Orientation (Angstroms)
    I     Atom           X                Y                Z
 ----------------------------------------------------------------
    1      C       1.4826572690     0.3040805929    -0.7639893587
    2      C       1.0970387131    -0.9867895970    -0.4573197400
    3      C      -0.1323712350    -1.4511152711     0.1243761914
    4      C      -1.2155443581     0.7699122163     0.5757266810
    5      C      -0.3471796703     1.6474719479    -0.0439394888
    6      N       0.8716213188     1.5020954361    -0.6163932793
    7      H       2.4585473539     0.4005062387    -1.2430751452
    8      H       1.8129481881    -1.7633535047    -0.7245614871
    9      H      -0.2335134643    -2.5192136006     0.2403784052
   10      H      -2.1149151901     1.2196033114     1.0021050160
   11      H      -0.6664909670     2.6857525253    -0.0442465678
   12      C      -1.1078355965    -0.6561355580     0.7080357116
   13      H      -1.9080065043    -1.1495635147     1.2381760334
 ----------------------------------------------------------------
 Nuclear Repulsion Energy =   260.5996573919 hartrees
 There are       25 alpha and       24 beta electrons

                       Distance Matrix (Angstroms)
             C (  1)   C (  2)   C (  3)   C (  4)   C (  5)   N (  6)
   C (  2)  1.381700
   C (  3)  2.545235  1.437156
   C (  4)  3.048300  3.082406  2.511960
   C (  5)  2.381486  3.032488  3.110581  1.381360
   N (  6)  1.352919  2.504130  3.205962  2.512668  1.354368
   H (  7)  1.091413  2.096594  3.465730  4.116242  3.296203  2.030902
   H (  8)  2.094023  1.089493  2.145333  4.156916  4.094280  3.400140
   H (  9)  3.453257  2.146037  1.079129  3.448941  4.177921  4.257500
   H ( 10)  4.110936  4.161098  3.440004  1.092194  2.098135  3.408627
   H ( 11)  3.287739  4.094903  4.174613  2.087168  1.086272  2.023409
   C ( 12)  3.130419  2.515722  1.387149  1.436217  2.539817  3.214082
   H ( 13)  4.197422  3.454200  2.117632  2.145397  3.450132  4.265800
             H (  7)   H (  8)   H (  9)   H ( 10)   H ( 11)   C ( 12)
   H (  8)  2.316882
   H (  9)  4.239409  2.385464
   H ( 10)  5.160263  5.225660  4.254251
   H ( 11)  4.052827  5.138579  5.230693  2.311358
   C ( 12)  4.200287  3.436458  2.110498  2.149205  3.453828
   H ( 13)  5.256055  4.251421  2.382324  2.389873  4.230321  1.079256

 
 Applying Cartesian multipole field
    Component          Value
    ---------          -----
     (2,0,0)        1.00000E-11
     (0,2,0)        2.00000E-11
     (0,0,2)       -3.00000E-11
 Nucleus-field energy     =     0.0000000058 hartrees
 Requested basis set is 6-31G(d)
 There are 40 shells and 117 basis functions
 A cutoff of  1.0D-14 yielded    791 shell pairs
 There are      7063 function pairs
 Smallest overlap matrix eigenvalue = 1.49E-03
 Guess MOs from core Hamiltonian diagonalization
 Mixing HOMO and LUMO in initial guess
 Adding  50% of the LUMO to the HOMO
 An unrestricted hybrid HF-DFT SCF calculation will be
 performed using Pulay DIIS extrapolation
 Exchange:     0.2000 Hartree-Fock + 0.0800 Slater + 0.7200 B88
 Correlation:  0.1900 VWN1RPA + 0.8100 LYP
 Using SG-1 standard quadrature grid
 SCF converges when DIIS error is below 1.0E-08
 using 4 threads for integral computing
 -------------------------------------------------------
 OpenMP Integral computing Module                
 Release: version 1.0, May 2013, Q-Chem Inc. Pittsburgh 
 -------------------------------------------------------
 -------------------------------------------------------
 OpenMP BLAS3 based DFT computing Module                
 Release: version 1.0, May 2013, Q-Chem Inc. Pittsburgh 
 -------------------------------------------------------
 ---------------------------------------
  Cycle       Energy         DIIS Error
 ---------------------------------------
    1    -239.4749190699      1.26E-01
    2    -227.3903782262      1.03E-01
    3    -250.6194004563      1.05E-01
    4    -283.3553452827      4.25E-02
    5    -282.5823099438      4.31E-02
    6    -286.3971894971      1.44E-02
    7    -286.5601770562      1.26E-02
    8    -286.9000827281      3.17E-03
    9    -286.9144032331      2.01E-03
   10    -286.9214719278      2.55E-04
   11    -286.9216866802      1.79E-04
   12    -286.9217821865      6.99E-05
   13    -286.9218304948      3.35E-05
   14    -286.9218534253      1.73E-05
   15    -286.9218637038      6.03E-06
   16    -286.9218660731      3.18E-06
   17    -286.9218668284      1.72E-06
   18    -286.9218670545      1.82E-06
   19    -286.9218671930      9.87E-07
   20    -286.9218672519      3.42E-07
   21    -286.9218672555      6.70E-08
   22    -286.9218672557      1.34E-08
   23    -286.9218672557      6.23E-09 Convergence criterion met
 ---------------------------------------
 <S^2> = 0.7675
 SCF time:  CPU 52.92 s  wall 14.17 s
 SCF   energy in the final basis set = -286.92186726
 Total energy in the final basis set = -286.92186726
 
 --------------------------------------------------------------
 
                    Orbital Energies (a.u.)
 --------------------------------------------------------------
 
 Alpha MOs
 -- Occupied --
-14.321 -10.232 -10.231 -10.214 -10.213 -10.200 -10.200  -0.922
 -0.816  -0.785  -0.691  -0.669  -0.553  -0.536  -0.517  -0.448
 -0.440  -0.416  -0.394  -0.383  -0.352  -0.319  -0.299  -0.250
 -0.159
 -- Virtual --
 -0.075   0.077   0.096   0.097   0.117   0.144   0.181   0.184
  0.194   0.216   0.264   0.321   0.353   0.394   0.407   0.485
  0.497   0.518   0.546   0.575   0.583   0.586   0.589   0.609
  0.620   0.621   0.646   0.659   0.708   0.716   0.831   0.842
  0.848   0.851   0.869   0.872   0.888   0.925   0.951   0.982
  1.019   1.025   1.033   1.127   1.172   1.182   1.290   1.310
  1.323   1.353   1.444   1.461   1.478   1.551   1.568   1.592
  1.686   1.737   1.774   1.828   1.848   1.922   1.926   2.022
  2.046   2.056   2.107   2.133   2.139   2.189   2.249   2.388
  2.394   2.421   2.448   2.548   2.566   2.599   2.603   2.737
  2.752   2.793   3.046   3.226   3.251   4.016   4.043   4.105
  4.194   4.240   4.533   4.579
 
 Beta MOs
 -- Occupied --
-14.313 -10.233 -10.233 -10.212 -10.211 -10.196 -10.196  -0.911
 -0.807  -0.777  -0.679  -0.667  -0.548  -0.534  -0.513  -0.447
 -0.439  -0.413  -0.380  -0.372  -0.350  -0.292  -0.276  -0.241
 -- Virtual --
 -0.076  -0.072   0.079   0.118   0.119   0.124   0.144   0.182
  0.188   0.196   0.221   0.266   0.325   0.356   0.397   0.410
  0.487   0.505   0.521   0.550   0.586   0.587   0.590   0.593
  0.613   0.624   0.626   0.648   0.677   0.710   0.727   0.832
  0.845   0.848   0.870   0.873   0.880   0.891   0.927   0.954
  0.986   1.022   1.027   1.035   1.132   1.175   1.186   1.299
  1.320   1.332   1.361   1.448   1.468   1.489   1.565   1.575
  1.602   1.692   1.740   1.787   1.830   1.852   1.926   1.933
  2.028   2.059   2.066   2.117   2.137   2.142   2.201   2.261
[...]
     11 H                     0.142441       0.011569
     12 C                    -0.135481      -0.177955
     13 H                     0.165368       0.010258
  --------------------------------------------------------
  Sum of atomic charges =    -0.000000
  Sum of spin   charges =     1.000000

 -----------------------------------------------------------------
                    Cartesian Multipole Moments
 -----------------------------------------------------------------
    Charge (ESU x 10^10)
                 0.0000
    Dipole Moment (Debye)
         X      -0.5832      Y      -1.8604      Z       1.1868
       Tot       2.2825
    Quadrupole Moments (Debye-Ang)
        XX     -37.5988     XY      -3.5025     YY     -41.2973
        XZ      -2.3403     YZ       0.2164     ZZ     -42.5531
    Octopole Moments (Debye-Ang^2)
       XXX      -2.8636    XXY      -6.5724    XYY     -11.9009
       YYY     -25.4348    XXZ       4.3302    XYZ       2.8016
       YYZ       5.3251    XZZ      -6.9813    YZZ      -7.5993
       ZZZ      15.6356
    Hexadecapole Moments (Debye-Ang^3)
      XXXX    -256.2963   XXXY      -8.2670   XXYY     -90.9227
      XYYY     -18.9142   YYYY    -284.3618   XXXZ      27.4726
      XXYZ       7.4808   XYYZ      15.5859   YYYZ      18.6368
      XXZZ     -73.4525   XYZZ      -0.9463   YYZZ     -77.9208
      XZZZ      32.4859   YZZZ       9.9736   ZZZZ    -185.7821
 -----------------------------------------------------------------
 Calculating analytic gradient of the SCF energy
 Gradient of SCF Energy
            1           2           3           4           5           6
    1   0.0005363   0.0037687   0.0110045   0.0080969   0.0039467  -0.0075810
    2  -0.0129443  -0.0030214   0.0112783  -0.0314089  -0.0047113   0.0171895
    3  -0.0078011  -0.0047238  -0.0192568  -0.0045338  -0.0138341   0.0034131
            7           8           9          10          11          12
    1   0.0042989   0.0166595   0.0145772  -0.0125581   0.0108582  -0.0311003
    2   0.0015145  -0.0045517  -0.0105951   0.0102410   0.0109653   0.0079829
    3  -0.0121232  -0.0195016   0.0201776   0.0043165   0.0145582   0.0254242
           13
    1  -0.0225076
    2   0.0080614
    3   0.0138848
 Max gradient component =       3.141E-02
 RMS gradient           =       1.369E-02
 Gradient time:  CPU 7.79 s  wall 1.99 s
 ----------------------------------------------------------------
             Standard Nuclear Orientation (Angstroms)
    I     Atom           X                Y                Z
 ----------------------------------------------------------------
    1      C       1.5635054474     0.3554139513    -0.4095850454
    2      C       0.7908713726    -0.8745665839    -0.1038590339
    3      C      -0.4277776726    -0.8343217270    -0.9508055455
    4      C      -1.0281664601     0.6075779952     0.7920235766
    5      C      -0.5184743856     1.1542603427    -0.4818141094
    6      N       0.8646728749     1.4241365533    -0.6084745756
    7      H       2.6434520137     0.3801514940    -0.6100591283
    8      H       1.4400197656    -1.7787481782    -0.2407376130
    9      H      -0.9633785437    -1.7994596759    -0.9019719145
   10      H      -1.8895237675     1.0941204605     1.2953059650
   11      H      -1.0510099750     2.0505525296    -0.8147549999
   12      C      -0.4830401675    -0.5932670171     1.0952433944
   13      H      -1.0021026975    -1.2186242918     1.8473773971
 ----------------------------------------------------------------
 Nuclear Repulsion Energy =   271.5813850987 hartrees
 There are       25 alpha and       24 beta electrons

                       Distance Matrix (Angstroms)
             C (  1)   C (  2)   C (  3)   C (  4)   C (  5)   N (  6)
   C (  2)  1.484346
   C (  3)  2.381932  1.484602
   C (  4)  2.867789  2.511624  2.340298
   C (  5)  2.231146  2.444049  2.045150  1.476926
   N (  6)  1.292320  2.354595  2.624548  2.492189  1.414911
   H (  7)  1.098675  2.294038  3.320166  3.936793  3.257832  2.062514
   H (  8)  2.144389  1.121461  2.210160  3.585121  3.535019  3.274863
   H (  9)  3.357241  2.137710  1.104873  2.944087  3.016444  3.717457
   H ( 10)  3.921193  3.608034  3.301607  1.109934  2.245339  3.364356
   H ( 11)  3.142188  3.529054  2.954560  2.159730  1.094433  2.026028
   C ( 12)  2.711614  1.771956  2.060941  1.353194  2.354192  2.964608
   H ( 13)  3.762156  2.672163  2.882250  2.109376  3.360002  4.062049
             H (  7)   H (  8)   H (  9)   H ( 10)   H ( 11)   C ( 12)
   H (  8)  2.499099
   H (  9)  4.224351  2.492786
   H ( 10)  4.968706  4.658183  3.749477
   H ( 11)  4.059703  4.604158  3.851997  2.463783
   C ( 12)  3.691958  2.624571  2.382120  2.205787  3.310659
   H ( 13)  4.678156  3.261583  2.810301  2.537930  4.216261  1.107341

 
 Applying Cartesian multipole field
    Component          Value
    ---------          -----
     (2,0,0)        1.00000E-11
     (0,2,0)        2.00000E-11
     (0,0,2)       -3.00000E-11
 Nucleus-field energy     =     0.0000000023 hartrees
 Requested basis set is 6-31G(d)
 There are 40 shells and 117 basis functions
 A cutoff of  1.0D-14 yielded    809 shell pairs
 There are      7081 function pairs
 Smallest overlap matrix eigenvalue = 1.49E-03
 Guess MOs from core Hamiltonian diagonalization
 Mixing HOMO and LUMO in initial guess
 Adding  50% of the LUMO to the HOMO
 An unrestricted hybrid HF-DFT SCF calculation will be
 performed using Pulay DIIS extrapolation
 Exchange:     0.2000 Hartree-Fock + 0.0800 Slater + 0.7200 B88
 Correlation:  0.1900 VWN1RPA + 0.8100 LYP
 Using SG-1 standard quadrature grid
 SCF converges when DIIS error is below 1.0E-08
 using 4 threads for integral computing
 -------------------------------------------------------
 OpenMP Integral computing Module                
 Release: version 1.0, May 2013, Q-Chem Inc. Pittsburgh 
 -------------------------------------------------------
 -------------------------------------------------------
 OpenMP BLAS3 based DFT computing Module                
 Release: version 1.0, May 2013, Q-Chem Inc. Pittsburgh 
 -------------------------------------------------------
 ---------------------------------------
  Cycle       Energy         DIIS Error
 ---------------------------------------
    1    -234.2408687089      1.34E-01
    2    -224.2557928449      1.06E-01
    3    -241.9195571945      1.12E-01
    4    -280.5759984998      5.15E-02
    5    -281.7623622699      4.73E-02
    6    -286.3055227139      1.39E-02
    7    -286.4335200104      1.14E-02
    8    -286.6926250311      3.45E-03
    9    -286.7124698559      1.43E-03
   10    -286.7167083113      7.95E-04
   11    -286.7179786421      2.31E-04
   12    -286.7183324397      2.14E-04
   13    -286.7187645039      2.12E-04
   14    -286.7194467246      2.12E-04
   15    -286.7205022566      2.18E-04
   16    -286.7204735272      2.18E-04
   17    -286.7208222696      3.10E-04
   18    -286.7212705666      1.83E-04
   19    -286.7216529914      1.71E-04
   20    -286.7229668859      1.40E-04
   21    -286.7230298293      1.38E-04
   22    -286.7239144920      1.12E-04
   23    -286.7247507597      2.71E-04
   24    -286.7255159937      2.67E-04
   25    -286.7255018742      2.85E-04
   26    -286.7256184975      1.87E-04
   27    -286.7256662665      1.45E-04
   28    -286.7257125877      7.34E-05
   29    -286.7257268047      3.37E-05
   30    -286.7257327521      2.84E-06
   31    -286.7257325268      1.90E-05
   32    -286.7257347191      1.83E-06
   33    -286.7257349755      8.05E-07
   34    -286.7257350485      1.28E-06
   35    -286.7257350540      4.02E-07
   36    -286.7257350553      1.47E-08
   37    -286.7257350555      3.46E-08
   38    -286.7257350555      5.37E-09 Convergence criterion met
 ---------------------------------------
 <S^2> = 0.8000
 SCF time:  CPU 91.27 s  wall 25.03 s
 SCF   energy in the final basis set = -286.72573506
 Total energy in the final basis set = -286.72573506
 
 --------------------------------------------------------------
 
                    Orbital Energies (a.u.)
 --------------------------------------------------------------
 
 Alpha MOs
 -- Occupied --
-14.332 -10.247 -10.233 -10.232 -10.230 -10.204 -10.194  -0.948
 -0.818  -0.760  -0.671  -0.614  -0.566  -0.527  -0.493  -0.451
 -0.435  -0.407  -0.391  -0.373  -0.331  -0.293  -0.265  -0.260
 -0.137
 -- Virtual --
 -0.062  -0.004   0.045   0.082   0.086   0.126   0.156   0.167
  0.179   0.186   0.237   0.246   0.279   0.312   0.370   0.389
  0.498   0.504   0.518   0.556   0.569   0.587   0.604   0.619
  0.629   0.640   0.654   0.675   0.685   0.712   0.747   0.785
  0.805   0.833   0.839   0.850   0.860   0.871   0.895   0.920
  0.961   1.020   1.068   1.082   1.156   1.205   1.263   1.285
  1.360   1.409   1.453   1.494   1.534   1.564   1.631   1.645
  1.663   1.793   1.812   1.853   1.920   1.958   1.991   2.027
  2.110   2.142   2.164   2.182   2.215   2.253   2.268   2.310
  2.391   2.407   2.433   2.451   2.532   2.571   2.604   2.623
  2.700   2.773   2.813   2.915   2.979   3.916   4.128   4.229
  4.254   4.358   4.425   4.569
 
 Beta MOs
 -- Occupied --
-14.331 -10.249 -10.235 -10.232 -10.230 -10.189 -10.189  -0.947
 -0.810  -0.755  -0.667  -0.607  -0.554  -0.524  -0.488  -0.447
 -0.432  -0.403  -0.388  -0.371  -0.317  -0.284  -0.264  -0.246
 -- Virtual --
 -0.054  -0.009   0.004   0.055   0.086   0.089   0.128   0.157
  0.170   0.182   0.191   0.241   0.252   0.281   0.315   0.372
  0.391   0.500   0.516   0.531   0.562   0.575   0.599   0.606
  0.627   0.636   0.643   0.660   0.677   0.698   0.720   0.752
  0.787   0.809   0.835   0.841   0.853   0.866   0.872   0.900
  0.925   0.962   1.031   1.075   1.086   1.161   1.209   1.269
  1.290   1.367   1.419   1.458   1.503   1.536   1.567   1.643
  1.653   1.665   1.802   1.821   1.861   1.924   1.985   1.998
  2.033   2.113   2.150   2.178   2.188   2.219   2.259   2.284
  2.317   2.412   2.416   2.443   2.454   2.540   2.574   2.606
  2.628   2.706   2.774   2.816   2.916   2.980   3.917   4.127
  4.234   4.285   4.361   4.428   4.569
 --------------------------------------------------------------
 
          Ground-State Mulliken Net Atomic Charges

     Atom                 Charge (a.u.)    Spin (a.u.)
  --------------------------------------------------------
      1 C                     0.113568      -0.022699
      2 C                    -0.238498      -0.021618
      3 C                    -0.208936       0.975893
      4 C                    -0.083869       0.394446
      5 C                    -0.038212      -0.143925
      6 N                    -0.329000       0.018027
      7 H                     0.154295       0.001450
      8 H                     0.150091       0.019270
      9 H                     0.147156      -0.039913
     10 H                     0.151606      -0.021743
     11 H                     0.147202       0.007229
     12 C                    -0.125922      -0.182029
     13 H                     0.160518       0.015614
  --------------------------------------------------------
  Sum of atomic charges =     0.000000
  Sum of spin   charges =     1.000000

 -----------------------------------------------------------------
                    Cartesian Multipole Moments
 -----------------------------------------------------------------
    Charge (ESU x 10^10)
                 0.0000
    Dipole Moment (Debye)
         X      -0.4955      Y      -1.6605      Z       1.2384
       Tot       2.1299
    Quadrupole Moments (Debye-Ang)
        XX     -37.2800     XY      -3.6238     YY     -41.0563
        XZ      -2.2328     YZ       0.0591     ZZ     -43.2257
    Octopole Moments (Debye-Ang^2)
       XXX      -2.3688    XXY      -6.4980    XYY     -12.0307
       YYY     -24.9496    XXZ       4.1259    XYZ       2.8263
       YYZ       5.3824    XZZ      -6.6196    YZZ      -6.9423
       ZZZ      16.2793
    Hexadecapole Moments (Debye-Ang^3)
      XXXX    -254.5775   XXXY      -8.5598   XXYY     -90.4556
      XYYY     -19.8504   YYYY    -281.5049   XXXZ      27.6439
      XXYZ       7.5261   XYYZ      15.6241   YYYZ      18.7213
      XXZZ     -73.7266   XYZZ      -1.2045   YYZZ     -78.5154
      XZZZ      32.8341   YZZZ       8.9357   ZZZZ    -191.4500
 -----------------------------------------------------------------
 Calculating analytic gradient of the SCF energy
 Gradient of SCF Energy
            1           2           3           4           5           6
    1   0.0024958   0.0119634   0.0004895   0.0080690   0.0027012  -0.0111499
    2  -0.0140893  -0.0044662   0.0004580  -0.0201882   0.0099052   0.0149010
    3  -0.0053884  -0.0121338   0.0111794  -0.0146546  -0.0039560   0.0007045
            7           8           9          10          11          12
    1   0.0045604   0.0188602   0.0192316  -0.0122410   0.0109435  -0.0336970
    2   0.0015986  -0.0051704  -0.0173469   0.0110648   0.0144766   0.0016002
    3  -0.0112834  -0.0196401   0.0153887   0.0045671   0.0159830   0.0087040
           13
    1  -0.0222269
    2   0.0072566
    3   0.0105295
 Max gradient component =       3.370E-02
 RMS gradient           =       1.281E-02
 Gradient time:  CPU 7.78 s  wall 1.98 s
 E1 = -286.7262488, E2 = -286.7257351, Emax = -286.7257586
 Iteration 5, Curvature = -4.4700169
 Curvature, final (in Hartree/Bohr^2) = -1.2517322
 ----------------------------------------------------------------
             Standard Nuclear Orientation (Angstroms)
    I     Atom           X                Y                Z
 ----------------------------------------------------------------
    1      C       1.5638842808     0.3551260618    -0.4089777580
    2      C       0.7926182178    -0.8748669984    -0.1052768903
    3      C      -0.4301161775    -0.8362682368    -0.9441007745
    4      C      -1.0281595933     0.6098162970     0.7900822363
    5      C      -0.5186949771     1.1572378421    -0.4798805139
    6      N       0.8639277316     1.4236896649    -0.6090491801
    7      H       2.6435144376     0.3801458234    -0.6096533663
    8      H       1.4402763549    -1.7789208898    -0.2406061767
    9      H      -0.9626203153    -1.8006923612    -0.9033441096
   10      H      -1.8893113677     1.0942189110     1.2953694152
   11      H      -1.0511514485     2.0511278409    -0.8146961861
   12      C      -0.4835252393    -0.5946293580     1.0914733085
   13      H      -1.0015817966    -1.2187535402     1.8465723972
 ----------------------------------------------------------------
 Nuclear Repulsion Energy =   271.6505759147 hartrees
 There are       25 alpha and       24 beta electrons
 Requested basis set is 6-31G(d)
 There are 40 shells and 117 basis functions
 Geometry Optimization Parameters
   NAtoms,    NIC,     NZ,  NCons,   NDum,   NFix, NCnnct, MaxDiis
       13      86       0       0       0       0       0       0


** GEOMETRY OPTIMIZATION IN DELOCALIZED INTERNAL COORDINATES **
   Searching for a Minimum

   Optimization Cycle:   1

                       Coordinates (Angstroms)
     ATOM                X               Y               Z
      1  C         1.5638842808    0.3551260618   -0.4089777580
      2  C         0.7926182178   -0.8748669984   -0.1052768903
      3  C        -0.4301161775   -0.8362682368   -0.9441007745
      4  C        -1.0281595933    0.6098162970    0.7900822363
      5  C        -0.5186949771    1.1572378421   -0.4798805139
      6  N         0.8639277316    1.4236896649   -0.6090491801
      7  H         2.6435144376    0.3801458234   -0.6096533663
      8  H         1.4402763549   -1.7789208898   -0.2406061767
      9  H        -0.9626203153   -1.8006923612   -0.9033441096
     10  H        -1.8893113677    1.0942189110    1.2953694152
     11  H        -1.0511514485    2.0511278409   -0.8146961861
     12  C        -0.4835252393   -0.5946293580    1.0914733085
     13  H        -1.0015817966   -1.2187535402    1.8465723972
   Point Group: c1    Number of degrees of freedom:    33


   Energy is   -286.725735056


 Attempting to Generate Delocalized Internal Coordinates

 33 Hessian modes will be used to form the next step
  Hessian Eigenvalues:
     0.008247    0.011387    0.012725    0.016041    0.018925    0.020156
     0.025307    0.034158    0.042246    0.089260    0.100121    0.127752
     0.133857    0.148817    0.154221    0.157506    0.158980    0.160000
     0.191276    0.202323    0.212530    0.315326    0.319446    0.326266
     0.327923    0.334156    0.338589    0.340347    0.341939    0.344681
     0.412704    0.513312    0.666288

 Minimum Search - Taking Simple RFO Step
 Searching for Lamda that Minimizes Along All modes
 Value Taken    Lamda =  -0.09394413
 Calculated Step too Large.  Step scaled by  0.415103
 Step Taken.  Stepsize is  0.300000

                             Maximum     Tolerance    Cnvgd?
         Gradient           0.106234      0.000300      NO
         Displacement       0.221904      0.001200      NO
         Energy change     *********      0.000001      NO


 New Cartesian Coordinates Obtained by Inverse Iteration

 Displacement from previous Coordinates is:  0.737649
 ----------------------------------------------------------------
             Standard Nuclear Orientation (Angstroms)
    I     Atom           X                Y                Z
 ----------------------------------------------------------------
    1      C       1.5704420212     0.3534991138    -0.3749217232
    2      C       0.7839699735    -0.8593715991    -0.0743412597
    3      C      -0.4177648196    -0.7293816510    -0.9613536173
    4      C      -1.0022496661     0.5992226441     0.8119693617
    5      C      -0.5248644479     1.0770219030    -0.4967115632
    6      N       0.8521267963     1.3925154898    -0.6273094286
    7      H       2.6500705813     0.3749393566    -0.5568802738
    8      H       1.3979501211    -1.7798086592    -0.1744263919
    9      H      -1.0748693472    -1.6079504791    -1.0275324497
   10      H      -1.8712178175     1.0607399705     1.3064144002
   11      H      -1.1055124946     1.9013113160    -0.9165708912
   12      C      -0.4224097634    -0.5824441210     1.1241518971
   13      H      -0.8966110296    -1.2330622277     1.8754243415
 ----------------------------------------------------------------
 Nuclear Repulsion Energy =   274.7916695768 hartrees
 There are       25 alpha and       24 beta electrons

































 Eigenvalues after right structure
 -1.2618100 -0.0000000 0.0000000 0.0000000 0.0000000 0.0000000 0.0000001 0.0070119 0.0111569 0.0147294 0.0182086 0.0304479 0.0420155 0.0484733 0.0536570 0.0593680 0.0625755 0.0653147 0.0836826 0.0958369 0.1028701 0.1192538 0.1345450 0.1790241 0.2108961 0.2304774 0.2601409 0.4177939 0.4286810 0.5617429 0.6345391 0.7645483 0.8917798 0.9212214 0.9859971 1.0930713 1.2286972 1.4060927 1.6826921
Archival summary:
1\1\c8-66\JobtypUnspecified\ProcedureUnspecified\6-31G*\166(2)\hpark21\FriMar401:54:472022FriMar401:54:472022\0\\#,JobtypUnspecified,ProcedureUnspecified,6-31G*,\\0,2\N\C,1,1.28811\H,2,1.09506,1,120.095\C,1,1.4187,2,110.111,3,171.811,0\H,4,1.09219,1,108.227,2,-168.181,0\C,4,1.4727,1,117.942,2,59.8894,0\H,6,1.10117,4,121.254,1,128.579,0\C,6,1.35278,4,110.458,1,-63.8865,0\H,8,1.10117,6,119.273,4,-159.725,0\C,2,1.47646,1,113.92,3,-169.801,0\H,10,1.11094,2,111.585,1,162.28,0\C,10,1.49928,2,103.609,1,34.9483,0\H,12,1.09911,10,116.456,2,170.423,0\\\@

 Total job time:  1025.41s(wall), 3817.14s(cpu) 
 Fri Mar  4 01:54:47 2022

        *************************************************************
        *                                                           *
        *  Thank you very much for using Q-Chem.  Have a nice day.  *
        *                                                           *
        *************************************************************


