
Running Job 1 of 1 qcts1.in
qchem qcts1.in_42546.0 ./qcts1.d/ 1
/home/leeping/opt/qchem/5.0.2-openmp/exe/qcprog.exe_s qcts1.in_42546.0 ./qcts1.d/
Check license passed

                  Welcome to Q-Chem
     A Quantum Leap Into The Future Of Chemistry


 Q-Chem 5.0, Q-Chem, Inc., Pleasanton, CA (2017)

 Yihan Shao,  Zhengting Gan,  E. Epifanovsky,  A. T. B. Gilbert,  M. Wormit,  
 J. Kussmann,  A. W. Lange,  A. Behn,  Jia Deng,  Xintian Feng,  D. Ghosh,  
 M. Goldey,  P. R. Horn,  L. D. Jacobson,  I. Kaliman,  T. Kus,  A. Landau,  
 Jie Liu,  E. I. Proynov,  R. M. Richard,  R. P. Steele,  E. J. Sundstrom,  
 H. L. Woodcock III,  P. M. Zimmerman,  D. Zuev,  B. Albrecht,  E. Alguire,  
 S. A. Baeppler,  D. Barton,  Z. Benda,  Y. A. Bernard,  E. J. Berquist,  
 K. B. Bravaya,  H. Burton,  D. Casanova,  Chun-Min Chang,  Yunqing Chen,  
 A. Chien,  K. D. Closser,  M. P. Coons,  S. Dasgupta,  A. L. Dempwolff,  
 M. Diedenhofen,  Hainam Do,  R. G. Edgar,  Po-Tung Fang,  S. Fatehi,  
 Qingguo Feng,  J. Fosso-Tande,  Qinghui Ge,  A. Ghysels,  G. Gidofalvi,  
 J. Gomes,  J. Gonthier,  A. Gunina,  M. W. D. Hanson-Heine,  
 P. H. P. Harbach,  A. W. Hauser,  J. E. Herr,  E. G. Hohenstein,  
 Z. C. Holden,  Kerwin Hui,  T.-C. Jagau,  Hyunjun Ji,  B. Kaduk,  
 K. Khistyaev,  Jaehoon Kim,  P. Klunzinger,  K. Koh,  D. Kosenkov,  
 L. Koulias,  T. Kowalczyk,  C. M. Krauter,  A. Kunitsa,  Ka Un Lao,  
 A. Laurent,  K. V. Lawler,  Joonho Lee,  D. Lefrancois,  S. Lehtola,  
 D. S. Levine,  Yi-Pei Li,  You-Sheng Lin,  Fenglai Liu,  E. Livshits,  
 A. Luenser,  P. Manohar,  E. Mansoor,  S. F. Manzer,  Shan-Ping Mao,  
 Yuezhi Mao,  N. Mardirossian,  A. V. Marenich,  T. Markovich,  
 L. A. Martinez-Martinez,  S. A. Maurer,  N. J. Mayhall,  S. C. McKenzie,  
 J.-M. Mewes,  A. F. Morrison,  J. W. Mullinax,  K. Nanda,  
 T. S. Nguyen-Beck,  R. Olivares-Amaya,  J. A. Parkhill,  T. M. Perrine,  
 F. Plasser,  S. Prager,  A. Prociuk,  E. Ramos,  D. R. Rehn,  F. Rob,  
 M. Schneider,  N. Sergueev,  S. M. Sharada,  S. Sharma,  D. W. Small,  
 T. Stauch,  T. Stein,  Yu-Chuan Su,  A. J. W. Thom,  A. Tkatchenko,  
 T. Tsuchimochi,  L. Vogt,  O. Vydrov,  M. A. Watson,  J. Wenzel,  
 M. de Wergifosse,  T. A. Wesolowski,  A. White,  J. Witte,  A. Yamada,  
 Jun Yang,  K. Yao,  S. Yeganeh,  S. R. Yost,  Zhi-Qiang You,  A. Zech,  
 Igor Ying Zhang,  Xing Zhang,  Yan Zhao,  Ying Zhu,  B. R. Brooks,  
 G. K. L. Chan,  C. J. Cramer,  M. S. Gordon,  W. J. Hehre,  A. Klamt,  
 M. W. Schmidt,  C. D. Sherrill,  D. G. Truhlar,  A. Aspuru-Guzik,  R. Baer,  
 A. T. Bell,  N. A. Besley,  Jeng-Da Chai,  R. A. DiStasio Jr.,  A. Dreuw,  
 B. D. Dunietz,  T. R. Furlani,  Chao-Ping Hsu,  Yousung Jung,  Jing Kong,  
 D. S. Lambrecht,  WanZhen Liang,  C. Ochsenfeld,  V. A. Rassolov,  
 L. V. Slipchenko,  J. E. Subotnik,  T. Van Voorhis,  J. M. Herbert,  
 A. I. Krylov,  P. M. W. Gill,  M. Head-Gordon

 Contributors to earlier versions of Q-Chem not listed above: 
 R. D. Adamson,  B. Austin,  J. Baker,  G. J. O. Beran,  K. Brandhorst,  
 S. T. Brown,  E. F. C. Byrd,  A. K. Chakraborty,  C.-L. Cheng,  
 Siu Hung Chien,  D. M. Chipman,  D. L. Crittenden,  H. Dachsel,  
 R. J. Doerksen,  A. D. Dutoi,  L. Fusti-Molnar,  W. A. Goddard III,  
 A. Golubeva-Zadorozhnaya,  S. R. Gwaltney,  G. Hawkins,  A. Heyden,  
 S. Hirata,  G. Kedziora,  F. J. Keil,  C. Kelley,  Jihan Kim,  R. A. King,  
 R. Z. Khaliullin,  P. P. Korambath,  W. Kurlancheek,  A. M. Lee,  M. S. Lee,  
 S. V. Levchenko,  Ching Yeh Lin,  D. Liotard,  R. C. Lochan,  I. Lotan,  
 P. E. Maslen,  N. Nair,  D. P. O'Neill,  D. Neuhauser,  E. Neuscamman,  
 C. M. Oana,  R. Olson,  B. Peters,  R. Peverati,  P. A. Pieniazek,  
 Y. M. Rhee,  J. Ritchie,  M. A. Rohrdanz,  E. Rosta,  N. J. Russ,  
 H. F. Schaefer III,  N. E. Schultz,  N. Shenvi,  A. C. Simmonett,  A. Sodt,  
 D. Stuck,  K. S. Thanthiriwatte,  V. Vanovschi,  Tao Wang,  A. Warshel,  
 C. F. Williams,  Q. Wu,  X. Xu,  W. Zhang

 Please cite Q-Chem as follows:
 Y. Shao et al., Mol. Phys. 113, 184-215 (2015)
 DOI: 10.1080/00268976.2014.952696

 Q-Chem 5.0.2 for Intel X86 EM64T Linux

 Parts of Q-Chem use Armadillo 5.200.1 (Boston Tea Smuggler).
 http://arma.sourceforge.net/

 Q-Chem begins on Fri Mar  4 01:54:49 2022  

Host: 
0

     Scratch files written to ./qcts1.d//
 Dec517 15110_ 26548  26544 5633   
Processing $rem in /home/leeping/opt/qchem/5.0.2-openmp/config/preferences.
 MEM_STATIC 2000
 MEM_TOTAL  8000
 SYMMETRY   OFF
 SYM_IGNORE TRUE 

Checking the input file for inconsistencies... 	...done.

--------------------------------------------------------------
User input:
--------------------------------------------------------------
$molecule
0 2
C        1.5704420212    0.3534991138   -0.3749217232
C        0.7839699735   -0.8593715991   -0.0743412597
C       -0.4177648196   -0.7293816510   -0.9613536173
C       -1.0022496661    0.5992226441    0.8119693617
C       -0.5248644479    1.0770219030   -0.4967115632
N        0.8521267963    1.3925154898   -0.6273094286
H        2.6500705813    0.3749393566   -0.5568802738
H        1.3979501211   -1.7798086592   -0.1744263919
H       -1.0748693472   -1.6079504791   -1.0275324497
H       -1.8712178175    1.0607399705    1.3064144002
H       -1.1055124946    1.9013113160   -0.9165708912
C       -0.4224097634   -0.5824441210    1.1241518971
H       -0.8966110296   -1.2330622277    1.8754243415
$end

$rem
method                b3lyp
basis                 6-31g(d)
unrestricted          true
symmetry              off
sym_ignore            true
incdft                false
incfock               0
scf_convergence       8
thresh                14
jobtype               sp
scf_guess             core
scf_guess_mix         5
scf_algorithm         diis
max_scf_cycles        100
$end

--------------------------------------------------------------
 ----------------------------------------------------------------
             Standard Nuclear Orientation (Angstroms)
    I     Atom           X                Y                Z
 ----------------------------------------------------------------
    1      C       1.5704420212     0.3534991138    -0.3749217232
    2      C       0.7839699735    -0.8593715991    -0.0743412597
    3      C      -0.4177648196    -0.7293816510    -0.9613536173
    4      C      -1.0022496661     0.5992226441     0.8119693617
    5      C      -0.5248644479     1.0770219030    -0.4967115632
    6      N       0.8521267963     1.3925154898    -0.6273094286
    7      H       2.6500705813     0.3749393566    -0.5568802738
    8      H       1.3979501211    -1.7798086592    -0.1744263919
    9      H      -1.0748693472    -1.6079504791    -1.0275324497
   10      H      -1.8712178175     1.0607399705     1.3064144002
   11      H      -1.1055124946     1.9013113160    -0.9165708912
   12      C      -0.4224097634    -0.5824441210     1.1241518971
   13      H      -0.8966110296    -1.2330622277     1.8754243415
 ----------------------------------------------------------------
 Nuclear Repulsion Energy =   274.7916695752 hartrees
 There are       25 alpha and       24 beta electrons
 Requested basis set is 6-31G(d)
 There are 40 shells and 117 basis functions

 Total QAlloc Memory Limit   8000 MB
 Mega-Array Size      1956 MB
 MEM_STATIC part      2000 MB

                       Distance Matrix (Angstroms)
             C (  1)   C (  2)   C (  3)   C (  4)   C (  5)   N (  6)
   C (  2)  1.476463
   C (  3)  2.338696  1.499285
   C (  4)  2.843912  2.470551  2.291612
   C (  5)  2.220051  2.375092  1.868276  1.472696
   N (  6)  1.288112  2.319788  2.495327  2.477811  1.418695
   H (  7)  1.095065  2.288820  3.285535  3.906852  3.252192  2.067129
   H (  8)  2.149640  1.110942  2.240418  3.520472  3.458694  3.250641
   H (  9)  3.357210  2.219060  1.099113  2.874135  2.791658  3.588355
   H ( 10)  3.895138  3.555747  3.234166  1.101172  2.250377  3.356482
   H ( 11)  3.138445  3.449763  2.719476  2.166552  1.092194  2.043256
   C ( 12)  2.663582  1.722912  2.090681  1.352778  2.321965  2.931301
   H ( 13)  3.696970  2.601073  2.920667  2.121170  3.331923  4.026837
             H (  7)   H (  8)   H (  9)   H ( 10)   H ( 11)   C ( 12)
   H (  8)  2.521312
   H (  9)  4.246003  2.621481
   H ( 10)  4.938040  4.577015  3.633647
   H ( 11)  4.069839  4.513175  3.511149  2.496904
   C ( 12)  3.630783  2.536473  2.471257  2.198253  3.286369
   H ( 13)  4.591375  3.125033  2.932486  2.556396  4.202758  1.101173

 
 A cutoff of  1.0D-14 yielded    811 shell pairs
 There are      7083 function pairs
 
 -------------------------------------------------------
 OpenMP Integral Computing Module                       
 Release: version 1.0, May 2013, Q-Chem Inc. Pittsburgh 
 -------------------------------------------------------
 Integral Job Info:
 Integral job number is                      11
 Integral operator is                         1
 short-range coefficients                     0
 long-range coefficients              100000000
 Omega coefficients                           0
 if combine SR and LR in K                    0
 Integral screening is                        0
 Integral computing path is                   2
 max size of driver memory is            800000
 size of driver memory is                593474
 size of scratch memory is              2361544
 max col of scratch BK array               1296
 max len of scratch array in speh3          155
 max len of scratch index in speh4           18
 max int batch size is                      520
 min int batch size is                       52
 fixed nKL is                                52
 max L of basis functions is                  2
 order of int derivative is                   0
 number of shells is                         40
 number of basis is                         117
 number of cartesian basis is               117
 number of contracted shell pairs           811
 number of primitive shell pairs           3553
 maxK2 (contraction) of shell pair           36
 max number of K2 of shell pair               1
 max number of CS2 of shell pair             84
 max number of PS2 of shell pair            384
 mem total for path MDJ                  535308
 -------------------------------------------------------
 Smallest overlap matrix eigenvalue = 1.30E-03

 Scale SEOQF with 1.000000e-01/1.000000e-01/1.000000e-01

 Standard Electronic Orientation quadrupole field applied
 Nucleus-field energy     =     0.0000000018 hartrees
 Guess MOs from core Hamiltonian diagonalization
 Mixing HOMO and LUMO in initial guess
 Adding  50% of the LUMO to the HOMO
 An unrestricted hybrid HF-DFT SCF calculation will be
 performed using Pulay DIIS extrapolation
 Exchange:     0.2000 Hartree-Fock + 0.0800 Slater + 0.7200 B88
 Correlation:  0.1900 VWN1RPA + 0.8100 LYP
 Using SG-1 standard quadrature grid
 SCF converges when DIIS error is below 1.0E-08
 using 4 threads for integral computing
 -------------------------------------------------------
 OpenMP Integral computing Module                
 Release: version 1.0, May 2013, Q-Chem Inc. Pittsburgh 
 -------------------------------------------------------
 -------------------------------------------------------
 OpenMP BLAS3 based DFT computing Module                
 Release: version 1.0, May 2013, Q-Chem Inc. Pittsburgh 
 -------------------------------------------------------
 ---------------------------------------
  Cycle       Energy         DIIS Error
 ---------------------------------------
    1    -234.3381101668      1.38E-01
    2    -225.2051707073      1.04E-01
    3    -241.3108844728      1.20E-01
    4    -280.9488809367      4.68E-02
    5    -281.7889241235      4.49E-02
    6    -286.2476471927      1.45E-02
    7    -286.1658158624      1.56E-02
    8    -286.6788393287      6.21E-03
    9    -286.7599856845      1.37E-03
   10    -286.7648581106      1.21E-03
   11    -286.7674718069      4.24E-04
   12    -286.7681262046      1.49E-04
   13    -286.7682232687      5.71E-05
   14    -286.7682493473      2.21E-05
   15    -286.7682598101      7.18E-06
   16    -286.7682623399      4.38E-06
   17    -286.7682630114      1.83E-06
   18    -286.7682636372      1.13E-06
   19    -286.7682639565      5.20E-07
   20    -286.7682640247      2.94E-07
   21    -286.7682640302      9.65E-08
   22    -286.7682640306      1.75E-08
   23    -286.7682640308      6.83E-09 Convergence criterion met
 ---------------------------------------
 <S^2> = 0.7672
 SCF time:  CPU 55.43 s  wall 14.77 s
 SCF   energy in the final basis set = -286.76826403
 Total energy in the final basis set = -286.76826403
 
 --------------------------------------------------------------
 
                    Orbital Energies (a.u.)
 --------------------------------------------------------------
 
 Alpha MOs
 -- Occupied --
-14.323 -10.236 -10.226 -10.225 -10.222 -10.207 -10.199  -0.951
 -0.820  -0.755  -0.673  -0.608  -0.571  -0.528  -0.497  -0.458
 -0.434  -0.409  -0.390  -0.376  -0.332  -0.292  -0.273  -0.258
 -0.145
 -- Virtual --
 -0.034  -0.001   0.071   0.090   0.102   0.130   0.161   0.169
  0.179   0.188   0.232   0.251   0.284   0.315   0.372   0.385
  0.493   0.498   0.522   0.552   0.569   0.594   0.605   0.617
  0.623   0.639   0.665   0.676   0.688   0.710   0.750   0.792
  0.817   0.840   0.843   0.848   0.863   0.869   0.900   0.920
  0.953   1.040   1.075   1.103   1.160   1.185   1.254   1.327
  1.365   1.435   1.456   1.500   1.544   1.578   1.626   1.640
  1.666   1.794   1.834   1.864   1.947   1.999   2.013   2.026
  2.110   2.143   2.150   2.194   2.235   2.271   2.289   2.346
  2.381   2.419   2.467   2.476   2.557   2.594   2.619   2.630
  2.700   2.781   2.826   2.922   2.985   3.929   4.147   4.242
  4.248   4.368   4.457   4.610
 
 Beta MOs
 -- Occupied --
-14.323 -10.237 -10.226 -10.226 -10.222 -10.195 -10.193  -0.950
 -0.812  -0.751  -0.665  -0.603  -0.559  -0.525  -0.494  -0.453
 -0.430  -0.405  -0.387  -0.374  -0.320  -0.281  -0.266  -0.248
 -- Virtual --
 -0.028  -0.013   0.010   0.081   0.092   0.105   0.132   0.162
  0.173   0.181   0.192   0.237   0.256   0.285   0.319   0.374
  0.388   0.499   0.513   0.531   0.556   0.573   0.603   0.611
  0.624   0.627   0.642   0.675   0.679   0.700   0.718   0.755
  0.794   0.819   0.843   0.846   0.853   0.867   0.871   0.904
  0.923   0.956   1.049   1.082   1.107   1.165   1.189   1.259
  1.331   1.372   1.444   1.465   1.510   1.546   1.585   1.635
  1.649   1.669   1.801   1.847   1.874   1.952   2.013   2.020
  2.039   2.116   2.155   2.161   2.200   2.240   2.274   2.299
  2.360   2.398   2.426   2.473   2.481   2.568   2.599   2.622
  2.634   2.706   2.783   2.829   2.923   2.986   3.929   4.148
  4.252   4.270   4.370   4.462   4.610
 --------------------------------------------------------------
 
          Ground-State Mulliken Net Atomic Charges

     Atom                 Charge (a.u.)    Spin (a.u.)
  --------------------------------------------------------
      1 C                     0.109506      -0.012163
      2 C                    -0.240984      -0.032845
      3 C                    -0.169462       0.929494
      4 C                    -0.074729       0.256201
      5 C                    -0.064057      -0.057819
      6 N                    -0.326217       0.012349
      7 H                     0.153587       0.000799
      8 H                     0.146343       0.006810
      9 H                     0.144474      -0.035209
     10 H                     0.152910      -0.014131
     11 H                     0.143469       0.001129
     12 C                    -0.127504      -0.068592
     13 H                     0.152665       0.013978
  --------------------------------------------------------
  Sum of atomic charges =     0.000000
  Sum of spin   charges =     1.000000

 -----------------------------------------------------------------
                    Cartesian Multipole Moments
 -----------------------------------------------------------------
    Charge (ESU x 10^10)
                 0.0000
    Dipole Moment (Debye)
         X      -0.7282      Y      -1.7991      Z       1.2441
       Tot       2.3054
    Quadrupole Moments (Debye-Ang)
        XX     -36.7497     XY      -3.6689     YY     -41.4404
        XZ      -1.4197     YZ       0.4159     ZZ     -43.3145
    Octopole Moments (Debye-Ang^2)
       XXX      -4.1269    XXY      -6.6613    XYY     -12.1246
       YYY     -26.0140    XXZ       3.4149    XYZ       2.3086
       YYZ       5.2216    XZZ      -7.3308    YZZ      -7.2129
       ZZZ      15.1706
    Hexadecapole Moments (Debye-Ang^3)
      XXXX    -247.9368   XXXY      -7.5784   XXYY     -86.3000
      XYYY     -18.5490   YYYY    -263.9073   XXXZ      25.9857
      XXYZ       8.8337   XYYZ      15.4449   YYYZ      21.8416
      XXZZ     -74.1998   XYZZ      -1.3844   YYZZ     -74.8092
      XZZZ      30.9082   YZZZ      11.5131   ZZZZ    -199.3052
 -----------------------------------------------------------------
Archival summary:
1\1\c8-66\SP\ProcedureUnspecified\6-31G*\166(2)\hpark21\FriMar401:55:042022FriMar401:55:042022\0\\#,ProcedureUnspecified,6-31G*,\\0,2\N\C,1,1.28811\H,2,1.09506,1,120.095\C,1,1.4187,2,110.111,3,171.811,0\H,4,1.09219,1,108.227,2,-168.181,0\C,4,1.4727,1,117.942,2,59.8894,0\H,6,1.10117,4,121.254,1,128.579,0\C,6,1.35278,4,110.458,1,-63.8865,0\H,8,1.10117,6,119.273,4,-159.725,0\C,2,1.47646,1,113.92,3,-169.801,0\H,10,1.11094,2,111.585,1,162.28,0\C,10,1.49928,2,103.609,1,34.9483,0\H,12,1.09911,10,116.456,2,170.423,0\\\@

 Total job time:  15.49s(wall), 57.00s(cpu) 
 Fri Mar  4 01:55:04 2022

        *************************************************************
        *                                                           *
        *  Thank you very much for using Q-Chem.  Have a nice day.  *
        *                                                           *
        *************************************************************


