
Running Job 1 of 1 qcts1.in
qchem qcts1.in_42916.0 ./qcts1.d/ 1
/home/leeping/opt/qchem/5.0.2-openmp/exe/qcprog.exe_s qcts1.in_42916.0 ./qcts1.d/
Check license passed

                  Welcome to Q-Chem
     A Quantum Leap Into The Future Of Chemistry


 Q-Chem 5.0, Q-Chem, Inc., Pleasanton, CA (2017)

 Yihan Shao,  Zhengting Gan,  E. Epifanovsky,  A. T. B. Gilbert,  M. Wormit,  
 J. Kussmann,  A. W. Lange,  A. Behn,  Jia Deng,  Xintian Feng,  D. Ghosh,  
 M. Goldey,  P. R. Horn,  L. D. Jacobson,  I. Kaliman,  T. Kus,  A. Landau,  
 Jie Liu,  E. I. Proynov,  R. M. Richard,  R. P. Steele,  E. J. Sundstrom,  
 H. L. Woodcock III,  P. M. Zimmerman,  D. Zuev,  B. Albrecht,  E. Alguire,  
 S. A. Baeppler,  D. Barton,  Z. Benda,  Y. A. Bernard,  E. J. Berquist,  
 K. B. Bravaya,  H. Burton,  D. Casanova,  Chun-Min Chang,  Yunqing Chen,  
 A. Chien,  K. D. Closser,  M. P. Coons,  S. Dasgupta,  A. L. Dempwolff,  
 M. Diedenhofen,  Hainam Do,  R. G. Edgar,  Po-Tung Fang,  S. Fatehi,  
 Qingguo Feng,  J. Fosso-Tande,  Qinghui Ge,  A. Ghysels,  G. Gidofalvi,  
 J. Gomes,  J. Gonthier,  A. Gunina,  M. W. D. Hanson-Heine,  
 P. H. P. Harbach,  A. W. Hauser,  J. E. Herr,  E. G. Hohenstein,  
 Z. C. Holden,  Kerwin Hui,  T.-C. Jagau,  Hyunjun Ji,  B. Kaduk,  
 K. Khistyaev,  Jaehoon Kim,  P. Klunzinger,  K. Koh,  D. Kosenkov,  
 L. Koulias,  T. Kowalczyk,  C. M. Krauter,  A. Kunitsa,  Ka Un Lao,  
 A. Laurent,  K. V. Lawler,  Joonho Lee,  D. Lefrancois,  S. Lehtola,  
 D. S. Levine,  Yi-Pei Li,  You-Sheng Lin,  Fenglai Liu,  E. Livshits,  
 A. Luenser,  P. Manohar,  E. Mansoor,  S. F. Manzer,  Shan-Ping Mao,  
 Yuezhi Mao,  N. Mardirossian,  A. V. Marenich,  T. Markovich,  
 L. A. Martinez-Martinez,  S. A. Maurer,  N. J. Mayhall,  S. C. McKenzie,  
 J.-M. Mewes,  A. F. Morrison,  J. W. Mullinax,  K. Nanda,  
 T. S. Nguyen-Beck,  R. Olivares-Amaya,  J. A. Parkhill,  T. M. Perrine,  
 F. Plasser,  S. Prager,  A. Prociuk,  E. Ramos,  D. R. Rehn,  F. Rob,  
 M. Schneider,  N. Sergueev,  S. M. Sharada,  S. Sharma,  D. W. Small,  
 T. Stauch,  T. Stein,  Yu-Chuan Su,  A. J. W. Thom,  A. Tkatchenko,  
 T. Tsuchimochi,  L. Vogt,  O. Vydrov,  M. A. Watson,  J. Wenzel,  
 M. de Wergifosse,  T. A. Wesolowski,  A. White,  J. Witte,  A. Yamada,  
 Jun Yang,  K. Yao,  S. Yeganeh,  S. R. Yost,  Zhi-Qiang You,  A. Zech,  
 Igor Ying Zhang,  Xing Zhang,  Yan Zhao,  Ying Zhu,  B. R. Brooks,  
 G. K. L. Chan,  C. J. Cramer,  M. S. Gordon,  W. J. Hehre,  A. Klamt,  
 M. W. Schmidt,  C. D. Sherrill,  D. G. Truhlar,  A. Aspuru-Guzik,  R. Baer,  
 A. T. Bell,  N. A. Besley,  Jeng-Da Chai,  R. A. DiStasio Jr.,  A. Dreuw,  
 B. D. Dunietz,  T. R. Furlani,  Chao-Ping Hsu,  Yousung Jung,  Jing Kong,  
 D. S. Lambrecht,  WanZhen Liang,  C. Ochsenfeld,  V. A. Rassolov,  
 L. V. Slipchenko,  J. E. Subotnik,  T. Van Voorhis,  J. M. Herbert,  
 A. I. Krylov,  P. M. W. Gill,  M. Head-Gordon

 Contributors to earlier versions of Q-Chem not listed above: 
 R. D. Adamson,  B. Austin,  J. Baker,  G. J. O. Beran,  K. Brandhorst,  
 S. T. Brown,  E. F. C. Byrd,  A. K. Chakraborty,  C.-L. Cheng,  
 Siu Hung Chien,  D. M. Chipman,  D. L. Crittenden,  H. Dachsel,  
 R. J. Doerksen,  A. D. Dutoi,  L. Fusti-Molnar,  W. A. Goddard III,  
 A. Golubeva-Zadorozhnaya,  S. R. Gwaltney,  G. Hawkins,  A. Heyden,  
 S. Hirata,  G. Kedziora,  F. J. Keil,  C. Kelley,  Jihan Kim,  R. A. King,  
 R. Z. Khaliullin,  P. P. Korambath,  W. Kurlancheek,  A. M. Lee,  M. S. Lee,  
 S. V. Levchenko,  Ching Yeh Lin,  D. Liotard,  R. C. Lochan,  I. Lotan,  
 P. E. Maslen,  N. Nair,  D. P. O'Neill,  D. Neuhauser,  E. Neuscamman,  
 C. M. Oana,  R. Olson,  B. Peters,  R. Peverati,  P. A. Pieniazek,  
 Y. M. Rhee,  J. Ritchie,  M. A. Rohrdanz,  E. Rosta,  N. J. Russ,  
 H. F. Schaefer III,  N. E. Schultz,  N. Shenvi,  A. C. Simmonett,  A. Sodt,  
 D. Stuck,  K. S. Thanthiriwatte,  V. Vanovschi,  Tao Wang,  A. Warshel,  
 C. F. Williams,  Q. Wu,  X. Xu,  W. Zhang

 Please cite Q-Chem as follows:
 Y. Shao et al., Mol. Phys. 113, 184-215 (2015)
 DOI: 10.1080/00268976.2014.952696

 Q-Chem 5.0.2 for Intel X86 EM64T Linux

 Parts of Q-Chem use Armadillo 5.200.1 (Boston Tea Smuggler).
 http://arma.sourceforge.net/

 Q-Chem begins on Fri Mar  4 02:09:09 2022  

Host: 
0

     Scratch files written to ./qcts1.d//
 Dec517 15110_ 26548  26544 5633   
Processing $rem in /home/leeping/opt/qchem/5.0.2-openmp/config/preferences.
 MEM_STATIC 2000
 MEM_TOTAL  8000
 SYMMETRY   OFF
 SYM_IGNORE TRUE 

Checking the input file for inconsistencies... 	...done.

--------------------------------------------------------------
User input:
--------------------------------------------------------------
$molecule
0 2
C        1.5354393401    0.3832944779   -0.3256694458
C        0.7245705370   -0.8602902258   -0.0513494538
C       -0.5067711270   -0.6177194884   -0.8644781985
C       -0.9515981836    0.6536513395    0.8625448319
C       -0.6016824958    0.9029894543   -0.5997538397
N        0.8179073632    1.3885105789   -0.6627838579
H        2.6140108667    0.4590111391   -0.1968424699
H        1.1961026439   -1.8403808695   -0.0300431970
H       -1.1684291520   -1.3021878851   -1.3745517282
H       -1.5498146592    1.2281879579    1.5559056306
H       -1.2730329984    1.5217166439   -1.1943562954
C       -0.3537749900   -0.6050373942    1.0073421467
H       -0.5438670375   -1.3445146718    1.7819482791
$end

$rem
method                b3lyp
basis                 6-31g(d)
unrestricted          true
symmetry              off
sym_ignore            true
incdft                false
incfock               0
scf_convergence       6
thresh                14
jobtype               sp
scf_guess             read
scf_algorithm         diis
max_scf_cycles        100
stability_analysis    true
max_cis_cycles        100
cis_n_roots           4
$end

--------------------------------------------------------------
 ----------------------------------------------------------------
             Standard Nuclear Orientation (Angstroms)
    I     Atom           X                Y                Z
 ----------------------------------------------------------------
    1      C       1.5354393401     0.3832944779    -0.3256694458
    2      C       0.7245705370    -0.8602902258    -0.0513494538
    3      C      -0.5067711270    -0.6177194884    -0.8644781985
    4      C      -0.9515981836     0.6536513395     0.8625448319
    5      C      -0.6016824958     0.9029894543    -0.5997538397
    6      N       0.8179073632     1.3885105789    -0.6627838579
    7      H       2.6140108667     0.4590111391    -0.1968424699
    8      H       1.1961026439    -1.8403808695    -0.0300431970
    9      H      -1.1684291520    -1.3021878851    -1.3745517282
   10      H      -1.5498146592     1.2281879579     1.5559056306
   11      H      -1.2730329984     1.5217166439    -1.1943562954
   12      C      -0.3537749900    -0.6050373942     1.0073421467
   13      H      -0.5438670375    -1.3445146718     1.7819482791
 ----------------------------------------------------------------
 Nuclear Repulsion Energy =   280.6592732736 hartrees
 There are       25 alpha and       24 beta electrons
 Requested basis set is 6-31G(d)
 There are 40 shells and 117 basis functions

 Total QAlloc Memory Limit   8000 MB
 Mega-Array Size      1956 MB
 MEM_STATIC part      2000 MB

                       Distance Matrix (Angstroms)
             C (  1)   C (  2)   C (  3)   C (  4)   C (  5)   N (  6)
   C (  2)  1.509723
   C (  3)  2.337299  1.495400
   C (  4)  2.769531  2.436547  2.190174
   C (  5)  2.216415  2.273510  1.546494  1.524115
   N (  6)  1.280218  2.332310  2.412553  2.449040  1.501645
   H (  7)  1.088874  2.309049  3.368140  3.724749  3.271107  2.075345
   H (  8)  2.268761  1.087830  2.256316  3.410210  3.329066  3.311968
   H (  9)  3.354387  2.351507  1.080029  2.979417  2.405061  3.419357
   H ( 10)  3.711194  3.481069  3.217697  1.081066  2.377304  3.248753
   H ( 11)  3.152481  3.312226  2.296337  2.255593  1.089535  2.161561
   C ( 12)  2.514528  1.532583  1.878105  1.400948  2.217738  2.852436
   H ( 13)  3.427957  2.281313  2.744664  2.237010  3.275229  3.911595
             H (  7)   H (  8)   H (  9)   H ( 10)   H ( 11)   C ( 12)
   H (  8)  2.706564
   H (  9)  4.335398  2.772790
   H ( 10)  4.582707  4.412642  3.890480
   H ( 11)  4.151324  4.330815  2.831581  2.779696
   C ( 12)  3.374909  2.237043  2.612106  2.256579  3.196184
   H ( 13)  4.140110  2.560604  3.217975  2.771610  4.195873  1.087647

 
 A cutoff of  1.0D-14 yielded    813 shell pairs
 There are      7085 function pairs
 Smallest overlap matrix eigenvalue = 1.15E-03

 Scale SEOQF with 1.000000e-01/1.000000e-01/1.000000e-01

 Standard Electronic Orientation quadrupole field applied
 Nucleus-field energy     =     0.0000000014 hartrees
 Guess MOs from SCF MO coefficient file
 Reading MOs from coefficient file
 Reading MOs from coefficient file
 An unrestricted hybrid HF-DFT SCF calculation will be
 performed using Pulay DIIS extrapolation
 Exchange:     0.2000 Hartree-Fock + 0.0800 Slater + 0.7200 B88
 Correlation:  0.1900 VWN1RPA + 0.8100 LYP
 Using SG-1 standard quadrature grid
 SCF converges when DIIS error is below 1.0E-06
Using Q-Chem read-in guess as SCF_GUESS READ specified.

 -------------------------------------------------------
 OpenMP BLAS3 based DFT computing Module                
 -------------------------------------------------------
 ---------------------------------------
  Cycle       Energy         DIIS Error
 ---------------------------------------
    1    -286.8208081795      5.12E-10
    2    -286.8208081795      8.51E-10 Convergence criterion met
 ---------------------------------------
 <S^2> = 0.7842
 SCF time:  CPU 3.18 s  wall 3.37 s
 SCF   energy in the final basis set = -286.82080818
 Total energy in the final basis set = -286.82080818
 
 Direct TDDFT/TDA calculation will be performed
 Exchange:     0.2000 Hartree-Fock + 0.0800 Slater + 0.7200 B88
 Correlation:  0.1900 VWN1RPA + 0.8100 LYP
 Using SG-1 standard quadrature grid
 CIS energy converged when residual is below 10e- 6
 ---------------------------------------------------
 Iter    Rts Conv    Rts Left    Ttl Dev     Max Dev
 ---------------------------------------------------
   1         0           4      0.004906    0.001718
   2         0           4      0.001265    0.000421
   3         0           4      0.000831    0.000491
   4         0           4      0.001253    0.000751
   5         0           4      0.000685    0.000431
   6         0           4      0.000592    0.000423
   7         1           3      0.000442    0.000302
   8         2           2      0.000117    0.000078
   9         2           2      0.000023    0.000015
  10         2           2      0.000006    0.000004
  11         4           0      0.000002    0.000001    Roots Converged
 ---------------------------------------------------
 
 ---------------------------------------------------
         TDDFT/TDA Excitation Energies              
 ---------------------------------------------------

 Excited state   1: excitation energy (eV) =    2.4779
 Total energy for state  1:                  -286.72974642 au
    <S**2>     :  0.7849
    Trans. Mom.:  0.1706 X   0.2696 Y   0.1944 Z
    Strength   :     0.0084733262
    S(  1) --> V(  1) amplitude =  0.9291 alpha
    S(  1) --> V(  2) amplitude = -0.2991 alpha

 Excited state   2: excitation energy (eV) =    2.9078
 Total energy for state  2:                  -286.71394721 au
    <S**2>     :  0.7875
    Trans. Mom.:  0.2622 X  -0.0453 Y  -0.2974 Z
    Strength   :     0.0113459133
    S(  1) --> V(  1) amplitude =  0.3345 alpha
    S(  1) --> V(  2) amplitude =  0.9096 alpha

 Excited state   3: excitation energy (eV) =    4.4988
 Total energy for state  3:                  -286.65547891 au
    <S**2>     :  2.4922
    Trans. Mom.:  0.0247 X   0.0544 Y   0.0475 Z
    Strength   :     0.0006425309
    D( 23) --> V(  1) amplitude = -0.3093 alpha
    D( 23) --> V(  2) amplitude = -0.1565 alpha
    D( 24) --> V(  1) amplitude = -0.4897 alpha
    D( 24) --> V(  2) amplitude = -0.1828 alpha
    D( 23) --> S(  1) amplitude =  0.3432 beta
    D( 23) --> V(  1) amplitude =  0.3437 beta
    D( 24) --> S(  1) amplitude =  0.4343 beta
    D( 24) --> V(  1) amplitude =  0.3485 beta

 Excited state   4: excitation energy (eV) =    4.6038
 Total energy for state  4:                  -286.65162099 au
    <S**2>     :  2.4297
    Trans. Mom.:  0.0684 X   0.1050 Y   0.0899 Z
    Strength   :     0.0026842941
    D( 22) --> V(  1) amplitude =  0.1853 alpha
    D( 23) --> V(  1) amplitude =  0.4649 alpha
    D( 23) --> V(  2) amplitude =  0.1933 alpha
    D( 24) --> V(  1) amplitude = -0.2357 alpha
    D( 22) --> S(  1) amplitude = -0.3547 beta
    D( 22) --> V(  1) amplitude = -0.3733 beta
    D( 23) --> S(  1) amplitude = -0.2073 beta
    D( 23) --> V(  1) amplitude = -0.1700 beta
    D( 24) --> S(  1) amplitude =  0.4094 beta
    D( 24) --> V(  1) amplitude =  0.2646 beta
 
 ---------------------------------------------------

 Stability analysis will be performed
 ---------------------------------------------------
 Iter    Rts Conv    Rts Left    Ttl Dev     Max Dev
 ---------------------------------------------------
   1         0           8      0.005957    0.000897
   2         0           8      0.002302    0.000453
   3         0           8      0.000887    0.000208
   4         1           7      0.000545    0.000149
   5         2           6      0.000332    0.000134
   6         2           6      0.000116    0.000069
   7         3           5      0.000033    0.000021
   8         6           2      0.000010    0.000006
   9         7           1      0.000005    0.000002
  10         8           0      0.000003    0.000001    Roots Converged
 UKS-> UKS   stable,    smallest eigenvalue:      0.0788261
 UKS->CUKS   stable,    smallest eigenvalue:      0.0903472
 ---------------------------------------------------
  SETman timing summary (seconds)
  CPU time                85.48s
  System time              0.00s
  Wall time               86.04s
 
 --------------------------------------------------------------
 
                    Orbital Energies (a.u.)
 --------------------------------------------------------------
 
 Alpha MOs
 -- Occupied --
-14.318 -10.221 -10.220 -10.217 -10.214 -10.209 -10.186  -0.956
 -0.837  -0.739  -0.679  -0.591  -0.576  -0.536  -0.515  -0.463
 -0.425  -0.408  -0.397  -0.376  -0.341  -0.295  -0.273  -0.252
 -0.140
 -- Virtual --
 -0.001   0.016   0.095   0.141   0.146   0.154   0.158   0.165
  0.177   0.205   0.218   0.261   0.301   0.310   0.362   0.371
  0.486   0.496   0.517   0.544   0.576   0.585   0.603   0.616
  0.622   0.636   0.665   0.682   0.712   0.754   0.768   0.791
  0.812   0.828   0.848   0.856   0.857   0.879   0.896   0.926
  0.961   1.006   1.103   1.127   1.136   1.252   1.265   1.318
  1.391   1.450   1.498   1.520   1.576   1.636   1.669   1.757
  1.769   1.803   1.832   1.897   1.931   1.975   2.015   2.062
  2.071   2.158   2.182   2.226   2.252   2.303   2.333   2.409
  2.424   2.459   2.516   2.538   2.590   2.629   2.634   2.659
  2.724   2.797   2.849   2.917   2.951   3.936   4.162   4.264
  4.308   4.444   4.515   4.665
 
 Beta MOs
 -- Occupied --
-14.318 -10.224 -10.220 -10.216 -10.214 -10.200 -10.176  -0.952
 -0.832  -0.731  -0.669  -0.586  -0.567  -0.534  -0.507  -0.458
 -0.421  -0.403  -0.395  -0.374  -0.335  -0.279  -0.263  -0.248
 -- Virtual --
 -0.023   0.008   0.030   0.098   0.148   0.149   0.157   0.160
  0.167   0.180   0.210   0.223   0.265   0.305   0.315   0.365
  0.376   0.491   0.507   0.523   0.547   0.581   0.598   0.610
  0.619   0.640   0.648   0.675   0.686   0.719   0.758   0.772
  0.792   0.814   0.829   0.851   0.857   0.863   0.881   0.900
  0.930   0.964   1.013   1.108   1.132   1.147   1.255   1.268
  1.327   1.393   1.453   1.511   1.523   1.584   1.641   1.679
  1.765   1.776   1.810   1.836   1.916   1.939   1.977   2.029
  2.071   2.080   2.162   2.191   2.237   2.263   2.309   2.351
  2.418   2.432   2.471   2.519   2.545   2.593   2.631   2.643
  2.666   2.731   2.802   2.853   2.919   2.952   3.937   4.164
  4.274   4.326   4.447   4.519   4.668
 --------------------------------------------------------------
 
          Ground-State Mulliken Net Atomic Charges

     Atom                 Charge (a.u.)    Spin (a.u.)
  --------------------------------------------------------
      1 C                     0.099586       0.045339
      2 C                    -0.199049       0.005037
      3 C                    -0.133048       0.603208
      4 C                    -0.077602       0.682941
      5 C                    -0.095693      -0.069530
      6 N                    -0.338671      -0.005297
      7 H                     0.144885       0.001448
      8 H                     0.142578       0.003559
      9 H                     0.158475      -0.031245
     10 H                     0.141190      -0.028659
     11 H                     0.139931       0.008217
     12 C                    -0.131379      -0.229358
     13 H                     0.148799       0.014341
  --------------------------------------------------------
  Sum of atomic charges =    -0.000000
  Sum of spin   charges =     1.000000

 -----------------------------------------------------------------
                    Cartesian Multipole Moments
 -----------------------------------------------------------------
    Charge (ESU x 10^10)
                -0.0000
    Dipole Moment (Debye)
         X      -0.6542      Y      -2.5029      Z       0.7571
       Tot       2.6955
    Quadrupole Moments (Debye-Ang)
        XX     -38.2091     XY      -3.2419     YY     -42.3744
        XZ       1.2125     YZ       0.9715     ZZ     -40.4228
    Octopole Moments (Debye-Ang^2)
       XXX      -1.1447    XXY      -6.2179    XYY      -9.8368
       YYY     -29.8283    XXZ       2.6344    XYZ       0.8953
       YYZ       6.6629    XZZ      -8.5940    YZZ      -8.3317
       ZZZ      12.4412
    Hexadecapole Moments (Debye-Ang^3)
      XXXX    -242.2176   XXXY      -4.1026   XXYY     -82.5016
      XYYY     -17.8747   YYYY    -252.0994   XXXZ      26.0434
      XXYZ      10.3201   XYYZ      12.9292   YYYZ      23.7182
      XXZZ     -71.8555   XYZZ      -3.3118   YYZZ     -68.5544
      XZZZ      24.7038   YZZZ      17.0556   ZZZZ    -183.9093
 -----------------------------------------------------------------
Archival summary:
1\1\c8-66\SP\ProcedureUnspecified\6-31G*\166(2)\hpark21\FriMar402:10:402022FriMar402:10:402022\0\\#,ProcedureUnspecified,6-31G*,\\0,2\N\C,1,1.28022\H,2,1.08887,1,122.122\C,1,1.50165,2,105.362,3,-174.624,0\H,4,1.08954,1,112.086,2,-159.212,0\C,2,1.50972,1,113.178,3,176.473,0\H,6,1.08783,2,120.856,1,162.748,0\C,6,1.4954,2,102.113,1,24.9934,0\H,8,1.08003,6,131.182,2,148.449,0\C,4,1.52412,1,108.072,2,68.5919,0\H,10,1.08107,4,130.954,1,104.098,0\C,10,1.40095,4,98.5213,1,-80.539,0\H,12,1.08765,10,127.581,4,-161.74,0\\\@

 Total job time:  90.77s(wall), 88.84s(cpu) 
 Fri Mar  4 02:10:40 2022

        *************************************************************
        *                                                           *
        *  Thank you very much for using Q-Chem.  Have a nice day.  *
        *                                                           *
        *************************************************************


