
Running Job 1 of 1 qcts2.in
qchem qcts2.in_43004.0 ./qcts2.d/ 1
/home/leeping/opt/qchem/5.0.2-openmp/exe/qcprog.exe_s qcts2.in_43004.0 ./qcts2.d/
Check license passed

                  Welcome to Q-Chem
     A Quantum Leap Into The Future Of Chemistry


 Q-Chem 5.0, Q-Chem, Inc., Pleasanton, CA (2017)

 Yihan Shao,  Zhengting Gan,  E. Epifanovsky,  A. T. B. Gilbert,  M. Wormit,  
 J. Kussmann,  A. W. Lange,  A. Behn,  Jia Deng,  Xintian Feng,  D. Ghosh,  
 M. Goldey,  P. R. Horn,  L. D. Jacobson,  I. Kaliman,  T. Kus,  A. Landau,  
 Jie Liu,  E. I. Proynov,  R. M. Richard,  R. P. Steele,  E. J. Sundstrom,  
 H. L. Woodcock III,  P. M. Zimmerman,  D. Zuev,  B. Albrecht,  E. Alguire,  
 S. A. Baeppler,  D. Barton,  Z. Benda,  Y. A. Bernard,  E. J. Berquist,  
 K. B. Bravaya,  H. Burton,  D. Casanova,  Chun-Min Chang,  Yunqing Chen,  
 A. Chien,  K. D. Closser,  M. P. Coons,  S. Dasgupta,  A. L. Dempwolff,  
 M. Diedenhofen,  Hainam Do,  R. G. Edgar,  Po-Tung Fang,  S. Fatehi,  
 Qingguo Feng,  J. Fosso-Tande,  Qinghui Ge,  A. Ghysels,  G. Gidofalvi,  
 J. Gomes,  J. Gonthier,  A. Gunina,  M. W. D. Hanson-Heine,  
 P. H. P. Harbach,  A. W. Hauser,  J. E. Herr,  E. G. Hohenstein,  
 Z. C. Holden,  Kerwin Hui,  T.-C. Jagau,  Hyunjun Ji,  B. Kaduk,  
 K. Khistyaev,  Jaehoon Kim,  P. Klunzinger,  K. Koh,  D. Kosenkov,  
 L. Koulias,  T. Kowalczyk,  C. M. Krauter,  A. Kunitsa,  Ka Un Lao,  
 A. Laurent,  K. V. Lawler,  Joonho Lee,  D. Lefrancois,  S. Lehtola,  
 D. S. Levine,  Yi-Pei Li,  You-Sheng Lin,  Fenglai Liu,  E. Livshits,  
 A. Luenser,  P. Manohar,  E. Mansoor,  S. F. Manzer,  Shan-Ping Mao,  
 Yuezhi Mao,  N. Mardirossian,  A. V. Marenich,  T. Markovich,  
 L. A. Martinez-Martinez,  S. A. Maurer,  N. J. Mayhall,  S. C. McKenzie,  
 J.-M. Mewes,  A. F. Morrison,  J. W. Mullinax,  K. Nanda,  
 T. S. Nguyen-Beck,  R. Olivares-Amaya,  J. A. Parkhill,  T. M. Perrine,  
 F. Plasser,  S. Prager,  A. Prociuk,  E. Ramos,  D. R. Rehn,  F. Rob,  
 M. Schneider,  N. Sergueev,  S. M. Sharada,  S. Sharma,  D. W. Small,  
 T. Stauch,  T. Stein,  Yu-Chuan Su,  A. J. W. Thom,  A. Tkatchenko,  
 T. Tsuchimochi,  L. Vogt,  O. Vydrov,  M. A. Watson,  J. Wenzel,  
 M. de Wergifosse,  T. A. Wesolowski,  A. White,  J. Witte,  A. Yamada,  
 Jun Yang,  K. Yao,  S. Yeganeh,  S. R. Yost,  Zhi-Qiang You,  A. Zech,  
 Igor Ying Zhang,  Xing Zhang,  Yan Zhao,  Ying Zhu,  B. R. Brooks,  
 G. K. L. Chan,  C. J. Cramer,  M. S. Gordon,  W. J. Hehre,  A. Klamt,  
 M. W. Schmidt,  C. D. Sherrill,  D. G. Truhlar,  A. Aspuru-Guzik,  R. Baer,  
 A. T. Bell,  N. A. Besley,  Jeng-Da Chai,  R. A. DiStasio Jr.,  A. Dreuw,  
 B. D. Dunietz,  T. R. Furlani,  Chao-Ping Hsu,  Yousung Jung,  Jing Kong,  
 D. S. Lambrecht,  WanZhen Liang,  C. Ochsenfeld,  V. A. Rassolov,  
 L. V. Slipchenko,  J. E. Subotnik,  T. Van Voorhis,  J. M. Herbert,  
 A. I. Krylov,  P. M. W. Gill,  M. Head-Gordon

 Contributors to earlier versions of Q-Chem not listed above: 
 R. D. Adamson,  B. Austin,  J. Baker,  G. J. O. Beran,  K. Brandhorst,  
 S. T. Brown,  E. F. C. Byrd,  A. K. Chakraborty,  C.-L. Cheng,  
 Siu Hung Chien,  D. M. Chipman,  D. L. Crittenden,  H. Dachsel,  
 R. J. Doerksen,  A. D. Dutoi,  L. Fusti-Molnar,  W. A. Goddard III,  
 A. Golubeva-Zadorozhnaya,  S. R. Gwaltney,  G. Hawkins,  A. Heyden,  
 S. Hirata,  G. Kedziora,  F. J. Keil,  C. Kelley,  Jihan Kim,  R. A. King,  
 R. Z. Khaliullin,  P. P. Korambath,  W. Kurlancheek,  A. M. Lee,  M. S. Lee,  
 S. V. Levchenko,  Ching Yeh Lin,  D. Liotard,  R. C. Lochan,  I. Lotan,  
 P. E. Maslen,  N. Nair,  D. P. O'Neill,  D. Neuhauser,  E. Neuscamman,  
 C. M. Oana,  R. Olson,  B. Peters,  R. Peverati,  P. A. Pieniazek,  
 Y. M. Rhee,  J. Ritchie,  M. A. Rohrdanz,  E. Rosta,  N. J. Russ,  
 H. F. Schaefer III,  N. E. Schultz,  N. Shenvi,  A. C. Simmonett,  A. Sodt,  
 D. Stuck,  K. S. Thanthiriwatte,  V. Vanovschi,  Tao Wang,  A. Warshel,  
 C. F. Williams,  Q. Wu,  X. Xu,  W. Zhang

 Please cite Q-Chem as follows:
 Y. Shao et al., Mol. Phys. 113, 184-215 (2015)
 DOI: 10.1080/00268976.2014.952696

 Q-Chem 5.0.2 for Intel X86 EM64T Linux

 Parts of Q-Chem use Armadillo 5.200.1 (Boston Tea Smuggler).
 http://arma.sourceforge.net/

 Q-Chem begins on Fri Mar  4 02:11:19 2022  

Host: 
0

     Scratch files written to ./qcts2.d//
 Dec517 15110_ 26548  26544 5633   
Processing $rem in /home/leeping/opt/qchem/5.0.2-openmp/config/preferences.
 MEM_STATIC 2000
 MEM_TOTAL  8000
 SYMMETRY   OFF
 SYM_IGNORE TRUE 

Checking the input file for inconsistencies... 	...done.

--------------------------------------------------------------
User input:
--------------------------------------------------------------
$molecule
0 2
C        1.5354393401    0.3832944779   -0.3256694458
C        0.7245705370   -0.8602902258   -0.0513494538
C       -0.5067711270   -0.6177194884   -0.8644781985
C       -0.9515981836    0.6536513395    0.8625448319
C       -0.6016824958    0.9029894543   -0.5997538397
N        0.8179073632    1.3885105789   -0.6627838579
H        2.6140108667    0.4590111391   -0.1968424699
H        1.1961026439   -1.8403808695   -0.0300431970
H       -1.1684291520   -1.3021878851   -1.3745517282
H       -1.5498146592    1.2281879579    1.5559056306
H       -1.2730329984    1.5217166439   -1.1943562954
C       -0.3537749900   -0.6050373942    1.0073421467
H       -0.5438670375   -1.3445146718    1.7819482791
$end

$rem
method                b3lyp
basis                 6-31+g(d,p)
unrestricted          true
symmetry              off
sym_ignore            true
incdft                false
incfock               0
scf_convergence       6
thresh                14
jobtype               sp
scf_guess             read
scf_algorithm         diis
max_scf_cycles        100
stability_analysis    true
max_cis_cycles        100
cis_n_roots           4
$end

--------------------------------------------------------------
 ----------------------------------------------------------------
             Standard Nuclear Orientation (Angstroms)
    I     Atom           X                Y                Z
 ----------------------------------------------------------------
    1      C       1.5354393401     0.3832944779    -0.3256694458
    2      C       0.7245705370    -0.8602902258    -0.0513494538
    3      C      -0.5067711270    -0.6177194884    -0.8644781985
    4      C      -0.9515981836     0.6536513395     0.8625448319
    5      C      -0.6016824958     0.9029894543    -0.5997538397
    6      N       0.8179073632     1.3885105789    -0.6627838579
    7      H       2.6140108667     0.4590111391    -0.1968424699
    8      H       1.1961026439    -1.8403808695    -0.0300431970
    9      H      -1.1684291520    -1.3021878851    -1.3745517282
   10      H      -1.5498146592     1.2281879579     1.5559056306
   11      H      -1.2730329984     1.5217166439    -1.1943562954
   12      C      -0.3537749900    -0.6050373942     1.0073421467
   13      H      -0.5438670375    -1.3445146718     1.7819482791
 ----------------------------------------------------------------
 Nuclear Repulsion Energy =   280.6592732736 hartrees
 There are       25 alpha and       24 beta electrons
 Requested basis set is 6-31+G(d,p)
 There are 53 shells and 163 basis functions

 Total QAlloc Memory Limit   8000 MB
 Mega-Array Size      1956 MB
 MEM_STATIC part      2000 MB

                       Distance Matrix (Angstroms)
             C (  1)   C (  2)   C (  3)   C (  4)   C (  5)   N (  6)
   C (  2)  1.509723
   C (  3)  2.337299  1.495400
   C (  4)  2.769531  2.436547  2.190174
   C (  5)  2.216415  2.273510  1.546494  1.524115
   N (  6)  1.280218  2.332310  2.412553  2.449040  1.501645
   H (  7)  1.088874  2.309049  3.368140  3.724749  3.271107  2.075345
   H (  8)  2.268761  1.087830  2.256316  3.410210  3.329066  3.311968
   H (  9)  3.354387  2.351507  1.080029  2.979417  2.405061  3.419357
   H ( 10)  3.711194  3.481069  3.217697  1.081066  2.377304  3.248753
   H ( 11)  3.152481  3.312226  2.296337  2.255593  1.089535  2.161561
   C ( 12)  2.514528  1.532583  1.878105  1.400948  2.217738  2.852436
   H ( 13)  3.427957  2.281313  2.744664  2.237010  3.275229  3.911595
             H (  7)   H (  8)   H (  9)   H ( 10)   H ( 11)   C ( 12)
   H (  8)  2.706564
   H (  9)  4.335398  2.772790
   H ( 10)  4.582707  4.412642  3.890480
   H ( 11)  4.151324  4.330815  2.831581  2.779696
   C ( 12)  3.374909  2.237043  2.612106  2.256579  3.196184
   H ( 13)  4.140110  2.560604  3.217975  2.771610  4.195873  1.087647

 
 A cutoff of  1.0D-14 yielded   1404 shell pairs
 There are     13506 function pairs
 Smallest overlap matrix eigenvalue = 2.29E-05

 Scale SEOQF with 1.000000e-01/1.000000e-01/1.000000e-01

 Standard Electronic Orientation quadrupole field applied
 Nucleus-field energy     =     0.0000000014 hartrees
 Guess MOs from SCF MO coefficient file
 Reading MOs from coefficient file
 Reading MOs from coefficient file
 An unrestricted hybrid HF-DFT SCF calculation will be
 performed using Pulay DIIS extrapolation
 Exchange:     0.2000 Hartree-Fock + 0.0800 Slater + 0.7200 B88
 Correlation:  0.1900 VWN1RPA + 0.8100 LYP
 Using SG-1 standard quadrature grid
 SCF converges when DIIS error is below 1.0E-06
Using Q-Chem read-in guess as SCF_GUESS READ specified.

 -------------------------------------------------------
 OpenMP BLAS3 based DFT computing Module                
 -------------------------------------------------------
 ---------------------------------------
  Cycle       Energy         DIIS Error
 ---------------------------------------
    1    -286.8437772136      2.81E-09
    2    -286.8437772136      3.82E-09 Convergence criterion met
 ---------------------------------------
 <S^2> = 0.7812
 SCF time:  CPU 6.35 s  wall 6.95 s
 SCF   energy in the final basis set = -286.84377721
 Total energy in the final basis set = -286.84377721
 
 Direct TDDFT/TDA calculation will be performed
 Exchange:     0.2000 Hartree-Fock + 0.0800 Slater + 0.7200 B88
 Correlation:  0.1900 VWN1RPA + 0.8100 LYP
 Using SG-1 standard quadrature grid
 CIS energy converged when residual is below 10e- 6
 ---------------------------------------------------
 Iter    Rts Conv    Rts Left    Ttl Dev     Max Dev
 ---------------------------------------------------
   1         0           4      0.002694    0.001312
   2         0           4      0.000717    0.000270
   3         0           4      0.000324    0.000148
   4         0           4      0.000142    0.000053
   5         0           4      0.000058    0.000027
   6         1           3      0.000027    0.000020
   7         2           2      0.000017    0.000014
   8         3           1      0.000006    0.000005
   9         3           1      0.000003    0.000001
  10         4           0      0.000002    0.000001    Roots Converged
 ---------------------------------------------------
 
 ---------------------------------------------------
         TDDFT/TDA Excitation Energies              
 ---------------------------------------------------

 Excited state   1: excitation energy (eV) =    2.2529
 Total energy for state  1:                  -286.76098481 au
    <S**2>     :  0.7801
    Trans. Mom.:  0.1450 X   0.2970 Y   0.2335 Z
    Strength   :     0.0090394399
    S(  1) --> V(  1) amplitude =  0.9574 alpha
    S(  1) --> V(  2) amplitude =  0.1944 alpha

 Excited state   2: excitation energy (eV) =    2.7138
 Total energy for state  2:                  -286.74404662 au
    <S**2>     :  0.7846
    Trans. Mom.: -0.3203 X   0.0267 Y   0.3230 Z
    Strength   :     0.0138064884
    S(  1) --> V(  1) amplitude = -0.2261 alpha
    S(  1) --> V(  2) amplitude =  0.9425 alpha

 Excited state   3: excitation energy (eV) =    3.2562
 Total energy for state  3:                  -286.72411243 au
    <S**2>     :  0.7883
    Trans. Mom.: -0.0829 X   0.0040 Y  -0.2546 Z
    Strength   :     0.0057222833
    S(  1) --> V(  3) amplitude =  0.9821 alpha

 Excited state   4: excitation energy (eV) =    3.8835
 Total energy for state  4:                  -286.70106002 au
    <S**2>     :  0.7883
    Trans. Mom.: -0.0347 X  -0.0979 Y  -0.0538 Z
    Strength   :     0.0013019080
    S(  1) --> V(  4) amplitude =  0.9583 alpha
    S(  1) --> V(  5) amplitude = -0.2303 alpha
 
 ---------------------------------------------------

 Stability analysis will be performed
 ---------------------------------------------------
 Iter    Rts Conv    Rts Left    Ttl Dev     Max Dev
 ---------------------------------------------------
   1         0           8      0.002810    0.000600
   2         0           8      0.001035    0.000365
   3         0           8      0.000716    0.000257
   4         2           6      0.001384    0.000995
   5         3           5      0.000863    0.000509
   6         3           5      0.000460    0.000327
   7         4           4      0.000192    0.000141
   8         5           3      0.000057    0.000041
   9         5           3      0.000017    0.000011
  10         7           1      0.000007    0.000004
  11         7           1      0.000003    0.000001
  12         8           0      0.000003    0.000001    Roots Converged
 UKS-> UKS   stable,    smallest eigenvalue:      0.0730217
 UKS->CUKS   stable,    smallest eigenvalue:      0.0821798
 ---------------------------------------------------
  SETman timing summary (seconds)
  CPU time               192.88s
  System time              0.00s
  Wall time              194.57s
 
 --------------------------------------------------------------
 
                    Orbital Energies (a.u.)
 --------------------------------------------------------------
 
 Alpha MOs
 -- Occupied --
-14.334 -10.233 -10.231 -10.228 -10.226 -10.222 -10.199  -0.969
 -0.850  -0.750  -0.690  -0.601  -0.587  -0.546  -0.524  -0.475
 -0.435  -0.419  -0.409  -0.386  -0.352  -0.307  -0.286  -0.266
 -0.153
 -- Virtual --
 -0.025  -0.009   0.000   0.020   0.026   0.031   0.048   0.048
  0.068   0.071   0.074   0.092   0.103   0.106   0.109   0.115
  0.123   0.129   0.143   0.154   0.167   0.177   0.183   0.186
  0.190   0.199   0.208   0.212   0.228   0.233   0.241   0.246
  0.258   0.268   0.280   0.289   0.302   0.319   0.328   0.354
  0.373   0.386   0.413   0.459   0.617   0.655   0.690   0.698
  0.700   0.716   0.726   0.740   0.753   0.758   0.784   0.794
  0.797   0.817   0.862   0.899   0.912   0.933   0.971   0.987
  1.010   1.015   1.038   1.058   1.087   1.117   1.135   1.161
  1.188   1.251   1.295   1.302   1.387   1.420   1.438   1.512
  1.527   1.603   1.615   1.715   1.718   1.773   1.798   1.835
  1.888   1.921   1.944   1.992   1.997   2.076   2.108   2.139
  2.150   2.220   2.231   2.264   2.279   2.359   2.370   2.379
  2.407   2.424   2.469   2.491   2.499   2.520   2.524   2.554
  2.578   2.592   2.627   2.650   2.686   2.745   2.760   2.769
  2.825   2.876   2.952   3.058   3.111   3.296   3.313   3.337
  3.475   3.621   3.689   4.153   4.387   4.476   4.577   4.637
  4.713   4.851
 
 Beta MOs
 -- Occupied --
-14.334 -10.236 -10.232 -10.228 -10.225 -10.214 -10.190  -0.966
 -0.845  -0.743  -0.680  -0.597  -0.578  -0.543  -0.516  -0.469
 -0.431  -0.414  -0.407  -0.384  -0.346  -0.292  -0.276  -0.262
 -- Virtual --
 -0.044  -0.020  -0.001   0.002   0.021   0.027   0.035   0.048
  0.049   0.070   0.072   0.078   0.093   0.103   0.106   0.110
  0.116   0.128   0.130   0.144   0.155   0.167   0.177   0.184
  0.190   0.191   0.202   0.210   0.217   0.232   0.236   0.243
  0.247   0.261   0.272   0.281   0.291   0.304   0.323   0.330
  0.357   0.376   0.388   0.419   0.462   0.620   0.662   0.691
  0.703   0.709   0.735   0.742   0.748   0.753   0.768   0.789
  0.797   0.802   0.820   0.864   0.903   0.914   0.935   0.973
  0.989   1.010   1.020   1.041   1.062   1.090   1.121   1.142
  1.167   1.193   1.255   1.300   1.306   1.389   1.423   1.448
  1.518   1.533   1.611   1.619   1.720   1.724   1.780   1.802
  1.853   1.892   1.929   1.945   1.999   2.002   2.080   2.119
  2.138   2.160   2.228   2.235   2.272   2.286   2.362   2.374
  2.382   2.412   2.431   2.473   2.497   2.502   2.525   2.533
  2.558   2.588   2.598   2.631   2.656   2.692   2.748   2.764
  2.773   2.827   2.878   2.955   3.061   3.112   3.298   3.314
  3.339   3.477   3.625   3.692   4.153   4.393   4.482   4.590
  4.644   4.716   4.854
 --------------------------------------------------------------
 
          Ground-State Mulliken Net Atomic Charges

     Atom                 Charge (a.u.)    Spin (a.u.)
  --------------------------------------------------------
      1 C                    -0.063454       0.042297
      2 C                    -0.022316      -0.028358
      3 C                    -0.277219       0.641179
      4 C                    -0.140698       0.735403
      5 C                     0.021739      -0.124463
      6 N                    -0.208120      -0.002396
      7 H                     0.134759       0.001282
      8 H                     0.131593       0.004006
      9 H                     0.148899      -0.029126
     10 H                     0.138317      -0.028075
     11 H                     0.130618       0.009005
     12 C                    -0.134378      -0.234022
     13 H                     0.140261       0.013270
  --------------------------------------------------------
  Sum of atomic charges =    -0.000000
  Sum of spin   charges =     1.000000

 -----------------------------------------------------------------
                    Cartesian Multipole Moments
 -----------------------------------------------------------------
    Charge (ESU x 10^10)
                -0.0000
    Dipole Moment (Debye)
         X      -0.6491      Y      -2.7450      Z       0.7988
       Tot       2.9316
    Quadrupole Moments (Debye-Ang)
        XX     -39.2677     XY      -3.8204     YY     -44.0522
        XZ       1.4490     YZ       0.8111     ZZ     -42.1104
    Octopole Moments (Debye-Ang^2)
       XXX       0.0760    XXY      -6.6394    XYY     -10.7133
       YYY     -33.1689    XXZ       2.5334    XYZ       1.1209
       YYZ       6.8720    XZZ      -9.3630    YZZ      -9.2414
       ZZZ      13.3758
    Hexadecapole Moments (Debye-Ang^3)
      XXXX    -255.7340   XXXY      -6.2640   XXYY     -87.8060
      XYYY     -22.6078   YYYY    -272.2855   XXXZ      28.5014
      XXYZ      10.9332   XYYZ      14.1893   YYYZ      23.7253
      XXZZ     -76.6114   XYZZ      -4.5071   YYZZ     -74.8947
      XZZZ      26.4179   YZZZ      15.2927   ZZZZ    -203.4388
 -----------------------------------------------------------------
Archival summary:
1\1\c8-66\SP\ProcedureUnspecified\6-31+G**\166(2)\hpark21\FriMar402:14:412022FriMar402:14:412022\0\\#,ProcedureUnspecified,6-31+G**,\\0,2\N\C,1,1.28022\H,2,1.08887,1,122.122\C,1,1.50165,2,105.362,3,-174.624,0\H,4,1.08954,1,112.086,2,-159.212,0\C,2,1.50972,1,113.178,3,176.473,0\H,6,1.08783,2,120.856,1,162.748,0\C,6,1.4954,2,102.113,1,24.9934,0\H,8,1.08003,6,131.182,2,148.449,0\C,4,1.52412,1,108.072,2,68.5919,0\H,10,1.08107,4,130.954,1,104.098,0\C,10,1.40095,4,98.5213,1,-80.539,0\H,12,1.08765,10,127.581,4,-161.74,0\\\@

 Total job time:  202.18s(wall), 199.43s(cpu) 
 Fri Mar  4 02:14:41 2022

        *************************************************************
        *                                                           *
        *  Thank you very much for using Q-Chem.  Have a nice day.  *
        *                                                           *
        *************************************************************


