13
image # 1 Energy = -286.85164
C 1.51968   0.34407   -0.26495  
C 0.62247   -0.89392  -0.06471  
C -0.39537  -0.52067  -1.14729  
C -1.00233  0.50919   0.80868   
C -0.58617  0.89541   -0.61987  
N 0.85309   1.38651   -0.57663  
H 2.60046   0.35783   -0.13445  
H 1.10229   -1.87266  -0.07677  
H -1.22131  -1.17425  -1.42320  
H -1.72714  1.04400   1.41253   
H -1.23217  1.59294   -1.15088  
C -0.27221  -0.56591  1.14756   
H -0.26129  -1.10254  2.08998   
13
image # 2 Energy = -286.84711
C 1.52758   0.34827   -0.28812  
C 0.64816   -0.89272  -0.07140  
C -0.40159  -0.55463  -1.11829  
C -1.00588  0.52908   0.80689   
C -0.57400  0.92333   -0.60215  
N 0.85912   1.39489   -0.57134  
H 2.61283   0.36078   -0.20225  
H 1.16853   -1.87135  -0.10847  
H -1.20046  -1.27953  -1.36008  
H -1.75436  1.05506   1.40059   
H -1.21306  1.67502   -1.10758  
C -0.30874  -0.57259  1.13213   
H -0.37247  -1.12389  2.06952   
13
image # 3 Energy = -286.83831
C 1.53990   0.34963   -0.30704  
C 0.66546   -0.89839  -0.06349  
C -0.41677  -0.57704  -1.11168  
C -1.01080  0.54375   0.81116   
C -0.57682  0.94504   -0.60187  
N 0.86144   1.40143   -0.57026  
H 2.62531   0.36448   -0.27826  
H 1.22250   -1.84759  -0.13502  
H -1.16293  -1.37330  -1.27986  
H -1.77736  1.06247   1.38229   
H -1.17632  1.73944   -1.05240  
C -0.32782  -0.57928  1.13130   
H -0.49311  -1.14583  2.03597   
13
image # 4 Energy = -286.82261
C 1.53356   0.35212   -0.32554  
C 0.69020   -0.88894  -0.06949  
C -0.41898  -0.61819  -1.09152  
C -1.00833  0.54870   0.80513   
C -0.57075  0.97140   -0.57708  
N 0.86772   1.39966   -0.57501  
H 2.63957   0.36834   -0.36059  
H 1.27184   -1.82330  -0.15926  
H -1.12105  -1.46544  -1.19313  
H -1.80270  1.06907   1.36243   
H -1.14312  1.80940   -0.99901  
C -0.35673  -0.57084  1.12509   
H -0.62007  -1.17308  2.00212   
13
image # 5 Energy = -286.80447
C 1.54879   0.34732   -0.34312  
C 0.70710   -0.87397  -0.07596  
C -0.41216  -0.65498  -1.06768  
C -1.02042  0.56863   0.80157   
C -0.55615  0.99553   -0.55367  
N 0.86310   1.40598   -0.58394  
H 2.63913   0.37078   -0.43665  
H 1.31350   -1.80191  -0.17783  
H -1.08361  -1.54901  -1.10915  
H -1.82073  1.06960   1.33938   
H -1.11493  1.87140   -0.95007  
C -0.37638  -0.58102  1.12909   
H -0.73378  -1.19371  1.96101   
13
image # 6 Energy = -286.78235
C 1.56214   0.36465   -0.36994  
C 0.72889   -0.87071  -0.07292  
C -0.40683  -0.69626  -1.04317  
C -1.02208  0.57103   0.81035   
C -0.54308  1.03443   -0.54066  
N 0.87171   1.40318   -0.59067  
H 2.63325   0.37112   -0.51696  
H 1.35103   -1.77973  -0.19260  
H -1.04362  -1.63067  -1.01744  
H -1.84522  1.07120   1.31547   
H -1.08635  1.92743   -0.89807  
C -0.40430  -0.57969  1.12957   
H -0.84892  -1.21442  1.90921   
13
image # 7 Energy = -286.75868
C 1.55904   0.35784   -0.39107  
C 0.75163   -0.85858  -0.06434  
C -0.40502  -0.74781  -1.02624  
C -1.01500  0.58089   0.81337   
C -0.52679  1.06749   -0.51527  
N 0.87403   1.42336   -0.60629  
H 2.64203   0.37269   -0.59874  
H 1.38587   -1.76176  -0.20182  
H -0.99978  -1.70201  -0.91919  
H -1.87442  1.07202   1.29393   
H -1.06138  1.98284   -0.84800  
C -0.42813  -0.58172  1.12998   
H -0.96062  -1.23611  1.84729   
13
image # 8 Energy = -286.72576
C 1.56388   0.35513   -0.40898  
C 0.79262   -0.87487  -0.10528  
C -0.43012  -0.83627  -0.94410  
C -1.02816  0.60982   0.79008   
C -0.51869  1.15724   -0.47988  
N 0.86393   1.42369   -0.60905  
H 2.64351   0.38015   -0.60965  
H 1.44028   -1.77892  -0.24061  
H -0.96262  -1.80069  -0.90334  
H -1.88931  1.09422   1.29537   
H -1.05115  2.05113   -0.81470  
C -0.48353  -0.59463  1.09147   
H -1.00158  -1.21875  1.84657   
13
image # 9 Energy = -286.74126
C 1.55713   0.35907   -0.42366  
C 0.83700   -0.88503  -0.13618  
C -0.45789  -0.92721  -0.85163  
C -1.04669  0.65817   0.79595   
C -0.51385  1.22512   -0.43689  
N 0.87065   1.41586   -0.62056  
H 2.64427   0.38860   -0.61817  
H 1.48151   -1.78323  -0.26414  
H -0.93729  -1.89649  -0.88354  
H -1.89028  1.10537   1.28924   
H -1.04765  2.11861   -0.78965  
C -0.51862  -0.59995  1.02782   
H -1.03855  -1.21273  1.81872   
13
image # 10 Energy = -286.79256
C 1.55987   0.35260   -0.43560  
C 0.87020   -0.89162  -0.16375  
C -0.49542  -1.02833  -0.69244  
C -1.02895  0.70876   0.80142   
C -0.51787  1.31638   -0.37890  
N 0.86457   1.40835   -0.64058  
H 2.63705   0.40099   -0.59681  
H 1.51037   -1.77932  -0.26704  
H -0.93843  -2.01601  -0.88993  
H -1.89097  1.12007   1.29514   
H -1.05076  2.18903   -0.77893  
C -0.54835  -0.60868  0.90697   
H -1.02924  -1.20645  1.75034   
13
image # 11 Energy = -286.81395
C 1.55533   0.34730   -0.45506  
C 0.90148   -0.90443  -0.20452  
C -0.50864  -1.13287  -0.56225  
C -1.01411  0.74803   0.79726   
C -0.50632  1.40212   -0.32776  
N 0.84450   1.40787   -0.66458  
H 2.62987   0.41240   -0.57475  
H 1.54581   -1.78383  -0.27447  
H -0.93116  -2.10274  -0.88304  
H -1.88501  1.13394   1.30984   
H -1.05379  2.25406   -0.76792  
C -0.61002  -0.61570  0.83118   
H -1.02475  -1.19915  1.68986   
13
image # 12 Energy = -286.83666
C 1.53988   0.33335   -0.47286  
C 0.94696   -0.92644  -0.27933  
C -0.46619  -1.18882  -0.48930  
C -1.03024  0.75197   0.78526   
C -0.48454  1.46131   -0.31414  
N 0.81391   1.41235   -0.69234  
H 2.62716   0.42269   -0.56877  
H 1.59708   -1.79614  -0.30673  
H -0.90174  -2.14835  -0.84264  
H -1.86380  1.15539   1.34019   
H -1.05067  2.29440   -0.74938  
C -0.71297  -0.60707  0.82762   
H -1.06948  -1.19556  1.68132   
13
image # 13 Energy = -286.85570
C 1.54657   0.32480   -0.49273  
C 0.99957   -0.93926  -0.34723  
C -0.40815  -1.19636  -0.43173  
C -1.06533  0.73541   0.77523   
C -0.47245  1.47225   -0.32267  
N 0.79491   1.41677   -0.72075  
H 2.63637   0.42757   -0.60507  
H 1.65341   -1.80218  -0.38720  
H -0.83150  -2.16789  -0.75304  
H -1.85557  1.18078   1.36568   
H -1.03700  2.31768   -0.71878  
C -0.80763  -0.60992  0.85778   
H -1.20308  -1.18726  1.70540   
13
image # 14 Energy = -286.86369
C 1.56244   0.32294   -0.52081  
C 1.01772   -0.94821  -0.37535  
C -0.38007  -1.23149  -0.40448  
C -1.08267  0.73187   0.76181   
C -0.45527  1.48711   -0.30515  
N 0.79148   1.43771   -0.72247  
H 2.63387   0.42290   -0.68071  
H 1.68992   -1.79709  -0.43567  
H -0.75562  -2.21586  -0.64467  
H -1.89480  1.18493   1.33161   
H -1.00035  2.36745   -0.65303  
C -0.85998  -0.60908  0.87911   
H -1.31123  -1.17720  1.70153   
13
image # 15 Energy = -286.87533
C 1.54712   0.32126   -0.54709  
C 1.03072   -0.94543  -0.40193  
C -0.35121  -1.27086  -0.33938  
C -1.09794  0.73573   0.75257   
C -0.43731  1.51597   -0.27588  
N 0.80226   1.44598   -0.71810  
H 2.63280   0.42058   -0.75192  
H 1.72115   -1.79211  -0.47214  
H -0.69337  -2.28363  -0.54870  
H -1.93155  1.18697   1.28875   
H -0.96393  2.42528   -0.58586  
C -0.90271  -0.61124  0.86423   
H -1.39591  -1.16627  1.67470   
13
image # 16 Energy = -286.88522
C 1.55868   0.32054   -0.57843  
C 1.04559   -0.95690  -0.42439  
C -0.32006  -1.30906  -0.27059  
C -1.11722  0.74358   0.73738   
C -0.41681  1.54798   -0.24631  
N 0.80303   1.45954   -0.70328  
H 2.60999   0.41619   -0.82764  
H 1.74369   -1.77822  -0.50774  
H -0.62898  -2.35185  -0.44692  
H -1.96822  1.18839   1.23715   
H -0.92064  2.48025   -0.50972  
C -0.94473  -0.61703  0.85038   
H -1.47798  -1.15358  1.63869   
13
image # 17 Energy = -286.89390
C 1.55192   0.30343   -0.60461  
C 1.06538   -0.95219  -0.44263  
C -0.29966  -1.35772  -0.19867  
C -1.13472  0.73644   0.71117   
C -0.40301  1.57395   -0.20953  
N 0.81183   1.47361   -0.68555  
H 2.59117   0.41517   -0.90454  
H 1.76543   -1.76992  -0.54545  
H -0.56186  -2.39750  -0.34696  
H -2.00372  1.19472   1.18787   
H -0.87652  2.53069   -0.43363  
C -0.97872  -0.61080  0.82719   
H -1.55558  -1.14295  1.60169   
13
image # 18 Energy = -286.89969
C 1.53868   0.30364   -0.63483  
C 1.05926   -0.96166  -0.44457  
C -0.26681  -1.38332  -0.13973  
C -1.16042  0.74484   0.68567   
C -0.38013  1.58809   -0.17821  
N 0.82159   1.48619   -0.66186  
H 2.57445   0.41526   -0.98649  
H 1.78685   -1.76531  -0.58081  
H -0.49447  -2.43866  -0.23851  
H -2.03393  1.19881   1.13475   
H -0.83253  2.57502   -0.35539  
C -1.00426  -0.62958  0.81454   
H -1.63156  -1.13205  1.55004   
13
image # 19 Energy = -286.90411
C 1.53113   0.30593   -0.67727  
C 1.07831   -0.97090  -0.43671  
C -0.24663  -1.40196  -0.08477  
C -1.18090  0.73457   0.66020   
C -0.37136  1.60918   -0.15406  
N 0.84223   1.49740   -0.63662  
H 2.54068   0.41384   -1.06263  
H 1.79953   -1.75913  -0.61952  
H -0.42321  -2.48128  -0.11731  
H -2.06522  1.20830   1.08812   
H -0.78325  2.60657   -0.27188  
C -1.02229  -0.62793  0.79995   
H -1.71627  -1.13007  1.48613   
13
image # 20 Energy = -286.91102
C 1.51917   0.29307   -0.70475  
C 1.09044   -0.96663  -0.44604  
C -0.21411  -1.42230  -0.01577  
C -1.19553  0.74789   0.63741   
C -0.35159  1.61803   -0.12604  
N 0.84031   1.50886   -0.62393  
H 2.51662   0.41132   -1.11707  
H 1.80900   -1.75945  -0.65211  
H -0.36690  -2.50443  -0.01599  
H -2.08131  1.21243   1.05822   
H -0.74973  2.63719   -0.20673  
C -1.04990  -0.63787  0.77320   
H -1.77837  -1.13221  1.42143   
13
image # 21 Energy = -286.91653
C 1.49879   0.30468   -0.73363  
C 1.09592   -0.97797  -0.44623  
C -0.17625  -1.44390  0.04609   
C -1.20484  0.76463   0.60086   
C -0.36023  1.63166   -0.08420  
N 0.86668   1.50194   -0.61900  
H 2.48888   0.40808   -1.18459  
H 1.81374   -1.76043  -0.69043  
H -0.29731  -2.51442  0.11115   
H -2.10038  1.21792   1.02840   
H -0.70536  2.66106   -0.12507  
C -1.07776  -0.64958  0.74871   
H -1.84902  -1.13845  1.33690   
13
image # 22 Energy = -286.92187
C 1.48266   0.30408   -0.76399  
C 1.09704   -0.98679  -0.45732  
C -0.13237  -1.45112  0.12438   
C -1.21554  0.76991   0.57573   
C -0.34718  1.64747   -0.04394  
N 0.87162   1.50210   -0.61639  
H 2.45855   0.40051   -1.24308  
H 1.81295   -1.76335  -0.72456  
H -0.23351  -2.51921  0.24038   
H -2.11492  1.21960   1.00211   
H -0.66649  2.68575   -0.04425  
C -1.10784  -0.65614  0.70804   
H -1.90801  -1.14956  1.23818   
13
image # 23 Energy = -286.92435
C 1.46360   0.29938   -0.79091  
C 1.09904   -0.99388  -0.46407  
C -0.09641  -1.43963  0.20426   
C -1.22783  0.77171   0.55490   
C -0.32892  1.65831   -0.00655  
N 0.87240   1.50282   -0.61269  
H 2.42542   0.38841   -1.30098  
H 1.80689   -1.76828  -0.74969  
H -0.17932  -2.51326  0.36126   
H -2.12724  1.21641   0.97426   
H -0.63065  2.70708   0.03825   
C -1.12191  -0.66222  0.65344   
H -1.95507  -1.16684  1.13854   
