13   
From optimize.out: Frame 1 / 63, Energy=    -286.6301803172
C        1.6729542925    0.2249085080   -2.1354490425
C        1.0845955940   -0.9439970753   -1.9381869763
C       -0.4291961719   -1.1430979320   -2.2699212029
C       -1.4185191032    0.4427368073   -0.5271966496
C       -0.8101952519    0.8170580635   -1.9301890401
N        0.9144893144    1.4069460731   -2.5627246032
H        2.6182342213    0.4841002169   -1.6430436573
H        1.6553883843   -1.7271368589   -1.4893233109
H       -0.9387633530   -2.0113698287   -2.8251692467
H       -2.4132804223    0.7792685848   -0.1479362712
H       -1.1110818674    1.4408771094   -2.6954829443
C       -1.0362614712   -0.8565392507   -0.9710571120
H       -1.6623956634   -1.7564775498   -0.4389797788
13   
From optimize.out: Frame 2 / 63, Energy=    -286.6803963478
C        1.6583958896    0.2372981889   -2.1050945668
C        1.0758205165   -0.9457195702   -1.9299258759
C       -0.4277840713   -1.0881036814   -2.2381411304
C       -1.3940715195    0.4215411128   -0.5589367552
C       -0.8095656768    0.7829449667   -1.9470881660
N        0.8846556229    1.3787867869   -2.5248379205
H        2.6192811047    0.4952116003   -1.6470292772
H        1.6419145700   -1.7645663092   -1.5225355916
H       -0.9209626775   -1.9096458931   -2.8328642410
H       -2.3700915726    0.7706830826   -0.1813521661
H       -1.1289756299    1.3954886792   -2.7396667375
C       -1.0473050247   -0.8730833159   -0.9422405123
H       -1.6553430293   -1.7435587800   -0.4049468952
13   
From optimize.out: Frame 3 / 63, Energy=    -286.7237125508
C        1.6472837137    0.2521472412   -2.0750178496
C        1.0647197717   -0.9411914918   -1.9260296295
C       -0.4339404534   -1.0276228282   -2.2125837306
C       -1.3743847396    0.4025673881   -0.5877619625
C       -0.7991975797    0.7411272141   -1.9661451549
N        0.8578083854    1.3445786079   -2.4863594135
H        2.6202969148    0.5086198569   -1.6455824794
H        1.6234238085   -1.7908926143   -1.5624393042
H       -0.9125999090   -1.8079146282   -2.8468448732
H       -2.3382607826    0.7651350271   -0.2141113508
H       -1.1319832320    1.3350890476   -2.7813823534
C       -1.0556320254   -0.8919321526   -0.9076987042
H       -1.6415653700   -1.7324338001   -0.3627030300
13   
From optimize.out: Frame 4 / 63, Energy=    -286.7594180931
C        1.6355890939    0.2657949820   -2.0419684206
C        1.0573272479   -0.9412808163   -1.9226188132
C       -0.4385346059   -0.9730689336   -2.1890465554
C       -1.3579357993    0.3901805825   -0.6141853431
C       -0.7869641468    0.7017085176   -1.9894206029
N        0.8290579465    1.3152516135   -2.4460195556
H        2.6199535851    0.5218911879   -1.6415625438
H        1.6084410824   -1.8183705859   -1.6057825401
H       -0.9052945329   -1.7119465120   -2.8647402716
H       -2.3099082470    0.7694890532   -0.2405021807
H       -1.1376872568    1.2743161464   -2.8239074443
C       -1.0615614405   -0.9110166172   -0.8746272155
H       -1.6265144243   -1.7256717506   -0.3202783492
13   
From optimize.out: Frame 5 / 63, Energy=    -286.7876445709
C        1.6209627292    0.2771706570   -2.0084855355
C        1.0540593128   -0.9477687120   -1.9223084698
C       -0.4396807040   -0.9346091321   -2.1672900815
C       -1.3437485859    0.3839824676   -0.6408589413
C       -0.7712040724    0.6719492228   -2.0146053690
N        0.7970745284    1.2950752444   -2.3982342092
H        2.6158170728    0.5342276544   -1.6382468365
H        1.6008724433   -1.8457071348   -1.6526899783
H       -0.8949541577   -1.6355420211   -2.8805433379
H       -2.2822205350    0.7835866029   -0.2628652977
H       -1.1473996120    1.2229586338   -2.8620274134
C       -1.0683378004   -0.9272888521   -0.8453923418
H       -1.6152721169   -1.7207577633   -0.2811120237
13   
From optimize.out: Frame 6 / 63, Energy=    -286.8095572882
C        1.6037803317    0.2857059826   -1.9798386625
C        1.0561475078   -0.9599454977   -1.9262609290
C       -0.4351528113   -0.9196240818   -2.1482159130
C       -1.3330729720    0.3828930058   -0.6666278337
C       -0.7510930267    0.6579064129   -2.0369259679
N        0.7628939045    1.2833618054   -2.3420742238
H        2.6082568875    0.5456724871   -1.6415667501
H        1.6057107119   -1.8695276505   -1.6998773867
H       -0.8781518433   -1.5926356092   -2.8898874834
H       -2.2558062265    0.8063315131   -0.2806835661
H       -1.1607037269    1.1900333430   -2.8885873709
C       -1.0814057402   -0.9378497954   -0.8231152465
H       -1.6154344943   -1.7150450478   -0.2509985021
13   
From optimize.out: Frame 7 / 63, Energy=    -286.8271695277
C        1.5884084661    0.2925938141   -1.9573320458
C        1.0607739283   -0.9723387984   -1.9325880113
C       -0.4277324928   -0.9169533262   -2.1329360113
C       -1.3261735876    0.3835513447   -0.6895006694
C       -0.7250551774    0.6516308386   -2.0541261629
N        0.7309383363    1.2760302530   -2.2834439316
H        2.6013853155    0.5563939816   -1.6511786382
H        1.6169343951   -1.8867908400   -1.7424757613
H       -0.8618233730   -1.5710005183   -2.8937580579
H       -2.2327142132    0.8319226538   -0.2954489358
H       -1.1760071973    1.1634777594   -2.9034909519
C       -1.0984371456   -0.9423389709   -0.8081632135
H       -1.6245287522   -1.7089013238   -0.2302174448
13   
From optimize.out: Frame 8 / 63, Energy=    -286.8413920298
C        1.5785208509    0.2985355456   -1.9399714291
C        1.0678866203   -0.9830478685   -1.9389128922
C       -0.4186468812   -0.9199481156   -2.1203527262
C       -1.3251401284    0.3845005904   -0.7094846669
C       -0.6975908810    0.6468223428   -2.0673694651
N        0.7057610145    1.2718497350   -2.2262379051
H        2.5992906411    0.5656890670   -1.6664606732
H        1.6326211205   -1.8980589357   -1.7791590976
H       -0.8472220778   -1.5597082531   -2.8952757325
H       -2.2128824016    0.8614701530   -0.3066708885
H       -1.1967325245    1.1365726228   -2.9078254499
C       -1.1195712939   -0.9434752443   -0.7996427379
H       -1.6403255565   -1.7039247718   -0.2172961715
13   
From optimize.out: Frame 9 / 63, Energy=    -286.8524029845
C        1.5747220400    0.3044208760   -1.9269656921
C        1.0764335337   -0.9907215960   -1.9437461795
C       -0.4093622702   -0.9265897892   -2.1094061495
C       -1.3320569899    0.3849354465   -0.7277039481
C       -0.6740096460    0.6396492296   -2.0776762264
N        0.6903385383    1.2722674578   -2.1712513326
H        2.6031648984    0.5729110270   -1.6876231101
H        1.6510644586   -1.9033003365   -1.8098261160
H       -0.8332896865   -1.5549201075   -2.8964586054
H       -2.1942630743    0.8973878649   -0.3126096171
H       -1.2206613501    1.1079274108   -2.9043629583
C       -1.1457490411   -0.9441681602   -0.7966474177
H       -1.6603629087   -1.7025224557   -0.2103824830
13   
From optimize.out: Frame 10 / 63, Energy=    -286.8605328740
C        1.5727302758    0.3100276642   -1.9169579553
C        1.0842737450   -0.9961900485   -1.9459443549
C       -0.4010092316   -0.9349828445   -2.1014443621
C       -1.3454209030    0.3853293264   -0.7449105739
C       -0.6578041063    0.6294909207   -2.0861211076
N        0.6789945560    1.2746299612   -2.1192298218
H        2.6078777120    0.5794024806   -1.7112538931
H        1.6695734408   -1.9041026958   -1.8325697797
H       -0.8194050659   -1.5544608236   -2.8998538518
H       -2.1712958847    0.9395804887   -0.3091894643
H       -1.2394934736    1.0800446044   -2.9005082296
C       -1.1747229514   -0.9454717140   -0.7990256793
H       -1.6783296109   -1.7060204523   -0.2076507623
13   
From optimize.out: Frame 11 / 63, Energy=    -286.8662950997
C        1.5700773758    0.3149484750   -1.9080913823
C        1.0890932106   -0.9997233147   -1.9466968807
C       -0.3960498341   -0.9429532032   -2.0971859593
C       -1.3634954209    0.3850975110   -0.7624896416
C       -0.6481034054    0.6193572289   -2.0938463169
N        0.6682047046    1.2766514976   -2.0715267881
H        2.6101412990    0.5854773000   -1.7311723123
H        1.6841878818   -1.9021485348   -1.8480625420
H       -0.8085212204   -1.5563614031   -2.9054107120
H       -2.1428379232    0.9813557444   -0.2969941650
H       -1.2479591416    1.0550920564   -2.9034156118
C       -1.2023583747   -0.9465465656   -0.8047371258
H       -1.6864106493   -1.7129699244   -0.2050303978
13   
From optimize.out: Frame 12 / 63, Energy=    -286.8702555028
C        1.5656132314    0.3181671557   -1.8996615123
C        1.0905975808   -1.0022207973   -1.9454663071
C       -0.3943036287   -0.9505897005   -2.0971965486
C       -1.3838671522    0.3842631227   -0.7810679396
C       -0.6454059913    0.6121679346   -2.1029636317
N        0.6566727581    1.2764395571   -2.0338723408
H        2.6084105040    0.5906573084   -1.7429566394
H        1.6936592738   -1.8992682700   -1.8534401880
H       -0.7989512768   -1.5600844874   -2.9143144105
H       -2.1066041200    1.0184587616   -0.2758661272
H       -1.2505181676    1.0386732269   -2.9129528300
C       -1.2273980898   -0.9474072606   -0.8135565737
H       -1.6819364196   -1.7219796836   -0.2013447870
13   
From optimize.out: Frame 13 / 63, Energy=    -286.8728731542
C        1.5603593846    0.3210798660   -1.8895526361
C        1.0868251909   -1.0015732681   -1.9480446486
C       -0.3982981500   -0.9539540952   -2.0999326368
C       -1.4076759662    0.3828589182   -0.8014193836
C       -0.6431172840    0.6043995899   -2.1096745796
N        0.6468669574    1.2784271096   -1.9984319638
H        2.6047576132    0.5937543073   -1.7441656520
H        1.6942779773   -1.8958307377   -1.8617268997
H       -0.7987669684   -1.5616220171   -2.9214973283
H       -2.0736753038    1.0465044676   -0.2581270687
H       -1.2400673526    1.0194347569   -2.9310201455
C       -1.2443537345   -0.9467023516   -0.8199994770
H       -1.6611638618   -1.7294996782   -0.1910674160
13   
From optimize.out: Frame 14 / 63, Energy=    -286.8742444389
C        1.5511909682    0.3186547265   -1.8846334956
C        1.0853547518   -1.0057344502   -1.9346185259
C       -0.3969235248   -0.9635683318   -2.1079020607
C       -1.4227447876    0.3836881794   -0.8200427130
C       -0.6571099808    0.6081466118   -2.1291274132
N        0.6326262117    1.2696821411   -1.9998777456
H        2.5944357828    0.5965061775   -1.7406007447
H        1.6968389650   -1.8947691818   -1.8305768643
H       -0.7803068678   -1.5701334403   -2.9403873270
H       -2.0144775643    1.0633621089   -0.2131486310
H       -1.2539468680    1.0374583710   -2.9420466671
C       -1.2675626228   -0.9473730261   -0.8381619477
H       -1.6414059612   -1.7386430184   -0.1935356999
13   
From optimize.out: Frame 15 / 63, Energy=    -286.8752595816
C        1.5442352147    0.3212827015   -1.8702441283
C        1.0757718537   -1.0020529322   -1.9453924139
C       -0.4079310460   -0.9612531641   -2.1123210902
C       -1.4517743034    0.3807938143   -0.8402246285
C       -0.6537696550    0.5985815338   -2.1284583325
N        0.6240717635    1.2762353789   -1.9597215707
H        2.5882660009    0.5965870790   -1.7272376904
H        1.6875559103   -1.8927912175   -1.8555922814
H       -0.7955019570   -1.5681772399   -2.9417458630
H       -1.9929617487    1.0835696150   -0.2140451763
H       -1.2235815275    1.0110333387   -2.9693107445
C       -1.2699175949   -0.9453235975   -0.8369141002
H       -1.5984944085   -1.7412084423   -0.1734518159
13   
From optimize.out: Frame 57 / 63, Energy=    -286.8752733242
C        1.5344097682    0.3185940035   -1.8600470845
C        1.0700298978   -1.0011305954   -1.9720853277
C       -0.4150964903   -0.9558667889   -2.1287115029
C       -1.4713043099    0.3643078286   -0.8454990197
C       -0.6667937600    0.6025446339   -2.1226020389
N        0.6116540683    1.2701461760   -1.9181551627
H        2.5768313989    0.5948691714   -1.7101907311
H        1.6869287110   -1.8901030281   -1.9032137852
H       -0.8176179204   -1.5541706555   -2.9550327989
H       -1.9737713208    1.0603514890   -0.1790760303
H       -1.1941133277    1.0589701397   -2.9718985856
C       -1.2653272473   -0.9570091336   -0.8437791357
H       -1.5498609655   -1.7542263730   -0.1643686325
13   
From optimize.out: Frame 58 / 63, Energy=    -286.8753953007
C        1.5334800376    0.3182319085   -1.8584086039
C        1.0673463453   -1.0009503824   -1.9702566290
C       -0.4167521516   -0.9572520955   -2.1331973322
C       -1.4624898011    0.3657877801   -0.8428246832
C       -0.6671744765    0.6061621891   -2.1257162035
N        0.6144346857    1.2736397979   -1.9342462541
H        2.5738580019    0.5947482443   -1.6961078633
H        1.6833359642   -1.8898671644   -1.8929203823
H       -0.8132434016   -1.5555141560   -2.9633093293
H       -1.9583205354    1.0584885113   -0.1717762754
H       -1.2133937894    1.0524688289   -2.9680638309
C       -1.2625369562   -0.9557307700   -0.8468979649
H       -1.5525754207   -1.7529358241   -0.1709344838
13   
From optimize.out: Frame 59 / 63, Energy=    -286.8754361380
C        1.5343508412    0.3183598616   -1.8588494305
C        1.0672944892   -1.0006686660   -1.9685794372
C       -0.4166854880   -0.9566130649   -2.1326779416
C       -1.4591298666    0.3679866481   -0.8412797599
C       -0.6662613714    0.6069620556   -2.1255546044
N        0.6167798316    1.2755214054   -1.9407544146
H        2.5747011484    0.5943100013   -1.6937936620
H        1.6822514400   -1.8904226791   -1.8899657412
H       -0.8111729968   -1.5537974913   -2.9648963063
H       -1.9564883318    1.0590383494   -0.1700145502
H       -1.2218228072    1.0466353328   -2.9648498712
C       -1.2617930760   -0.9539439209   -0.8466452067
H       -1.5560553103   -1.7560909646   -0.1767989100
13   
From optimize.out: Frame 60 / 63, Energy=    -286.8754554772
C        1.5355004127    0.3190030307   -1.8598405077
C        1.0677776327   -1.0001125412   -1.9668545980
C       -0.4164976868   -0.9555276706   -2.1311140874
C       -1.4584143743    0.3697668403   -0.8404459627
C       -0.6653381037    0.6065793735   -2.1249564140
N        0.6183187219    1.2769201943   -1.9437318175
H        2.5763112939    0.5938981509   -1.6946700510
H        1.6816184640   -1.8909835943   -1.8893236067
H       -0.8102831811   -1.5515820203   -2.9646755214
H       -1.9575810611    1.0609312892   -0.1690092648
H       -1.2248721156    1.0414715676   -2.9628491169
C       -1.2619390915   -0.9526756745   -0.8455587766
H       -1.5586324088   -1.7604120780   -0.1816301111
13   
From optimize.out: Frame 61 / 63, Energy=    -286.8754604018
C        1.5358056939    0.3195429607   -1.8605535010
C        1.0679748883   -0.9997338804   -1.9657224001
C       -0.4163950157   -0.9549263768   -2.1303172942
C       -1.4588040529    0.3701551240   -0.8402116423
C       -0.6648609653    0.6061504530   -2.1246744885
N        0.6184139615    1.2773208504   -1.9442460361
H        2.5769614438    0.5937107256   -1.6958777817
H        1.6811315491   -1.8912869012   -1.8893873497
H       -0.8103260375   -1.5506411206   -2.9641162557
H       -1.9585506530    1.0617856558   -0.1688322808
H       -1.2241917904    1.0402100613   -2.9625335746
C       -1.2620883718   -0.9525845959   -0.8449770356
H       -1.5591021476   -1.7624260882   -0.1832101954
13   
From optimize.out: Frame 62 / 63, Energy=    -286.8754635958
C        1.5358198392    0.3201701004   -1.8612402206
C        1.0678780767   -0.9992874417   -1.9643412136
C       -0.4164059256   -0.9545673304   -2.1299870367
C       -1.4591036859    0.3700353512   -0.8400533323
C       -0.6646373557    0.6059378850   -2.1245940544
N        0.6181997154    1.2777024877   -1.9449756215
H        2.5772146000    0.5935325536   -1.6967182621
H        1.6802729115   -1.8914885456   -1.8889299639
H       -0.8101496920   -1.5502401284   -2.9639912120
H       -1.9584807280    1.0620876618   -0.1682782012
H       -1.2231908872    1.0399874757   -2.9626034554
C       -1.2622969900   -0.9529326647   -0.8448939807
H       -1.5591513761   -1.7636605371   -0.1840532814
