13   
From optimize.out: Frame 1 / 63, Energy=    -286.6301803172
C        0.0487530000   -0.1809390000   -0.0000000000
C       -0.1243800000    0.2588090000   -0.0000000000
C       -0.2229370000    0.0712100000   -0.0000000000
C       -0.1436060000    0.1541090000   -0.0000000000
C       -0.0938290000   -0.1839170000   -0.0000000000
N       -0.3537870000    0.9626650000   -0.0000000000
H        0.1480240000    0.0285790000   -0.0000000000
H        0.1439610000   -0.0123770000   -0.0000000000
H        0.1768820000    0.0065540000   -0.0000000000
H        0.1920400000   -0.0088140000   -0.0000000000
H        0.1910440000    0.0086290000   -0.0000000000
C       -0.0388660000   -0.1090090000   -0.0000000000
H        0.0767010000    0.0045000000   -0.0000000000
13   
From optimize.out: Frame 2 / 63, Energy=    -286.6803963478
C        0.0553370000   -0.1959770000   -0.0000000000
C       -0.1226180000    0.3138350000   -0.0000000000
C       -0.2161800000    0.0340650000   -0.0000000000
C       -0.1281640000    0.1233070000   -0.0000000000
C       -0.0974730000   -0.1332050000   -0.0000000000
N       -0.3632640000    0.9154370000   -0.0000000000
H        0.1466770000    0.0278270000   -0.0000000000
H        0.1419990000   -0.0153450000   -0.0000000000
H        0.1722170000    0.0092490000   -0.0000000000
H        0.1834200000   -0.0071490000   -0.0000000000
H        0.1870580000    0.0076120000   -0.0000000000
C       -0.0522170000   -0.0840910000   -0.0000000000
H        0.0932070000    0.0044350000   -0.0000000000
13   
From optimize.out: Frame 3 / 63, Energy=    -286.7237125508
C        0.0630950000   -0.2103590000   -0.0000000000
C       -0.1218930000    0.3786020000   -0.0000000000
C       -0.2088910000    0.0102390000   -0.0000000000
C       -0.1164670000    0.1052870000   -0.0000000000
C       -0.0952720000   -0.1002930000   -0.0000000000
N       -0.3743120000    0.8582410000   -0.0000000000
H        0.1458020000    0.0268880000   -0.0000000000
H        0.1394710000   -0.0183460000   -0.0000000000
H        0.1691150000    0.0119720000   -0.0000000000
H        0.1752380000   -0.0059840000   -0.0000000000
H        0.1817470000    0.0067980000   -0.0000000000
C       -0.0669990000   -0.0669070000   -0.0000000000
H        0.1093660000    0.0038600000   -0.0000000000
13   
From optimize.out: Frame 4 / 63, Energy=    -286.7594180931
C        0.0684850000   -0.2205580000   -0.0000000000
C       -0.1220270000    0.4400480000   -0.0000000000
C       -0.2018040000   -0.0046090000   -0.0000000000
C       -0.1094680000    0.0943510000   -0.0000000000
C       -0.0880920000   -0.0778140000   -0.0000000000
N       -0.3832450000    0.8001200000   -0.0000000000
H        0.1448670000    0.0245720000   -0.0000000000
H        0.1381770000   -0.0209750000   -0.0000000000
H        0.1671630000    0.0143090000   -0.0000000000
H        0.1677950000   -0.0049900000   -0.0000000000
H        0.1761190000    0.0064410000   -0.0000000000
C       -0.0802220000   -0.0541740000   -0.0000000000
H        0.1222540000    0.0032780000   -0.0000000000
13   
From optimize.out: Frame 5 / 63, Energy=    -286.7876445709
C        0.0702270000   -0.2274880000   -0.0000000000
C       -0.1214410000    0.4959280000   -0.0000000000
C       -0.1967340000   -0.0138810000   -0.0000000000
C       -0.1043630000    0.0866920000   -0.0000000000
C       -0.0784820000   -0.0611200000   -0.0000000000
N       -0.3882030000    0.7429770000   -0.0000000000
H        0.1438410000    0.0212430000   -0.0000000000
H        0.1381820000   -0.0233990000   -0.0000000000
H        0.1654830000    0.0163780000   -0.0000000000
H        0.1611630000   -0.0039650000   -0.0000000000
H        0.1702890000    0.0066780000   -0.0000000000
C       -0.0911850000   -0.0429170000   -0.0000000000
H        0.1312240000    0.0028730000   -0.0000000000
13   
From optimize.out: Frame 6 / 63, Energy=    -286.8095572882
C        0.0683540000   -0.2324890000   -0.0000000000
C       -0.1191220000    0.5470080000   -0.0000000000
C       -0.1959480000   -0.0198610000   -0.0000000000
C       -0.0992610000    0.0790840000   -0.0000000000
C       -0.0690480000   -0.0490210000   -0.0000000000
N       -0.3881390000    0.6883060000   -0.0000000000
H        0.1426130000    0.0176670000   -0.0000000000
H        0.1391960000   -0.0257760000   -0.0000000000
H        0.1634030000    0.0183260000   -0.0000000000
H        0.1555510000   -0.0026900000   -0.0000000000
H        0.1644990000    0.0076770000   -0.0000000000
C       -0.0983930000   -0.0309420000   -0.0000000000
H        0.1362940000    0.0027120000   -0.0000000000
13   
From optimize.out: Frame 7 / 63, Energy=    -286.8271695277
C        0.0640040000   -0.2349140000   -0.0000000000
C       -0.1163250000    0.5918170000   -0.0000000000
C       -0.1974720000   -0.0251900000   -0.0000000000
C       -0.0948330000    0.0712100000   -0.0000000000
C       -0.0610570000   -0.0408370000   -0.0000000000
N       -0.3835370000    0.6383880000   -0.0000000000
H        0.1414680000    0.0143950000   -0.0000000000
H        0.1404300000   -0.0278910000   -0.0000000000
H        0.1612950000    0.0202240000   -0.0000000000
H        0.1510140000   -0.0012180000   -0.0000000000
H        0.1588460000    0.0095310000   -0.0000000000
C       -0.1021710000   -0.0183820000   -0.0000000000
H        0.1383360000    0.0028680000   -0.0000000000
13   
From optimize.out: Frame 8 / 63, Energy=    -286.8413920298
C        0.0586530000   -0.2352650000   -0.0000000000
C       -0.1140470000    0.6288840000   -0.0000000000
C       -0.1991990000   -0.0309930000   -0.0000000000
C       -0.0920070000    0.0630170000   -0.0000000000
C       -0.0556230000   -0.0359340000   -0.0000000000
N       -0.3757330000    0.5967000000   -0.0000000000
H        0.1406920000    0.0117010000   -0.0000000000
H        0.1415650000   -0.0295750000   -0.0000000000
H        0.1592600000    0.0218960000   -0.0000000000
H        0.1473100000    0.0003040000   -0.0000000000
H        0.1541700000    0.0121040000   -0.0000000000
C       -0.1036840000   -0.0061830000   -0.0000000000
H        0.1386430000    0.0033450000   -0.0000000000
13   
From optimize.out: Frame 9 / 63, Energy=    -286.8524029845
C        0.0543180000   -0.2347670000   -0.0000000000
C       -0.1128160000    0.6584040000   -0.0000000000
C       -0.1994690000   -0.0375150000   -0.0000000000
C       -0.0905780000    0.0543230000   -0.0000000000
C       -0.0537730000   -0.0328880000   -0.0000000000
N       -0.3674380000    0.5649380000   -0.0000000000
H        0.1402970000    0.0097360000   -0.0000000000
H        0.1423450000   -0.0308340000   -0.0000000000
H        0.1573360000    0.0232450000   -0.0000000000
H        0.1442970000    0.0015890000   -0.0000000000
H        0.1514040000    0.0147980000   -0.0000000000
C       -0.1039950000    0.0049050000   -0.0000000000
H        0.1380720000    0.0040640000   -0.0000000000
13   
From optimize.out: Frame 10 / 63, Energy=    -286.8605328740
C        0.0513420000   -0.2341500000   -0.0000000000
C       -0.1125050000    0.6795890000   -0.0000000000
C       -0.1982300000   -0.0436890000   -0.0000000000
C       -0.0892420000    0.0465220000   -0.0000000000
C       -0.0544240000   -0.0306640000   -0.0000000000
N       -0.3607410000    0.5427100000   -0.0000000000
H        0.1400490000    0.0085110000   -0.0000000000
H        0.1428950000   -0.0316850000   -0.0000000000
H        0.1554460000    0.0243540000   -0.0000000000
H        0.1420070000    0.0024070000   -0.0000000000
H        0.1506100000    0.0172630000   -0.0000000000
C       -0.1042850000    0.0139450000   -0.0000000000
H        0.1370790000    0.0048880000   -0.0000000000
13   
From optimize.out: Frame 11 / 63, Energy=    -286.8662950997
C        0.0493930000   -0.2334960000   -0.0000000000
C       -0.1129280000    0.6925650000   -0.0000000000
C       -0.1963790000   -0.0484540000   -0.0000000000
C       -0.0867770000    0.0404220000   -0.0000000000
C       -0.0563350000   -0.0290720000   -0.0000000000
N       -0.3559330000    0.5282280000   -0.0000000000
H        0.1399620000    0.0078610000   -0.0000000000
H        0.1431560000   -0.0321770000   -0.0000000000
H        0.1535910000    0.0251920000   -0.0000000000
H        0.1402570000    0.0028380000   -0.0000000000
H        0.1509220000    0.0194620000   -0.0000000000
C       -0.1048630000    0.0209840000   -0.0000000000
H        0.1359350000    0.0056470000   -0.0000000000
13   
From optimize.out: Frame 12 / 63, Energy=    -286.8702555028
C        0.0482950000   -0.2328880000   -0.0000000000
C       -0.1135260000    0.6985690000   -0.0000000000
C       -0.1952190000   -0.0514130000   -0.0000000000
C       -0.0833410000    0.0365020000   -0.0000000000
C       -0.0583500000   -0.0281950000   -0.0000000000
N       -0.3529460000    0.5200310000   -0.0000000000
H        0.1400520000    0.0075870000   -0.0000000000
H        0.1433480000   -0.0323910000   -0.0000000000
H        0.1517790000    0.0257360000   -0.0000000000
H        0.1388890000    0.0030570000   -0.0000000000
H        0.1516660000    0.0212860000   -0.0000000000
C       -0.1054790000    0.0259130000   -0.0000000000
H        0.1348340000    0.0062070000   -0.0000000000
13   
From optimize.out: Frame 13 / 63, Energy=    -286.8728731542
C        0.0478010000   -0.2323150000   -0.0000000000
C       -0.1145900000    0.6998600000   -0.0000000000
C       -0.1931200000   -0.0532230000   -0.0000000000
C       -0.0790810000    0.0334110000   -0.0000000000
C       -0.0607700000   -0.0276090000   -0.0000000000
N       -0.3512040000    0.5163910000   -0.0000000000
H        0.1402510000    0.0074890000   -0.0000000000
H        0.1429850000   -0.0324260000   -0.0000000000
H        0.1505930000    0.0258320000   -0.0000000000
H        0.1378790000    0.0031240000   -0.0000000000
H        0.1518860000    0.0229740000   -0.0000000000
C       -0.1065720000    0.0298300000   -0.0000000000
H        0.1339430000    0.0066610000   -0.0000000000
13   
From optimize.out: Frame 14 / 63, Energy=    -286.8742444389
C        0.0479120000   -0.2314640000   -0.0000000000
C       -0.1137660000    0.6982140000   -0.0000000000
C       -0.1961180000   -0.0536370000   -0.0000000000
C       -0.0782570000    0.0341820000   -0.0000000000
C       -0.0603930000   -0.0281050000   -0.0000000000
N       -0.3509960000    0.5149420000   -0.0000000000
H        0.1404860000    0.0074640000   -0.0000000000
H        0.1441280000   -0.0323550000   -0.0000000000
H        0.1485400000    0.0262650000   -0.0000000000
H        0.1373940000    0.0034560000   -0.0000000000
H        0.1531380000    0.0235440000   -0.0000000000
C       -0.1054610000    0.0308030000   -0.0000000000
H        0.1333920000    0.0066920000   -0.0000000000
13   
From optimize.out: Frame 15 / 63, Energy=    -286.8752595816
C        0.0476660000   -0.2313600000   -0.0000000000
C       -0.1152420000    0.6954060000   -0.0000000000
C       -0.1927200000   -0.0543880000   -0.0000000000
C       -0.0752970000    0.0311330000   -0.0000000000
C       -0.0619780000   -0.0275120000   -0.0000000000
N       -0.3504470000    0.5159120000   -0.0000000000
H        0.1406330000    0.0074690000   -0.0000000000
H        0.1431890000   -0.0322310000   -0.0000000000
H        0.1484540000    0.0255930000   -0.0000000000
H        0.1374520000    0.0034040000   -0.0000000000
H        0.1520660000    0.0253470000   -0.0000000000
C       -0.1069580000    0.0341180000   -0.0000000000
H        0.1331810000    0.0071070000   -0.0000000000
13   
From optimize.out: Frame 57 / 63, Energy=    -286.8752733242
C        0.0482410000   -0.2304450000   -0.0000000000
C       -0.1159410000    0.6949850000   -0.0000000000
C       -0.1925100000   -0.0550780000   -0.0000000000
C       -0.0725910000    0.0280350000   -0.0000000000
C       -0.0629760000   -0.0270440000   -0.0000000000
N       -0.3505720000    0.5146040000   -0.0000000000
H        0.1404850000    0.0074640000   -0.0000000000
H        0.1433260000   -0.0322220000   -0.0000000000
H        0.1485880000    0.0248550000   -0.0000000000
H        0.1373600000    0.0035970000   -0.0000000000
H        0.1509940000    0.0263650000   -0.0000000000
C       -0.1079130000    0.0379380000   -0.0000000000
H        0.1335100000    0.0069470000   -0.0000000000
13   
From optimize.out: Frame 58 / 63, Energy=    -286.8753953007
C        0.0480920000   -0.2304900000   -0.0000000000
C       -0.1149720000    0.6944380000   -0.0000000000
C       -0.1941580000   -0.0545840000   -0.0000000000
C       -0.0733200000    0.0305840000   -0.0000000000
C       -0.0627440000   -0.0272940000   -0.0000000000
N       -0.3504150000    0.5151970000   -0.0000000000
H        0.1405520000    0.0074570000   -0.0000000000
H        0.1434090000   -0.0322050000   -0.0000000000
H        0.1483750000    0.0249240000   -0.0000000000
H        0.1373970000    0.0035720000   -0.0000000000
H        0.1510370000    0.0257320000   -0.0000000000
C       -0.1065120000    0.0357650000   -0.0000000000
H        0.1332580000    0.0069040000   -0.0000000000
13   
From optimize.out: Frame 59 / 63, Energy=    -286.8754361380
C        0.0480340000   -0.2306140000   -0.0000000000
C       -0.1147300000    0.6940880000   -0.0000000000
C       -0.1942530000   -0.0543390000   -0.0000000000
C       -0.0741460000    0.0312850000   -0.0000000000
C       -0.0626360000   -0.0273950000   -0.0000000000
N       -0.3505520000    0.5158920000   -0.0000000000
H        0.1405550000    0.0074580000   -0.0000000000
H        0.1434350000   -0.0321940000   -0.0000000000
H        0.1482620000    0.0249700000   -0.0000000000
H        0.1373880000    0.0035610000   -0.0000000000
H        0.1511800000    0.0254960000   -0.0000000000
C       -0.1057160000    0.0348880000   -0.0000000000
H        0.1331790000    0.0069050000   -0.0000000000
13   
From optimize.out: Frame 60 / 63, Energy=    -286.8754554772
C        0.0480860000   -0.2307860000   -0.0000000000
C       -0.1148140000    0.6939780000   -0.0000000000
C       -0.1938500000   -0.0542160000   -0.0000000000
C       -0.0750570000    0.0314010000   -0.0000000000
C       -0.0624670000   -0.0274360000   -0.0000000000
N       -0.3508530000    0.5164770000   -0.0000000000
H        0.1405680000    0.0074590000   -0.0000000000
H        0.1434180000   -0.0321920000   -0.0000000000
H        0.1481890000    0.0250020000   -0.0000000000
H        0.1374140000    0.0035710000   -0.0000000000
H        0.1514100000    0.0253300000   -0.0000000000
C       -0.1052490000    0.0345040000   -0.0000000000
H        0.1332050000    0.0069090000   -0.0000000000
13   
From optimize.out: Frame 61 / 63, Energy=    -286.8754604018
C        0.0481220000   -0.2308130000   -0.0000000000
C       -0.1149270000    0.6939650000   -0.0000000000
C       -0.1935750000   -0.0541850000   -0.0000000000
C       -0.0754280000    0.0314510000   -0.0000000000
C       -0.0623320000   -0.0274740000   -0.0000000000
N       -0.3509700000    0.5165400000   -0.0000000000
H        0.1405520000    0.0074550000   -0.0000000000
H        0.1434070000   -0.0321920000   -0.0000000000
H        0.1481770000    0.0250360000   -0.0000000000
H        0.1374270000    0.0035840000   -0.0000000000
H        0.1514870000    0.0253200000   -0.0000000000
C       -0.1052020000    0.0344030000   -0.0000000000
H        0.1332610000    0.0069090000   -0.0000000000
13   
From optimize.out: Frame 62 / 63, Energy=    -286.8754635958
C        0.0481740000   -0.2308120000   -0.0000000000
C       -0.1149970000    0.6939660000   -0.0000000000
C       -0.1934290000   -0.0541540000   -0.0000000000
C       -0.0756360000    0.0316190000   -0.0000000000
C       -0.0621970000   -0.0275250000   -0.0000000000
N       -0.3510690000    0.5165160000   -0.0000000000
H        0.1405360000    0.0074480000   -0.0000000000
H        0.1434030000   -0.0321900000   -0.0000000000
H        0.1481720000    0.0250870000   -0.0000000000
H        0.1374290000    0.0035950000   -0.0000000000
H        0.1515170000    0.0253160000   -0.0000000000
C       -0.1052200000    0.0342350000   -0.0000000000
H        0.1333170000    0.0069010000   -0.0000000000
