13   
From optimize.out: Frame 1 / 2, Energy=    -286.8505842057
C        0.6811803230    0.0317936967    0.2156119993
C        0.9627661176   -1.2233317452   -0.5900318239
C        0.2675532960   -2.3347351359   -0.5389793213
C       -1.2861639979    1.1546114078    0.6052344057
C       -0.4534009560    1.8177589315   -0.4089599350
N        0.6579891053    1.2142700950   -0.6642781004
H        1.5273291672    0.1837620420    0.9088316254
H        1.8297741427   -1.1371404930   -1.2554242283
H        0.3023340206   -3.3107049610   -1.0065511347
H       -2.2520254188    1.4996642251    0.9567577263
H       -0.7184196235    2.7417342434   -0.9217213902
C       -0.6123296359    0.0543982618    0.9858516957
H       -0.9065865403   -0.6920805681    1.7136584814
