13   
From optimize.out: Frame 1 / 2, Energy=    -286.8461971281
C        1.9428671549    0.1644130201   -0.5816694291
C        1.1171166541   -0.7250166629   -0.0036560302
C       -0.2927840060   -0.2256916522   -0.2056906425
C       -1.0511201092    0.0417131585    1.0956345203
C       -0.0024048681    1.0452593303   -0.9825406061
N        1.2505041428    1.2579809599   -1.1897213086
H        3.0249701578    0.1420497572   -0.6411949128
H        1.3785570708   -1.6314259533    0.5273052169
H       -0.8804660219   -0.9148225955   -0.8298881231
H       -0.5399779417    0.7085944320    1.7925776609
H       -0.7717201054    1.7284287703   -1.3355947938
C       -2.2231320458   -0.4639088046    1.4017476031
H       -2.9524100829   -1.1275737599    0.9526908452
13   
From optimize.out: Frame 57 / 58, Energy=    -286.8437898165
C        1.4070808082   -0.4162452932    0.0529122145
C        2.2317435209   -0.2207509882   -1.1331213223
C        1.4143781494    0.3811150641   -2.0436267956
C       -2.3477322796   -0.0971190147    2.0273722337
C        0.1291349307    0.5258904076   -1.3697993504
N        0.1499578241    0.0397250646   -0.1132064142
H        1.7161211031   -0.8721595207    0.9884469298
H        3.2710950001   -0.5028847600   -1.2404701366
H        1.6441254435    0.6941357225   -3.0536857455
H       -1.5377142575   -0.0215008136    1.3217514557
H       -0.7750181459    0.9659849263   -1.7788524247
C       -3.2521962725   -0.1957325051    2.8203417849
H       -4.0509758245   -0.2804582896    3.5219375708
