13   
Frame   0 IRC: Energy =  -286.8706193735 ; +0.0000 kcal/mol
C       -0.1475330000    0.0003830000   -0.0000000000
C       -0.0791020000    0.0243020000   -0.0000000000
C       -0.1666060000    0.0412550000   -0.0000000000
C       -0.0009540000   -0.1894730000    0.0000000000
C       -0.0748840000    0.0306140000   -0.0000000000
N       -0.1854240000    0.0013360000   -0.0000000000
H        0.1349500000    0.0001890000   -0.0000000000
H        0.1410350000    0.0000710000    0.0000000000
H        0.1681020000   -0.0041650000   -0.0000000000
H        0.1528050000    0.0395840000    0.0000000000
H        0.1420880000   -0.0005020000   -0.0000000000
C       -0.2349020000    1.0485490000    0.0000000000
H        0.1504220000    0.0078550000    0.0000000000
13   
Frame   1 IRC: Energy =  -286.8706191912 ; +0.0001 kcal/mol
C       -0.1475710000    0.0004130000   -0.0000000000
C       -0.0790140000    0.0242740000   -0.0000000000
C       -0.1665720000    0.0412080000   -0.0000000000
C       -0.0009310000   -0.1894410000    0.0000000000
C       -0.0748770000    0.0306640000   -0.0000000000
N       -0.1854580000    0.0013380000   -0.0000000000
H        0.1349580000    0.0001900000   -0.0000000000
H        0.1410370000    0.0000710000    0.0000000000
H        0.1680740000   -0.0041590000   -0.0000000000
H        0.1528140000    0.0395070000    0.0000000000
H        0.1420950000   -0.0005030000   -0.0000000000
C       -0.2349430000    1.0485740000    0.0000000000
H        0.1503900000    0.0078630000    0.0000000000
13   
Frame   2 IRC: Energy =  -286.8706172757 ; +0.0013 kcal/mol
C       -0.1477960000    0.0004720000   -0.0000000000
C       -0.0783840000    0.0242080000   -0.0000000000
C       -0.1669120000    0.0410210000   -0.0000000000
C       -0.0002910000   -0.1894060000    0.0000000000
C       -0.0751110000    0.0308690000   -0.0000000000
N       -0.1854810000    0.0013060000   -0.0000000000
H        0.1349660000    0.0001920000   -0.0000000000
H        0.1410100000    0.0000740000    0.0000000000
H        0.1680190000   -0.0041460000   -0.0000000000
H        0.1528160000    0.0393760000    0.0000000000
H        0.1420590000   -0.0005070000   -0.0000000000
C       -0.2352380000    1.0486670000    0.0000000000
H        0.1503430000    0.0078740000    0.0000000000
13   
Frame   3 IRC: Energy =  -286.8706094590 ; +0.0062 kcal/mol
C       -0.1464500000    0.0005330000   -0.0000000000
C       -0.0797320000    0.0241290000   -0.0000000000
C       -0.1635340000    0.0412750000   -0.0000000000
C       -0.0013310000   -0.1894930000    0.0000000000
C       -0.0768400000    0.0314360000   -0.0000000000
N       -0.1855160000    0.0012730000   -0.0000000000
H        0.1349090000    0.0001620000   -0.0000000000
H        0.1409350000    0.0000830000    0.0000000000
H        0.1675930000   -0.0041760000   -0.0000000000
H        0.1529670000    0.0394680000    0.0000000000
H        0.1421000000   -0.0005140000   -0.0000000000
C       -0.2355070000    1.0480800000    0.0000000000
H        0.1504070000    0.0077440000    0.0000000000
13   
Frame   4 IRC: Energy =  -286.8705840506 ; +0.0222 kcal/mol
C       -0.1418150000    0.0009450000   -0.0000000000
C       -0.0866760000    0.0234870000   -0.0000000000
C       -0.1513650000    0.0428020000   -0.0000000000
C       -0.0074540000   -0.1899010000    0.0000000000
C       -0.0810200000    0.0318830000   -0.0000000000
N       -0.1857220000    0.0010060000   -0.0000000000
H        0.1348980000    0.0001530000   -0.0000000000
H        0.1409560000    0.0000900000    0.0000000000
H        0.1668250000   -0.0042580000   -0.0000000000
H        0.1532810000    0.0398680000    0.0000000000
H        0.1421940000   -0.0005190000   -0.0000000000
C       -0.2347450000    1.0469940000    0.0000000000
H        0.1506450000    0.0074500000    0.0000000000
13   
Frame   5 IRC: Energy =  -286.8704721974 ; +0.0924 kcal/mol
C       -0.1355970000    0.0012790000   -0.0000000000
C       -0.0961440000    0.0227640000   -0.0000000000
C       -0.1396320000    0.0457930000   -0.0000000000
C       -0.0149770000   -0.1903170000    0.0000000000
C       -0.0859730000    0.0308270000   -0.0000000000
N       -0.1853430000    0.0008120000   -0.0000000000
H        0.1349970000    0.0001470000   -0.0000000000
H        0.1412150000    0.0000870000    0.0000000000
H        0.1666050000   -0.0044010000   -0.0000000000
H        0.1536940000    0.0405650000    0.0000000000
H        0.1425060000   -0.0005170000   -0.0000000000
C       -0.2322720000    1.0460950000    0.0000000000
H        0.1509210000    0.0068650000    0.0000000000
13   
Frame   6 IRC: Energy =  -286.8703190000 ; +0.1885 kcal/mol
C       -0.1230370000    0.0004620000   -0.0000000000
C       -0.1166040000    0.0241410000   -0.0000000000
C       -0.1212790000    0.0456200000   -0.0000000000
C       -0.0102100000   -0.1909810000    0.0000000000
C       -0.0918700000    0.0324640000   -0.0000000000
N       -0.1858400000    0.0005350000   -0.0000000000
H        0.1349620000    0.0001040000   -0.0000000000
H        0.1409810000    0.0000910000    0.0000000000
H        0.1643570000   -0.0045040000   -0.0000000000
H        0.1545270000    0.0411220000    0.0000000000
H        0.1423510000   -0.0005330000   -0.0000000000
C       -0.2399610000    1.0450680000    0.0000000000
H        0.1516230000    0.0064110000    0.0000000000
13   
Frame   7 IRC: Energy =  -286.8702930000 ; +0.2048 kcal/mol
C       -0.1221690000    0.0004180000   -0.0000000000
C       -0.1165110000    0.0242020000   -0.0000000000
C       -0.1211100000    0.0455050000   -0.0000000000
C       -0.0104520000   -0.1909770000    0.0000000000
C       -0.0916320000    0.0325460000   -0.0000000000
N       -0.1861490000    0.0004910000   -0.0000000000
H        0.1347800000    0.0001000000   -0.0000000000
H        0.1409840000    0.0000900000    0.0000000000
H        0.1642010000   -0.0045110000   -0.0000000000
H        0.1545690000    0.0412550000    0.0000000000
H        0.1423830000   -0.0005300000   -0.0000000000
C       -0.2404960000    1.0447400000    0.0000000000
H        0.1516020000    0.0066730000    0.0000000000
13   
Frame   8 IRC: Energy =  -286.8702870000 ; +0.2086 kcal/mol
C       -0.1221460000    0.0003840000   -0.0000000000
C       -0.1160470000    0.0242670000   -0.0000000000
C       -0.1214720000    0.0453230000   -0.0000000000
C       -0.0107220000   -0.1910470000    0.0000000000
C       -0.0912400000    0.0325230000   -0.0000000000
N       -0.1863960000    0.0004620000   -0.0000000000
H        0.1347670000    0.0000980000   -0.0000000000
H        0.1410440000    0.0000910000    0.0000000000
H        0.1641560000   -0.0045040000   -0.0000000000
H        0.1545660000    0.0412110000    0.0000000000
H        0.1423780000   -0.0005300000   -0.0000000000
C       -0.2404690000    1.0449740000    0.0000000000
H        0.1515800000    0.0067490000    0.0000000000
13   
Frame   9 IRC: Energy =  -286.8700750000 ; +0.3416 kcal/mol
C       -0.1141810000    0.0006010000   -0.0000000000
C       -0.1278750000    0.0236400000   -0.0000000000
C       -0.1067670000    0.0473560000   -0.0000000000
C       -0.0126570000   -0.1915540000    0.0000000000
C       -0.0980610000    0.0333070000   -0.0000000000
N       -0.1863490000    0.0002050000   -0.0000000000
H        0.1348300000    0.0000650000   -0.0000000000
H        0.1409670000    0.0000980000    0.0000000000
H        0.1630820000   -0.0046070000   -0.0000000000
H        0.1551960000    0.0417530000    0.0000000000
H        0.1424610000   -0.0005440000   -0.0000000000
C       -0.2426610000    1.0434840000    0.0000000000
H        0.1520150000    0.0061960000    0.0000000000
13   
Frame  10 IRC: Energy =  -286.8700700000 ; +0.3447 kcal/mol
C       -0.1140290000    0.0005840000   -0.0000000000
C       -0.1281390000    0.0236030000   -0.0000000000
C       -0.1064210000    0.0472810000   -0.0000000000
C       -0.0129430000   -0.1917330000    0.0000000000
C       -0.0981200000    0.0332880000   -0.0000000000
N       -0.1862910000    0.0001870000   -0.0000000000
H        0.1348350000    0.0000660000   -0.0000000000
H        0.1409620000    0.0000980000    0.0000000000
H        0.1630710000   -0.0045980000   -0.0000000000
H        0.1552100000    0.0416040000    0.0000000000
H        0.1424550000   -0.0005440000   -0.0000000000
C       -0.2425940000    1.0440360000    0.0000000000
H        0.1520040000    0.0061290000    0.0000000000
13   
Frame  11 IRC: Energy =  -286.8697890000 ; +0.5211 kcal/mol
C       -0.1064990000    0.0008900000   -0.0000000000
C       -0.1378490000    0.0228940000   -0.0000000000
C       -0.0936030000    0.0493850000   -0.0000000000
C       -0.0143920000   -0.1921850000    0.0000000000
C       -0.1044570000    0.0340020000   -0.0000000000
N       -0.1865680000   -0.0001600000   -0.0000000000
H        0.1347820000    0.0000260000   -0.0000000000
H        0.1409620000    0.0001090000    0.0000000000
H        0.1620240000   -0.0047020000   -0.0000000000
H        0.1558390000    0.0423330000    0.0000000000
H        0.1425710000   -0.0005600000   -0.0000000000
C       -0.2452410000    1.0422060000    0.0000000000
H        0.1524320000    0.0057610000    0.0000000000
13   
Frame  12 IRC: Energy =  -286.8697820000 ; +0.5255 kcal/mol
C       -0.1063320000    0.0008800000   -0.0000000000
C       -0.1380760000    0.0228530000   -0.0000000000
C       -0.0932360000    0.0492810000   -0.0000000000
C       -0.0147600000   -0.1923950000    0.0000000000
C       -0.1044650000    0.0339850000   -0.0000000000
N       -0.1865610000   -0.0001960000   -0.0000000000
H        0.1347920000    0.0000260000   -0.0000000000
H        0.1409810000    0.0001100000    0.0000000000
H        0.1619990000   -0.0046920000   -0.0000000000
H        0.1558530000    0.0421610000    0.0000000000
H        0.1425540000   -0.0005610000   -0.0000000000
C       -0.2451640000    1.0428570000    0.0000000000
H        0.1524160000    0.0056910000    0.0000000000
13   
Frame  13 IRC: Energy =  -286.8696580000 ; +0.6033 kcal/mol
C       -0.1035570000    0.0010310000   -0.0000000000
C       -0.1415900000    0.0225610000   -0.0000000000
C       -0.0886060000    0.0502770000   -0.0000000000
C       -0.0148910000   -0.1924320000    0.0000000000
C       -0.1070540000    0.0342610000   -0.0000000000
N       -0.1866140000   -0.0003120000   -0.0000000000
H        0.1347650000    0.0000100000   -0.0000000000
H        0.1409560000    0.0001130000    0.0000000000
H        0.1616170000   -0.0047410000   -0.0000000000
H        0.1561010000    0.0426010000    0.0000000000
H        0.1426160000   -0.0005670000   -0.0000000000
C       -0.2463600000    1.0416240000    0.0000000000
H        0.1526160000    0.0055730000    0.0000000000
13   
Frame  14 IRC: Energy =  -286.8696480000 ; +0.6095 kcal/mol
C       -0.1033380000    0.0010180000   -0.0000000000
C       -0.1418490000    0.0225180000   -0.0000000000
C       -0.0881710000    0.0501850000   -0.0000000000
C       -0.0152640000   -0.1926570000    0.0000000000
C       -0.1071210000    0.0342360000   -0.0000000000
N       -0.1866150000   -0.0003460000   -0.0000000000
H        0.1347730000    0.0000100000   -0.0000000000
H        0.1409730000    0.0001140000    0.0000000000
H        0.1615890000   -0.0047300000   -0.0000000000
H        0.1561240000    0.0424230000    0.0000000000
H        0.1426100000   -0.0005680000   -0.0000000000
C       -0.2463130000    1.0423040000    0.0000000000
H        0.1526020000    0.0054950000    0.0000000000
13   
Frame  15 IRC: Energy =  -286.8695790000 ; +0.6528 kcal/mol
C       -0.1019270000    0.0011070000   -0.0000000000
C       -0.1436440000    0.0223750000   -0.0000000000
C       -0.0858370000    0.0507990000   -0.0000000000
C       -0.0151370000   -0.1925730000    0.0000000000
C       -0.1085310000    0.0343940000   -0.0000000000
N       -0.1866280000   -0.0003930000   -0.0000000000
H        0.1347570000    0.0000020000   -0.0000000000
H        0.1409520000    0.0001150000    0.0000000000
H        0.1613900000   -0.0047630000   -0.0000000000
H        0.1562510000    0.0427590000    0.0000000000
H        0.1426410000   -0.0005710000   -0.0000000000
C       -0.2470110000    1.0412860000    0.0000000000
H        0.1527240000    0.0054630000    0.0000000000
13   
Frame  16 IRC: Energy =  -286.8695670000 ; +0.6604 kcal/mol
C       -0.1016610000    0.0010990000   -0.0000000000
C       -0.1439430000    0.0223210000   -0.0000000000
C       -0.0853340000    0.0507180000   -0.0000000000
C       -0.0155130000   -0.1928110000    0.0000000000
C       -0.1086540000    0.0343710000   -0.0000000000
N       -0.1866300000   -0.0004320000   -0.0000000000
H        0.1347640000    0.0000010000   -0.0000000000
H        0.1409680000    0.0001160000    0.0000000000
H        0.1613590000   -0.0047530000   -0.0000000000
H        0.1562800000    0.0425770000    0.0000000000
H        0.1426420000   -0.0005720000   -0.0000000000
C       -0.2469890000    1.0419860000    0.0000000000
H        0.1527120000    0.0053790000    0.0000000000
13   
Frame  17 IRC: Energy =  -286.8695180000 ; +0.6911 kcal/mol
C       -0.1007090000    0.0012030000   -0.0000000000
C       -0.1451680000    0.0221870000   -0.0000000000
C       -0.0837700000    0.0512080000   -0.0000000000
C       -0.0153060000   -0.1926880000    0.0000000000
C       -0.1096530000    0.0345160000   -0.0000000000
N       -0.1866340000   -0.0004730000   -0.0000000000
H        0.1347520000   -0.0000080000   -0.0000000000
H        0.1409490000    0.0001200000    0.0000000000
H        0.1612200000   -0.0047810000   -0.0000000000
H        0.1563640000    0.0428840000    0.0000000000
H        0.1426600000   -0.0005760000   -0.0000000000
C       -0.2475140000    1.0410300000    0.0000000000
H        0.1528080000    0.0053780000    0.0000000000
13   
Frame  18 IRC: Energy =  -286.8695020000 ; +0.7012 kcal/mol
C       -0.1003960000    0.0011570000   -0.0000000000
C       -0.1455140000    0.0221730000   -0.0000000000
C       -0.0831890000    0.0511350000   -0.0000000000
C       -0.0156860000   -0.1929300000    0.0000000000
C       -0.1098340000    0.0344660000   -0.0000000000
N       -0.1866350000   -0.0004940000   -0.0000000000
H        0.1347580000   -0.0000050000   -0.0000000000
H        0.1409640000    0.0001170000    0.0000000000
H        0.1611850000   -0.0047700000   -0.0000000000
H        0.1564000000    0.0426990000    0.0000000000
H        0.1426660000   -0.0005740000   -0.0000000000
C       -0.2475170000    1.0417390000    0.0000000000
H        0.1527990000    0.0052880000    0.0000000000
13   
Frame  19 IRC: Energy =  -286.8694630000 ; +0.7256 kcal/mol
C       -0.0996760000    0.0011440000   -0.0000000000
C       -0.1464520000    0.0221960000   -0.0000000000
C       -0.0820150000    0.0515550000   -0.0000000000
C       -0.0154400000   -0.1927630000    0.0000000000
C       -0.1106190000    0.0344830000   -0.0000000000
N       -0.1866340000   -0.0004420000   -0.0000000000
H        0.1347470000   -0.0000060000   -0.0000000000
H        0.1409470000    0.0001120000    0.0000000000
H        0.1610740000   -0.0047940000   -0.0000000000
H        0.1564620000    0.0429910000    0.0000000000
H        0.1426760000   -0.0005690000   -0.0000000000
C       -0.2479520000    1.0407900000    0.0000000000
H        0.1528820000    0.0053040000    0.0000000000
13   
Frame  20 IRC: Energy =  -286.8694450000 ; +0.7369 kcal/mol
C       -0.0993110000    0.0011930000   -0.0000000000
C       -0.1468530000    0.0220610000   -0.0000000000
C       -0.0813470000    0.0515060000   -0.0000000000
C       -0.0158250000   -0.1930310000    0.0000000000
C       -0.1108610000    0.0345170000   -0.0000000000
N       -0.1866350000   -0.0005270000   -0.0000000000
H        0.1347520000   -0.0000100000   -0.0000000000
H        0.1409600000    0.0001160000    0.0000000000
H        0.1610340000   -0.0047850000   -0.0000000000
H        0.1565040000    0.0428070000    0.0000000000
H        0.1426870000   -0.0005740000   -0.0000000000
C       -0.2479820000    1.0415190000    0.0000000000
H        0.1528760000    0.0052070000    0.0000000000
13   
Frame  21 IRC: Energy =  -286.8694110000 ; +0.7583 kcal/mol
C       -0.0987320000    0.0011630000   -0.0000000000
C       -0.1476160000    0.0221130000   -0.0000000000
C       -0.0804150000    0.0518830000   -0.0000000000
C       -0.0155540000   -0.1928490000    0.0000000000
C       -0.1115120000    0.0345260000   -0.0000000000
N       -0.1866320000   -0.0004710000   -0.0000000000
H        0.1347430000   -0.0000090000   -0.0000000000
H        0.1409440000    0.0001110000    0.0000000000
H        0.1609410000   -0.0048070000   -0.0000000000
H        0.1565520000    0.0430940000    0.0000000000
H        0.1426910000   -0.0005690000   -0.0000000000
C       -0.2483610000    1.0405800000    0.0000000000
H        0.1529510000    0.0052340000    0.0000000000
13   
Frame  22 IRC: Energy =  -286.8693890000 ; +0.7721 kcal/mol
C       -0.0983060000    0.0011760000   -0.0000000000
C       -0.1480860000    0.0220170000   -0.0000000000
C       -0.0796390000    0.0518530000   -0.0000000000
C       -0.0159470000   -0.1931230000    0.0000000000
C       -0.1118240000    0.0345210000   -0.0000000000
N       -0.1866310000   -0.0005280000   -0.0000000000
H        0.1347480000   -0.0000110000   -0.0000000000
H        0.1409570000    0.0001120000    0.0000000000
H        0.1608940000   -0.0047980000   -0.0000000000
H        0.1566020000    0.0429100000    0.0000000000
H        0.1427050000   -0.0005710000   -0.0000000000
C       -0.2484220000    1.0413120000    0.0000000000
H        0.1529500000    0.0051290000    0.0000000000
13   
Frame  23 IRC: Energy =  -286.8693600000 ; +0.7903 kcal/mol
C       -0.0978250000    0.0012390000   -0.0000000000
C       -0.1487290000    0.0219640000   -0.0000000000
C       -0.0788750000    0.0522090000   -0.0000000000
C       -0.0156570000   -0.1929310000    0.0000000000
C       -0.1123830000    0.0346240000   -0.0000000000
N       -0.1866260000   -0.0005430000   -0.0000000000
H        0.1347400000   -0.0000160000   -0.0000000000
H        0.1409420000    0.0001140000    0.0000000000
H        0.1608130000   -0.0048200000   -0.0000000000
H        0.1566400000    0.0431950000    0.0000000000
H        0.1427050000   -0.0005730000   -0.0000000000
C       -0.2487650000    1.0403720000    0.0000000000
H        0.1530200000    0.0051660000    0.0000000000
13   
Frame  24 IRC: Energy =  -286.8693330000 ; +0.8072 kcal/mol
C       -0.0973230000    0.0012180000   -0.0000000000
C       -0.1492850000    0.0219020000   -0.0000000000
C       -0.0779660000    0.0522070000   -0.0000000000
C       -0.0160590000   -0.1932250000    0.0000000000
C       -0.1127810000    0.0345810000   -0.0000000000
N       -0.1866230000   -0.0005730000   -0.0000000000
H        0.1347440000   -0.0000160000   -0.0000000000
H        0.1409540000    0.0001120000    0.0000000000
H        0.1607560000   -0.0048110000   -0.0000000000
H        0.1566990000    0.0430140000    0.0000000000
H        0.1427230000   -0.0005720000   -0.0000000000
C       -0.2488640000    1.0411140000    0.0000000000
H        0.1530250000    0.0050500000    0.0000000000
13   
Frame  25 IRC: Energy =  -286.8693070000 ; +0.8235 kcal/mol
C       -0.0969140000    0.0013210000   -0.0000000000
C       -0.1498390000    0.0218050000   -0.0000000000
C       -0.0773280000    0.0525440000   -0.0000000000
C       -0.0157530000   -0.1930290000    0.0000000000
C       -0.1132700000    0.0347210000   -0.0000000000
N       -0.1866170000   -0.0006160000   -0.0000000000
H        0.1347360000   -0.0000230000   -0.0000000000
H        0.1409390000    0.0001170000    0.0000000000
H        0.1606830000   -0.0048340000   -0.0000000000
H        0.1567290000    0.0433010000    0.0000000000
H        0.1427200000   -0.0005770000   -0.0000000000
C       -0.2491790000    1.0401750000    0.0000000000
H        0.1530920000    0.0050940000    0.0000000000
13   
Frame  26 IRC: Energy =  -286.8692720000 ; +0.8455 kcal/mol
C       -0.0963070000    0.0013130000   -0.0000000000
C       -0.1505130000    0.0217190000   -0.0000000000
C       -0.0762410000    0.0525810000   -0.0000000000
C       -0.0161650000   -0.1933310000    0.0000000000
C       -0.1137790000    0.0346930000   -0.0000000000
N       -0.1866120000   -0.0006600000   -0.0000000000
H        0.1347400000   -0.0000240000   -0.0000000000
H        0.1409500000    0.0001160000    0.0000000000
H        0.1606130000   -0.0048260000   -0.0000000000
H        0.1567990000    0.0431250000    0.0000000000
H        0.1427420000   -0.0005770000   -0.0000000000
C       -0.2493300000    1.0409070000    0.0000000000
H        0.1531040000    0.0049650000    0.0000000000
13   
Frame  27 IRC: Energy =  -286.8692490000 ; +0.8599 kcal/mol
C       -0.0959430000    0.0014570000   -0.0000000000
C       -0.1510080000    0.0215760000   -0.0000000000
C       -0.0757070000    0.0529000000   -0.0000000000
C       -0.0158380000   -0.1931460000    0.0000000000
C       -0.1142130000    0.0348770000   -0.0000000000
N       -0.1866080000   -0.0007340000   -0.0000000000
H        0.1347350000   -0.0000340000   -0.0000000000
H        0.1409340000    0.0001250000    0.0000000000
H        0.1605470000   -0.0048490000   -0.0000000000
H        0.1568240000    0.0434160000    0.0000000000
H        0.1427370000   -0.0005860000   -0.0000000000
C       -0.2496290000    1.0399800000    0.0000000000
H        0.1531690000    0.0050180000    0.0000000000
13   
Frame  28 IRC: Energy =  -286.8692040000 ; +0.8882 kcal/mol
C       -0.0952610000    0.0014440000   -0.0000000000
C       -0.1517860000    0.0214810000   -0.0000000000
C       -0.0743500000    0.0530280000   -0.0000000000
C       -0.0163100000   -0.1934720000    0.0000000000
C       -0.1148840000    0.0348200000   -0.0000000000
N       -0.1865780000   -0.0007680000   -0.0000000000
H        0.1347260000   -0.0000340000   -0.0000000000
H        0.1409590000    0.0001220000    0.0000000000
H        0.1604540000   -0.0048440000   -0.0000000000
H        0.1569140000    0.0432500000    0.0000000000
H        0.1427610000   -0.0005840000   -0.0000000000
C       -0.2498390000    1.0406870000    0.0000000000
H        0.1531940000    0.0048680000    0.0000000000
13   
Frame  29 IRC: Energy =  -286.8691820000 ; +0.9020 kcal/mol
C       -0.0949970000    0.0015510000   -0.0000000000
C       -0.1522540000    0.0213900000   -0.0000000000
C       -0.0738080000    0.0533180000   -0.0000000000
C       -0.0159700000   -0.1932610000    0.0000000000
C       -0.1153150000    0.0349680000   -0.0000000000
N       -0.1865070000   -0.0008330000   -0.0000000000
H        0.1347080000   -0.0000410000   -0.0000000000
H        0.1409570000    0.0001280000    0.0000000000
H        0.1603880000   -0.0048650000   -0.0000000000
H        0.1569320000    0.0435440000    0.0000000000
H        0.1427540000   -0.0005910000   -0.0000000000
C       -0.2501480000    1.0397650000    0.0000000000
H        0.1532600000    0.0049270000    0.0000000000
13   
Frame  30 IRC: Energy =  -286.8691130000 ; +0.9453 kcal/mol
C       -0.0936560000    0.0015500000   -0.0000000000
C       -0.1536010000    0.0212540000   -0.0000000000
C       -0.0720250000    0.0535300000   -0.0000000000
C       -0.0163180000   -0.1936410000    0.0000000000
C       -0.1163220000    0.0349780000   -0.0000000000
N       -0.1866240000   -0.0008720000   -0.0000000000
H        0.1347590000   -0.0000460000   -0.0000000000
H        0.1409040000    0.0001270000    0.0000000000
H        0.1602650000   -0.0048630000   -0.0000000000
H        0.1570530000    0.0434220000    0.0000000000
H        0.1427920000   -0.0005910000   -0.0000000000
C       -0.2505410000    1.0404210000    0.0000000000
H        0.1533160000    0.0047310000    0.0000000000
13   
Frame  31 IRC: Energy =  -286.8690900000 ; +0.9597 kcal/mol
C       -0.0932300000    0.0015280000   -0.0000000000
C       -0.1538450000    0.0212870000   -0.0000000000
C       -0.0719510000    0.0536340000   -0.0000000000
C       -0.0161150000   -0.1934600000    0.0000000000
C       -0.1165250000    0.0350800000   -0.0000000000
N       -0.1867690000   -0.0008490000   -0.0000000000
H        0.1347890000   -0.0000500000   -0.0000000000
H        0.1408750000    0.0001270000    0.0000000000
H        0.1602430000   -0.0048750000   -0.0000000000
H        0.1570820000    0.0436820000    0.0000000000
H        0.1427880000   -0.0005890000   -0.0000000000
C       -0.2507280000    1.0395490000    0.0000000000
H        0.1533860000    0.0049350000    0.0000000000
13   
Frame  32 IRC: Energy =  -286.8689320000 ; +1.0588 kcal/mol
C       -0.0913950000    0.0017110000   -0.0000000000
C       -0.1564030000    0.0208640000   -0.0000000000
C       -0.0675070000    0.0546760000   -0.0000000000
C       -0.0166180000   -0.1939580000    0.0000000000
C       -0.1190540000    0.0350820000   -0.0000000000
N       -0.1864090000   -0.0010300000   -0.0000000000
H        0.1347010000   -0.0000560000   -0.0000000000
H        0.1409570000    0.0001260000    0.0000000000
H        0.1598750000   -0.0049040000   -0.0000000000
H        0.1573240000    0.0437480000    0.0000000000
H        0.1428410000   -0.0005950000   -0.0000000000
C       -0.2518610000    1.0398710000    0.0000000000
H        0.1535510000    0.0044660000    0.0000000000
13   
Frame  33 IRC: Energy =  -286.8689060000 ; +1.0752 kcal/mol
C       -0.0915080000    0.0020210000   -0.0000000000
C       -0.1566240000    0.0206160000   -0.0000000000
C       -0.0669420000    0.0557740000   -0.0000000000
C       -0.0160560000   -0.1937070000    0.0000000000
C       -0.1195450000    0.0351180000   -0.0000000000
N       -0.1863520000   -0.0009750000   -0.0000000000
H        0.1346660000   -0.0000640000   -0.0000000000
H        0.1409350000    0.0001310000    0.0000000000
H        0.1597670000   -0.0049550000   -0.0000000000
H        0.1573170000    0.0441630000    0.0000000000
H        0.1428100000   -0.0006020000   -0.0000000000
C       -0.2520500000    1.0383370000    0.0000000000
H        0.1535830000    0.0041430000    0.0000000000
13   
Frame  34 IRC: Energy =  -286.8687950000 ; +1.1448 kcal/mol
C       -0.0891910000    0.0016510000   -0.0000000000
C       -0.1586400000    0.0207610000   -0.0000000000
C       -0.0647910000    0.0550370000   -0.0000000000
C       -0.0165760000   -0.1941720000    0.0000000000
C       -0.1209410000    0.0352370000   -0.0000000000
N       -0.1864750000   -0.0011410000   -0.0000000000
H        0.1347630000   -0.0000660000   -0.0000000000
H        0.1408820000    0.0001250000    0.0000000000
H        0.1596550000   -0.0049180000   -0.0000000000
H        0.1575230000    0.0439980000    0.0000000000
H        0.1428850000   -0.0005950000   -0.0000000000
C       -0.2528760000    1.0396050000    0.0000000000
H        0.1537820000    0.0044770000    0.0000000000
13   
Frame  35 IRC: Energy =  -286.8687220000 ; +1.1906 kcal/mol
C       -0.0878490000    0.0008430000   -0.0000000000
C       -0.1596480000    0.0214040000   -0.0000000000
C       -0.0644940000    0.0526180000   -0.0000000000
C       -0.0174900000   -0.1945110000    0.0000000000
C       -0.1209160000    0.0353010000   -0.0000000000
N       -0.1863740000   -0.0013830000   -0.0000000000
H        0.1348230000   -0.0000490000   -0.0000000000
H        0.1409380000    0.0001130000    0.0000000000
H        0.1597700000   -0.0048160000   -0.0000000000
H        0.1576140000    0.0433710000    0.0000000000
H        0.1429720000   -0.0005810000   -0.0000000000
C       -0.2532070000    1.0422160000    0.0000000000
H        0.1538610000    0.0054750000    0.0000000000
13   
Frame  36 IRC: Energy =  -286.8683270000 ; +1.4385 kcal/mol
C       -0.0846680000    0.0024030000   -0.0000000000
C       -0.1637660000    0.0194040000   -0.0000000000
C       -0.0554180000    0.0582200000   -0.0000000000
C       -0.0167410000   -0.1951940000    0.0000000000
C       -0.1272790000    0.0355670000   -0.0000000000
N       -0.1859670000   -0.0016080000   -0.0000000000
H        0.1346940000   -0.0001080000   -0.0000000000
H        0.1408780000    0.0001400000    0.0000000000
H        0.1588330000   -0.0050230000   -0.0000000000
H        0.1581020000    0.0448180000    0.0000000000
H        0.1430050000   -0.0006220000   -0.0000000000
C       -0.2560260000    1.0385410000    0.0000000000
H        0.1543540000    0.0034630000    0.0000000000
13   
Frame  37 IRC: Energy =  -286.8682780000 ; +1.4692 kcal/mol
C       -0.0842370000    0.0021570000   -0.0000000000
C       -0.1637160000    0.0195470000   -0.0000000000
C       -0.0552970000    0.0577640000   -0.0000000000
C       -0.0172130000   -0.1952110000    0.0000000000
C       -0.1275030000    0.0356420000   -0.0000000000
N       -0.1860380000   -0.0016470000   -0.0000000000
H        0.1346770000   -0.0001050000   -0.0000000000
H        0.1409730000    0.0001340000    0.0000000000
H        0.1588450000   -0.0050090000   -0.0000000000
H        0.1581910000    0.0448980000    0.0000000000
H        0.1430110000   -0.0006160000   -0.0000000000
C       -0.2561830000    1.0384440000    0.0000000000
H        0.1544900000    0.0040010000    0.0000000000
13   
Frame  38 IRC: Energy =  -286.8681770000 ; +1.5326 kcal/mol
C       -0.0827550000    0.0025650000   -0.0000000000
C       -0.1661090000    0.0191730000   -0.0000000000
C       -0.0524760000    0.0589850000   -0.0000000000
C       -0.0159740000   -0.1952480000    0.0000000000
C       -0.1293800000    0.0357150000   -0.0000000000
N       -0.1857910000   -0.0017650000   -0.0000000000
H        0.1347370000   -0.0001220000   -0.0000000000
H        0.1406700000    0.0001460000    0.0000000000
H        0.1586020000   -0.0050550000   -0.0000000000
H        0.1582030000    0.0452130000    0.0000000000
H        0.1430180000   -0.0006310000   -0.0000000000
C       -0.2572560000    1.0379370000    0.0000000000
H        0.1545120000    0.0030870000    0.0000000000
13   