13   
Frame   0 IRC: Energy =  -286.8706193735 ; +0.0000 kcal/mol
C        1.9574414626    0.2137686774   -0.5414394878
C        1.1268522648   -0.7098529817   -0.0208820526
C       -0.2822739222   -0.2060644808   -0.2157793724
C       -1.0799659679   -0.0365746372    1.0785750618
C        0.0082424147    1.1120669755   -0.9084147056
N        1.2646064231    1.3366136955   -1.0904601220
H        3.0392110647    0.1969043243   -0.5905256200
H        1.3874801330   -1.6455845939    0.4561599151
H       -0.8453393862   -0.8580668909   -0.8998990911
H       -0.6034806936    0.5890153397    1.8352503968
H       -0.7580639795    1.8143315772   -1.2263379532
C       -2.2521616108   -0.5820226153    1.3142465062
H       -2.9625482029   -1.2245343900    0.8095065250
13   
Frame   1 IRC: Energy =  -286.8706191912 ; +0.0001 kcal/mol
C        1.9573465902    0.2134112863   -0.5416702726
C        1.1266000210   -0.7099643604   -0.0208577612
C       -0.2823616384   -0.2058219041   -0.2156506402
C       -1.0799880613   -0.0358866069    1.0787925337
C        0.0081975798    1.1120394813   -0.9085594027
N        1.2646192041    1.3364360159   -1.0905374001
H        3.0391395489    0.1963883044   -0.5907337529
H        1.3871292117   -1.6456238690    0.4564158265
H       -0.8459205874   -0.8578896700   -0.8994262107
H       -0.6038876910    0.5899937094    1.8353390177
H       -0.7579466527    1.8148375107   -1.2257368745
C       -2.2518481695   -0.5823471104    1.3140109844
H       -2.9610793553   -1.2255727872    0.8086139525
13   
Frame   2 IRC: Energy =  -286.8706172757 ; +0.0013 kcal/mol
C        1.9573336630    0.2123774336   -0.5428859556
C        1.1261351841   -0.7103127577   -0.0214638226
C       -0.2823976000   -0.2048710168   -0.2146436626
C       -1.0803877581   -0.0346420289    1.0797848128
C        0.0086199461    1.1125129366   -0.9080168726
N        1.2651610946    1.3368702189   -1.0893467115
H        3.0392232193    0.1948870387   -0.5919947559
H        1.3863383298   -1.6460535485    0.4559035822
H       -0.8466869000   -0.8572184848   -0.8978498461
H       -0.6064468257    0.5930641192    1.8359462791
H       -0.7572819567    1.8151220422   -1.2263183641
C       -2.2515400692   -0.5833060925    1.3137056107
H       -2.9580703272   -1.2284298600    0.8071797061
13   
Frame   3 IRC: Energy =  -286.8706094590 ; +0.0062 kcal/mol
C        1.9571712308    0.2146511502   -0.5367123783
C        1.1251180273   -0.7126243864   -0.0251504322
C       -0.2830584906   -0.2072921807   -0.2197808217
C       -1.0794245270   -0.0327827371    1.0770963936
C        0.0087912091    1.1122646997   -0.9087319923
N        1.2655401478    1.3375149134   -1.0870067231
H        3.0390166065    0.1980785836   -0.5830211523
H        1.3847427352   -1.6504510093    0.4482233580
H       -0.8509292138   -0.8600116389   -0.8981260042
H       -0.6043785383    0.5977487633    1.8305140103
H       -0.7565825121    1.8153296558   -1.2269806662
C       -2.2491742981   -0.5819664432    1.3153382947
H       -2.9568323767   -1.2304593704    0.8143381137
13   
Frame   4 IRC: Energy =  -286.8705840506 ; +0.0222 kcal/mol
C        1.9565373888    0.2176516322   -0.5306804586
C        1.1254552834   -0.7145831184   -0.0271179881
C       -0.2836997215   -0.2152314172   -0.2309112135
C       -1.0757711019   -0.0340721615    1.0700061094
C        0.0067562209    1.1085082247   -0.9127222194
N        1.2640125542    1.3439851313   -1.0729502720
H        3.0383489140    0.2052185561   -0.5713028373
H        1.3860806259   -1.6540111152    0.4422221682
H       -0.8550338658   -0.8686981552   -0.9032519702
H       -0.5932217803    0.5970059930    1.8187948603
H       -0.7591927459    1.8127454041   -1.2265108449
C       -2.2466551808   -0.5757404914    1.3172333974
H       -2.9636165912   -1.2227784825    0.8271912688
13   
Frame   5 IRC: Energy =  -286.8704721974 ; +0.0924 kcal/mol
C        1.9543643237    0.2250487384   -0.5212107146
C        1.1260932471   -0.7166710991   -0.0302068759
C       -0.2854717644   -0.2291055125   -0.2476813609
C       -1.0654967719   -0.0436981636    1.0599584448
C        0.0009871039    1.1049747695   -0.9110296708
N        1.2577046292    1.3492340922   -1.0634885927
H        3.0371370187    0.2258545413   -0.5428348045
H        1.3900191773   -1.6558462002    0.4381042956
H       -0.8583428534   -0.8830362364   -0.9186404779
H       -0.5611869903    0.5759290471    1.8037229206
H       -0.7684167686    1.8018964951   -1.2330693160
C       -2.2433886577   -0.5624708919    1.3209792537
H       -2.9840016936   -1.1921095798    0.8453968988
13   
Frame   6 IRC: Energy =  -286.8703190000 ; +0.1885 kcal/mol
C        1.9493743445    0.2400506866   -0.4941021339
C        1.1238814670   -0.7292161963   -0.0536295843
C       -0.2896657335   -0.2449264533   -0.2666398176
C       -1.0491418968   -0.0510392923    1.0516877563
C       -0.0071393133    1.0908266893   -0.9283672126
N        1.2488411470    1.3608064882   -1.0388381656
H        3.0326253148    0.2630380142   -0.4771038732
H        1.3909109500   -1.6736079655    0.4028404111
H       -0.8673025857   -0.8989996461   -0.9346899200
H       -0.5174639395    0.5560491928    1.7860004015
H       -0.7798444659    1.7805511473   -1.2586361283
C       -2.2339115141   -0.5421775990    1.3342701742
H       -3.0011637746   -1.1513550661    0.8772080925
13   
Frame   7 IRC: Energy =  -286.8702930000 ; +0.2048 kcal/mol
C        1.9483791177    0.2409623189   -0.4915790168
C        1.1236731143   -0.7300245231   -0.0550662533
C       -0.2891889162   -0.2464618936   -0.2693530752
C       -1.0473834962   -0.0516934831    1.0491297548
C       -0.0078041316    1.0903493111   -0.9288708288
N        1.2479939289    1.3612256423   -1.0362979781
H        3.0305218997    0.2652394117   -0.4716365399
H        1.3907095424   -1.6747591001    0.4000646643
H       -0.8680094795   -0.8999518254   -0.9359654754
H       -0.5145604611    0.5553194281    1.7833226723
H       -0.7801671312    1.7794671913   -1.2602198526
C       -2.2321799123   -0.5403728226    1.3357687809
H       -3.0019840749   -1.1492996558    0.8807031481
13   
Frame   8 IRC: Energy =  -286.8702870000 ; +0.2086 kcal/mol
C        1.9487296691    0.2408654637   -0.4912154399
C        1.1235453843   -0.7296804846   -0.0553889732
C       -0.2890108446   -0.2468077153   -0.2695824104
C       -1.0470075744   -0.0517244194    1.0486224632
C       -0.0080446839    1.0906791937   -0.9290539099
N        1.2477154076    1.3611309221   -1.0360041026
H        3.0299536136    0.2654525376   -0.4711028469
H        1.3907483025   -1.6750452938    0.3998730297
H       -0.8680601388   -0.8999854940   -0.9360404953
H       -0.5142554305    0.5552897583    1.7831437961
H       -0.7800299553    1.7791970118   -1.2603043818
C       -2.2321570014   -0.5402166668    1.3360603735
H       -3.0021267482   -1.1491548134    0.8809928977
13   
Frame   9 IRC: Energy =  -286.8700750000 ; +0.3416 kcal/mol
C        1.9450047175    0.2471227129   -0.4761417585
C        1.1213282354   -0.7363819540   -0.0657191071
C       -0.2921066456   -0.2565131862   -0.2859815198
C       -1.0389584678   -0.0537071127    1.0396225365
C       -0.0111541227    1.0854462149   -0.9348020834
N        1.2439643057    1.3681358202   -1.0188233484
H        3.0266758793    0.2818055745   -0.4351746316
H        1.3884353181   -1.6845201965    0.3822404471
H       -0.8760478788   -0.9097006736   -0.9480091047
H       -0.4920536701    0.5527600059    1.7639148490
H       -0.7842595326    1.7723009563   -1.2694897168
C       -2.2237760553   -0.5313063201    1.3428279391
H       -3.0070520830   -1.1354418416    0.9055354986
13   
Frame  10 IRC: Energy =  -286.8700700000 ; +0.3447 kcal/mol
C        1.9448364632    0.2472480910   -0.4759315978
C        1.1213303654   -0.7365569678   -0.0658384323
C       -0.2921900479   -0.2566257554   -0.2862451411
C       -1.0385329023   -0.0535951367    1.0394685783
C       -0.0110356967    1.0852938473   -0.9348484535
N        1.2438382106    1.3682384680   -1.0185618092
H        3.0266960760    0.2820541405   -0.4346260273
H        1.3883852361   -1.6846223671    0.3819524334
H       -0.8761664307   -0.9098546890   -0.9481947020
H       -0.4917477195    0.5526886831    1.7635835359
H       -0.7843781726    1.7722462472   -1.2696525322
C       -2.2239925785   -0.5313470246    1.3429351361
H       -3.0070428030   -1.1351675365    0.9059590118
13   
Frame  11 IRC: Energy =  -286.8697890000 ; +0.5211 kcal/mol
C        1.9408424075    0.2531913105   -0.4600571368
C        1.1191855460   -0.7428311248   -0.0764888028
C       -0.2944399297   -0.2669415190   -0.3030208229
C       -1.0303213457   -0.0557783653    1.0289565892
C       -0.0147517726    1.0805723245   -0.9402829472
N        1.2391765023    1.3749215445   -1.0002874469
H        3.0210462455    0.2975975863   -0.3978739054
H        1.3872794682   -1.6945317744    0.3633059049
H       -0.8828333148   -0.9197380875   -0.9607068182
H       -0.4702367658    0.5509668521    1.7430089359
H       -0.7884437621    1.7651410895   -1.2780693581
C       -2.2147906995   -0.5215300693    1.3497426836
H       -3.0117125792   -1.1210397671    0.9317731246
13   
Frame  12 IRC: Energy =  -286.8697820000 ; +0.5255 kcal/mol
C        1.9407672668    0.2532916071   -0.4597181606
C        1.1191200332   -0.7428800949   -0.0767384319
C       -0.2944963484   -0.2671685616   -0.3033628256
C       -1.0297888962   -0.0556588876    1.0286887955
C       -0.0146302075    1.0804752958   -0.9403781552
N        1.2389166453    1.3750270914   -0.9999048853
H        3.0209240452    0.2979177416   -0.3971161254
H        1.3872687153   -1.6947744026    0.3629397595
H       -0.8829660681   -0.9199409525   -0.9609659362
H       -0.4698284978    0.5508974533    1.7425491959
H       -0.7885606165    1.7650217368   -1.2782555158
C       -2.2150125474   -0.5215307482    1.3499063504
H       -3.0117135240   -1.1206772784    0.9323559345
13   
Frame  13 IRC: Energy =  -286.8696580000 ; +0.6033 kcal/mol
C        1.9390968190    0.2555515858   -0.4536335407
C        1.1184323086   -0.7453960250   -0.0807652768
C       -0.2952805488   -0.2710753170   -0.3097862663
C       -1.0269833682   -0.0566124296    1.0246533221
C       -0.0161769605    1.0786213280   -0.9423976356
N        1.2371675862    1.3775649442   -0.9928029364
H        3.0186170853    0.3037569107   -0.3830623651
H        1.3869637600   -1.6984956047    0.3556591937
H       -0.8853452037   -0.9237490158   -0.9658027374
H       -0.4617451480    0.5503562072    1.7345474285
H       -0.7901030488    1.7623112055   -1.2813485210
C       -2.2111319402   -0.5175903250    1.3523615200
H       -3.0135113411   -1.1152434644    0.9423778151
13   
Frame  14 IRC: Energy =  -286.8696480000 ; +0.6095 kcal/mol
C        1.9389979228    0.2556962316   -0.4531784493
C        1.1183582439   -0.7455065315   -0.0810845089
C       -0.2953468352   -0.2713811215   -0.3102468997
C       -1.0263734252   -0.0564989605    1.0242991901
C       -0.0161499321    1.0785063878   -0.9425377546
N        1.2369088972    1.3777204041   -0.9922805405
H        3.0184356950    0.3041814339   -0.3820394336
H        1.3869537880   -1.6988023299    0.3551454052
H       -0.8855125848   -0.9240239469   -0.9661565854
H       -0.4611967120    0.5502786331    1.7339245033
H       -0.7902314428    1.7621256027   -1.2815786833
C       -2.2113078397   -0.5175269961    1.3525704841
H       -3.0135357750   -1.1147688067    0.9431632726
13   
Frame  15 IRC: Energy =  -286.8695790000 ; +0.6528 kcal/mol
C        1.9380929970    0.2568715269   -0.4499904514
C        1.1180313565   -0.7468390327   -0.0831870231
C       -0.2957308659   -0.2734173896   -0.3136128238
C       -1.0251183016   -0.0570858309    1.0221974418
C       -0.0169680680    1.0775154302   -0.9435736445
N        1.2359943561    1.3790462447   -0.9885363340
H        3.0171959153    0.3072110707   -0.3746899462
H        1.3868304396   -1.7007422366    0.3512972419
H       -0.8867128667   -0.9260285885   -0.9687025249
H       -0.4569956512    0.5500453751    1.7297165416
H       -0.7910447236    1.7607155460   -1.2831630384
C       -2.2090533059   -0.5153464057    1.3538142473
H       -3.0145212816   -1.1119457096    0.9484303136
13   
Frame  16 IRC: Energy =  -286.8695670000 ; +0.6604 kcal/mol
C        1.9379625905    0.2570566786   -0.4494349475
C        1.1179523733   -0.7470080721   -0.0835656371
C       -0.2958067403   -0.2737880779   -0.3141797308
C       -1.0244429265   -0.0569787189    1.0217691557
C       -0.0170049551    1.0773720165   -0.9437473163
N        1.2357318349    1.3792479236   -0.9878916020
H        3.0169706839    0.3077281740   -0.3734342222
H        1.3868203226   -1.7011030644    0.3506521204
H       -0.8869113442   -0.9263686795   -0.9691403011
H       -0.4563239956    0.5499617028    1.7289504807
H       -0.7911915200    1.7604791940   -1.2834350243
C       -2.2091871210   -0.5152254045    1.3540631209
H       -3.0145692024   -1.1113736722    0.9493939036
13   
Frame  17 IRC: Energy =  -286.8695180000 ; +0.6911 kcal/mol
C        1.9373256119    0.2578644999   -0.4472243738
C        1.1177406312   -0.7479285904   -0.0850237944
C       -0.2960589073   -0.2751959298   -0.3165126405
C       -1.0237174773   -0.0574450649    1.0203225382
C       -0.0175619075    1.0766768449   -0.9444541011
N        1.2350865742    1.3801617085   -0.9852840697
H        3.0160956641    0.3098133279   -0.3683482541
H        1.3867559134   -1.7024489154    0.3479695164
H       -0.8877190634   -0.9277630801   -0.9709103003
H       -0.4534270066    0.5498303424    1.7260303353
H       -0.7917595693    1.7595078203   -1.2845144064
C       -2.2074745626   -0.5136371354    1.3549002731
H       -3.0152859008   -1.1094358278    0.9530492773
13   
Frame  18 IRC: Energy =  -286.8695020000 ; +0.7012 kcal/mol
C        1.9371608146    0.2580908065   -0.4465621631
C        1.1176567391   -0.7481542385   -0.0854675989
C       -0.2961453351   -0.2756334513   -0.3171924316
C       -1.0229771062   -0.0573463852    1.0198165424
C       -0.0176496681    1.0764988585   -0.9446604522
N        1.2348088525    1.3804106676   -0.9845094898
H        3.0158248367    0.3104283550   -0.3668466194
H        1.3867467925   -1.7028696106    0.3471862519
H       -0.8879501706   -0.9281727706   -0.9714370072
H       -0.4526253979    0.5497409782    1.7251130808
H       -0.7919300558    1.7592215171   -1.2848319644
C       -2.2075603467   -0.5134534826    1.3551903229
H       -3.0153599550   -1.1087612442    0.9542015283
13   
Frame  19 IRC: Energy =  -286.8694630000 ; +0.7256 kcal/mol
C        1.9366622821    0.2587123261   -0.4448457574
C        1.1175010185   -0.7488622186   -0.0866020489
C       -0.2963308176   -0.2767265779   -0.3190023932
C       -1.0225236118   -0.0577539541    1.0187023797
C       -0.0180687275    1.0759567698   -0.9452025036
N        1.2342952780    1.3811152618   -0.9824774161
H        3.0151350901    0.3120369263   -0.3629058403
H        1.3867116257   -1.7039173176    0.3450951601
H       -0.8885607491   -0.9292581370   -0.9728136971
H       -0.4503857172    0.5496613988    1.7228471692
H       -0.7923740013    1.7584713369   -1.2856569610
C       -2.2061182412   -0.5121623020    1.3558220236
H       -3.0159434285   -1.1072735125    0.9570398851
13   
Frame  20 IRC: Energy =  -286.8694450000 ; +0.7369 kcal/mol
C        1.9364586334    0.2589841722   -0.4440607347
C        1.1174097774   -0.7491470012   -0.0871229647
C       -0.2964278007   -0.2772418780   -0.3198121379
C       -1.0217126369   -0.0576660250    1.0181086762
C       -0.0182020342    1.0757382482   -0.9454449202
N        1.2339906532    1.3814167520   -0.9815536825
H        3.0148116913    0.3127639748   -0.3611229938
H        1.3867050918   -1.7044095031    0.3441545344
H       -0.8888285110   -0.9297476343   -0.9734421334
H       -0.4494359311    0.5495662294    1.7217566801
H       -0.7925741741    1.7581299720   -1.2860272241
C       -2.2061466452   -0.5119057097    1.3561580864
H       -3.0160481139   -1.1064815974    0.9584088143
13   
Frame  21 IRC: Energy =  -286.8694110000 ; +0.7583 kcal/mol
C        1.9360465362    0.2594912167   -0.4426476182
C        1.1172888523   -0.7497229196   -0.0880593419
C       -0.2965738513   -0.2781421271   -0.3212999486
C       -1.0214290897   -0.0580394041    1.0171976197
C       -0.0185347737    1.0752919283   -0.9458867939
N        1.2335559369    1.3819918577   -0.9798749619
H        3.0142360130    0.3140804215   -0.3578852922
H        1.3866877892   -1.7052751638    0.3424270115
H       -0.8893183850   -0.9306431971   -0.9745771413
H       -0.4475987854    0.5495190927    1.7198939658
H       -0.7929415035    1.7575148735   -1.2866960435
C       -2.2048662933   -0.5107950371    1.3566640067
H       -3.0165524457   -1.1052715416    0.9607445380
13   
Frame  22 IRC: Energy =  -286.8693890000 ; +0.7721 kcal/mol
C        1.9357971918    0.2598162224   -0.4417136342
C        1.1171879243   -0.7500740351   -0.0886754808
C       -0.2966823847   -0.2787525245   -0.3222668146
C       -1.0205363484   -0.0579654331    1.0164988934
C       -0.0187133298    1.0750248386   -0.9461719670
N        1.2332106615    1.3823551943   -0.9787706712
H        3.0138482251    0.3149423576   -0.3557636390
H        1.3866859084   -1.7058561617    0.3412969291
H       -0.8896294300   -0.9312291622   -0.9753283352
H       -0.4464710920    0.5494178868    1.7185942663
H       -0.7931789897    1.7571082355   -1.2871297407
C       -2.2048237464   -0.5104494845    1.3570542248
H       -3.0166945901   -1.1043379340    0.9623759692
13   
Frame  23 IRC: Energy =  -286.8693600000 ; +0.7903 kcal/mol
C        1.9354448090    0.2602453563   -0.4405085941
C        1.1170912743   -0.7505590637   -0.0894763173
C       -0.2968026633   -0.2795209923   -0.3235326182
C       -1.0203719594   -0.0583171944    1.0157255829
C       -0.0189864794    1.0746452400   -0.9465458231
N        1.2328296972    1.3828408544   -0.9773338583
H        3.0133510850    0.3160587995   -0.3530078379
H        1.3866809823   -1.7065975530    0.3398184689
H       -0.8900364518   -0.9319946744   -0.9762976481
H       -0.4449092817    0.5493939356    1.7170090581
H       -0.7934935474    1.7565852155   -1.2876912747
C       -2.2036497510   -0.5094600770    1.3574744821
H       -3.0171477138   -1.1033198465    0.9643663798
13   
Frame  24 IRC: Energy =  -286.8693330000 ; +0.8072 kcal/mol
C        1.9351385903    0.2606363052   -0.4393842119
C        1.1169778337   -0.7509903904   -0.0902153862
C       -0.2969247474   -0.2802534468   -0.3246998599
C       -1.0193789467   -0.0582619876    1.0148937980
C       -0.0192150802    1.0743171563   -0.9468848182
N        1.2324254915    1.3832813623   -0.9759990505
H        3.0128803383    0.3170920708   -0.3504554181
H        1.3866867879   -1.7072939092    0.3384470562
H       -0.8904013026   -0.9327037130   -0.9772052522
H       -0.4435564168    0.5492862659    1.7154425136
H       -0.7937794144    1.7560961122   -1.2882049891
C       -2.2035151016   -0.5090005074    1.3579320657
H       -3.0173380321   -1.1022053184    0.9663335528
13   
Frame  25 IRC: Energy =  -286.8693070000 ; +0.8235 kcal/mol
C        1.9348306186    0.2610087760   -0.4383337332
C        1.1169002637   -0.7514080226   -0.0909159875
C       -0.2970279856   -0.2809244692   -0.3257990170
C       -1.0193046032   -0.0585997388    1.0142194539
C       -0.0194439541    1.0739877726   -0.9472085836
N        1.2320848673    1.3837000719   -0.9747410908
H        3.0124414533    0.3180602798   -0.3480568894
H        1.3866912463   -1.7079436791    0.3371529294
H       -0.8907466369   -0.9333730535   -0.9780518275
H       -0.4421982773    0.5492809216    1.7140644448
H       -0.7940546690    1.7556408880   -1.2886866351
C       -2.2024148616   -0.5080975593    1.3582901724
H       -3.0177574616   -1.1013321875    0.9680667637
13   
Frame  26 IRC: Energy =  -286.8692720000 ; +0.8455 kcal/mol
C        1.9344499134    0.2614843256   -0.4369483137
C        1.1167667427   -0.7519445592   -0.0918261007
C       -0.2971673973   -0.2818209595   -0.3272356582
C       -1.0181812924   -0.0585709693    1.0132081987
C       -0.0197365358    1.0735757084   -0.9476208261
N        1.2315929540    1.3842372166   -0.9730915607
H        3.0118611662    0.3193252870   -0.3449243603
H        1.3867099206   -1.7087926856    0.3354528018
H       -0.8911788061   -0.9342454160   -0.9791682640
H       -0.4405447551    0.5491646037    1.7121351122
H       -0.7944072016    1.7550420900   -1.2893067933
C       -2.2021529350   -0.5074833556    1.3588352197
H       -3.0180117737   -1.0999712861    0.9704905448
13   
Frame  27 IRC: Energy =  -286.8692490000 ; +0.8599 kcal/mol
C        1.9341796703    0.2618082936   -0.4360126824
C        1.1166996443   -0.7523094037   -0.0924565334
C       -0.2972657435   -0.2824076311   -0.3281983428
C       -1.0181747774   -0.0589015824    1.0126003345
C       -0.0199369128    1.0732794512   -0.9479091338
N        1.2312797848    1.3845883949   -0.9719655777
H        3.0114749215    0.3201797262   -0.3428060643
H        1.3867232049   -1.7093615349    0.3342983975
H       -0.8914676177   -0.9348328417   -0.9799132141
H       -0.4393473128    0.5491735291    1.7109189882
H       -0.7946523581    1.7546410005   -1.2897244028
C       -2.2011013040   -0.5066419816    1.3591473013
H       -3.0184111995   -1.0992154201    0.9720209297
13   
Frame  28 IRC: Energy =  -286.8692040000 ; +0.8882 kcal/mol
C        1.9336654758    0.2624472123   -0.4342965136
C        1.1165846044   -0.7529994683   -0.0935527217
C       -0.2974018559   -0.2835873604   -0.3300661014
C       -1.0168704925   -0.0589236451    1.0113578408
C       -0.0202611457    1.0728023937   -0.9484259044
N        1.2306983425    1.3853822252   -0.9698907558
H        3.0106670044    0.3217743445   -0.3388090608
H        1.3867641526   -1.7105307216    0.3321454747
H       -0.8920527389   -0.9360030229   -0.9813795250
H       -0.4372359279    0.5490735513    1.7084688609
H       -0.7951057465    1.7538618352   -1.2905029768
C       -2.2006736970   -0.5057954418    1.3598370309
H       -3.0187779753   -1.0975019022    0.9751143520
13   
Frame  29 IRC: Energy =  -286.8691820000 ; +0.9020 kcal/mol
C        1.9333947889    0.2627797052   -0.4335171522
C        1.1165767283   -0.7533360004   -0.0940642344
C       -0.2975105284   -0.2842699910   -0.3307837166
C       -1.0169253057   -0.0592354769    1.0108197257
C       -0.0203240657    1.0726153204   -0.9487123272
N        1.2305121630    1.3858702910   -0.9689323110
H        3.0102454350    0.3225271864   -0.3369084155
H        1.3867664372   -1.7111235711    0.3311363552
H       -0.8923800724   -0.9366025938   -0.9821262736
H       -0.4361552669    0.5491107388    1.7073880583
H       -0.7953676336    1.7535142204   -1.2908892141
C       -2.1996569323   -0.5050039115    1.3601078007
H       -3.0191757474   -1.0968459175    0.9764817046
13   
Frame  30 IRC: Energy =  -286.8691130000 ; +0.9453 kcal/mol
C        1.9327527073    0.2635498742   -0.4306797296
C        1.1162121581   -0.7543244768   -0.0960222534
C       -0.2977614764   -0.2856938179   -0.3336536069
C       -1.0152045429   -0.0593169435    1.0088424626
C       -0.0211867319    1.0715539242   -0.9493913576
N        1.2293042951    1.3863754661   -0.9656020501
H        3.0093685120    0.3249393275   -0.3309826884
H        1.3868727618   -1.7124171641    0.3277075011
H       -0.8929172902   -0.9380705488   -0.9840945090
H       -0.4330821395    0.5489134739    1.7036797600
H       -0.7959388105    1.7523938488   -1.2919777707
C       -2.1986847196   -0.5036300928    1.3610208926
H       -3.0197347232   -1.0942728708    0.9811533496
13   
Frame  31 IRC: Energy =  -286.8690900000 ; +0.9597 kcal/mol
C        1.9325906385    0.2637638106   -0.4298012793
C        1.1161038896   -0.7545495066   -0.0966362726
C       -0.2978778816   -0.2857331488   -0.3348083834
C       -1.0150524255   -0.0596885696    1.0080010304
C       -0.0216199598    1.0711435627   -0.9494960739
N        1.2287417722    1.3862158608   -0.9645448609
H        3.0092081081    0.3256390577   -0.3292538754
H        1.3869573381   -1.7127609738    0.3266968443
H       -0.8929439712   -0.9383912522   -0.9845087583
H       -0.4320861235    0.5490068987    1.7028110270
H       -0.7959712360    1.7519828982   -1.2922378925
C       -2.1976702656   -0.5027382969    1.3615176408
H       -3.0203798833   -1.0938903408    0.9822608537
13   
Frame  32 IRC: Energy =  -286.8689320000 ; +1.0588 kcal/mol
C        1.9307896284    0.2659084615   -0.4243028918
C        1.1159862949   -0.7569316140   -0.1001083441
C       -0.2981961345   -0.2902297066   -0.3403949658
C       -1.0121808780   -0.0602006240    1.0042893272
C       -0.0222220244    1.0698260296   -0.9513390361
N        1.2272438774    1.3894507362   -0.9577229063
H        3.0062415020    0.3307983161   -0.3162006405
H        1.3872697745   -1.7168955835    0.3194658528
H       -0.8948966914   -0.9425620634   -0.9896382158
H       -0.4253927524    0.5489211853    1.6945272735
H       -0.7977615945    1.7495206120   -1.2946846371
C       -2.1952020090   -0.4994437435    1.3633493326
H       -3.0216789931   -1.0881620059    0.9927598515
13   
Frame  33 IRC: Energy =  -286.8689060000 ; +1.0752 kcal/mol
C        1.9305179009    0.2660478103   -0.4236239776
C        1.1158695488   -0.7573148510   -0.1004835752
C       -0.2977875406   -0.2910610223   -0.3412845990
C       -1.0131191294   -0.0604507251    1.0048113261
C       -0.0222105423    1.0697004761   -0.9515887426
N        1.2271366233    1.3901190961   -0.9570034137
H        3.0058684834    0.3314409721   -0.3146089131
H        1.3872757584   -1.7173714875    0.3185551602
H       -0.8952253888   -0.9431205429   -0.9903266517
H       -0.4245651418    0.5488302659    1.6933086923
H       -0.7980657543    1.7492947471   -1.2950289326
C       -2.1944990729   -0.4991423571    1.3628956179
H       -3.0211957446   -1.0869723816    0.9943780090
13   
Frame  34 IRC: Energy =  -286.8687950000 ; +1.1448 kcal/mol
C        1.9296081373    0.2674694777   -0.4193670579
C        1.1156926832   -0.7585820731   -0.1034260995
C       -0.2987736703   -0.2928760626   -0.3451909291
C       -1.0097073498   -0.0608005855    1.0002582708
C       -0.0235151824    1.0680456467   -0.9524792319
N        1.2251798322    1.3905376830   -0.9517509332
H        3.0044731886    0.3350021481   -0.3056941523
H        1.3876076373   -1.7194899065    0.3131909449
H       -0.8958223119   -0.9453339182   -0.9932068148
H       -0.4199178855    0.5489985524    1.6879688745
H       -0.7987717997    1.7474037174   -1.2964162014
C       -2.1923279465   -0.4962111855    1.3651159017
H       -3.0237253326   -1.0841634939    1.0009974283
13   
Frame  35 IRC: Energy =  -286.8687220000 ; +1.1906 kcal/mol
C        1.9295386237    0.2681826439   -0.4187340225
C        1.1160218382   -0.7585398650   -0.1041095524
C       -0.3003907044   -0.2927495266   -0.3446793293
C       -1.0065034723   -0.0606783465    0.9969575276
C       -0.0237034910    1.0677438130   -0.9527038127
N        1.2248771623    1.3900394878   -0.9505293548
H        3.0041817682    0.3355831889   -0.3041331531
H        1.3877106930   -1.7200210968    0.3123551784
H       -0.8957913354   -0.9456975430   -0.9937030540
H       -0.4191549249    0.5492326486    1.6875565560
H       -0.7988250462    1.7469556081   -1.2965818548
C       -2.1916170091   -0.4947659659    1.3672125617
H       -3.0263441020   -1.0852850466    1.0010923097
13   
Frame  36 IRC: Energy =  -286.8683270000 ; +1.4385 kcal/mol
C        1.9254202140    0.2723033204   -0.4047344224
C        1.1156313901   -0.7644574661   -0.1128760001
C       -0.2988171923   -0.3030589477   -0.3602847328
C       -1.0041620655   -0.0625084212    0.9902557188
C       -0.0260296757    1.0637228015   -0.9561367473
N        1.2199269760    1.3967827100   -0.9331925377
H        2.9976595847    0.3476349301   -0.2732479708
H        1.3903585035   -1.7295395308    0.2923124120
H       -0.8983444840   -0.9555804059   -1.0057607295
H       -0.4053651290    0.5502201593    1.6669908477
H       -0.8026341022    1.7408882947   -1.3018155430
C       -2.1855829134   -0.4868511954    1.3693841679
H       -3.0280611063   -1.0695562489    1.0291055371
13   
Frame  37 IRC: Energy =  -286.8682780000 ; +1.4692 kcal/mol
C        1.9250721770    0.2730713842   -0.4036430765
C        1.1160025875   -0.7647557869   -0.1135235758
C       -0.2992997348   -0.3030655886   -0.3620547622
C       -1.0029317462   -0.0630083282    0.9882772422
C       -0.0263804172    1.0634254893   -0.9562515379
N        1.2192426542    1.3970031057   -0.9315243511
H        2.9969536682    0.3486252579   -0.2704370129
H        1.3907539607   -1.7308723278    0.2907048880
H       -0.8985101309   -0.9565396479   -1.0067341527
H       -0.4039690797    0.5507104794    1.6657303021
H       -0.8026421706    1.7400042823   -1.3021338392
C       -2.1844016531   -0.4852286537    1.3707386138
H       -3.0298901150   -1.0693696657    1.0308512623
13   
Frame  38 IRC: Energy =  -286.8681770000 ; +1.5326 kcal/mol
C        1.9242887590    0.2732625236   -0.4004418341
C        1.1152333996   -0.7660670184   -0.1162401274
C       -0.2989485759   -0.3063366632   -0.3635756808
C       -1.0031633109   -0.0625823126    0.9870283145
C       -0.0269061101    1.0619105572   -0.9569145140
N        1.2182015970    1.3978622927   -0.9274966648
H        2.9958447862    0.3514100812   -0.2640049735
H        1.3910588712   -1.7313133372    0.2857684969
H       -0.8985533948   -0.9581234228   -1.0091378550
H       -0.4017064119    0.5501337743    1.6606980961
H       -0.8034651371    1.7390458964   -1.3033498740
C       -2.1830658636   -0.4842540381    1.3701568587
H       -3.0288186087   -1.0649483331    1.0375097574
13   