13   
Frame   0 IRC: Energy =  -286.8706193735 ; +0.0000 kcal/mol
C        1.9574414626    0.2137686774   -0.5414394878
C        1.1268522648   -0.7098529817   -0.0208820526
C       -0.2822739222   -0.2060644808   -0.2157793724
C       -1.0799659679   -0.0365746372    1.0785750618
C        0.0082424147    1.1120669755   -0.9084147056
N        1.2646064231    1.3366136955   -1.0904601220
H        3.0392110647    0.1969043243   -0.5905256200
H        1.3874801330   -1.6455845939    0.4561599151
H       -0.8453393862   -0.8580668909   -0.8998990911
H       -0.6034806936    0.5890153397    1.8352503968
H       -0.7580639795    1.8143315772   -1.2263379532
C       -2.2521616108   -0.5820226153    1.3142465062
H       -2.9625482029   -1.2245343900    0.8095065250
13   
Frame   1 IRC: Energy =  -286.8704380613 ; +0.1138 kcal/mol
C        1.9532524359    0.2283915345   -0.5151702686
C        1.1256004091   -0.7194664495   -0.0354260206
C       -0.2864062820   -0.2326307999   -0.2519057626
C       -1.0618525110   -0.0453339443    1.0581155358
C       -0.0008236580    1.1018222358   -0.9148928936
N        1.2557296315    1.3518127013   -1.0579958827
H        3.0361317022    0.2341399164   -0.5281883667
H        1.3902178858   -1.6598039501    0.4302466511
H       -0.8603392980   -0.8865932693   -0.9222166809
H       -0.5514444394    0.5714993358    1.7997739156
H       -0.7709631354    1.7971402364   -1.2387662188
C       -2.2412769214   -0.5579490565    1.3239407916
H       -2.9878258194   -1.1830284906    0.8524852005
13   
Frame   2 IRC: Energy =  -286.8701139424 ; +0.3172 kcal/mol
C        1.9456889565    0.2459733144   -0.4789106536
C        1.1217355051   -0.7351509564   -0.0638215575
C       -0.2915379757   -0.2547303814   -0.2829691559
C       -1.0404370139   -0.0533429103    1.0412757394
C       -0.0105829477    1.0864074645   -0.9337461973
N        1.2446533483    1.3668490855   -1.0219792933
H        3.0272779686    0.2788016736   -0.4417743108
H        1.3888601918   -1.6827797449    0.3854793886
H       -0.8745806052   -0.9079160854   -0.9458105824
H       -0.4961319271    0.5532246979    1.7674470278
H       -0.7834825986    1.7735676976   -1.2678024561
C       -2.2253155572   -0.5329430680    1.3415848002
H       -3.0061473448   -1.1379607870    0.9010272509
13   
Frame   3 IRC: Energy =  -286.8693860266 ; +0.7739 kcal/mol
C        1.9357610620    0.2598602215   -0.4415900815
C        1.1171780147   -0.7501237651   -0.0887575905
C       -0.2966947168   -0.2788313155   -0.3223965974
C       -1.0205194936   -0.0580014992    1.0164196059
C       -0.0187413358    1.0749859184   -0.9462102985
N        1.2331716013    1.3824049890   -0.9786233549
H        3.0137972533    0.3150568263   -0.3554810869
H        1.3866854034   -1.7059321765    0.3411453427
H       -0.8896711619   -0.9313076501   -0.9754277187
H       -0.4463109597    0.5494154311    1.7184317350
H       -0.7932112413    1.7570546103   -1.2871873148
C       -2.2047033767   -0.5103480407    1.3570973137
H       -3.0167410489   -1.1042335496    0.9625800458
13   
Frame   4 IRC: Energy =  -286.8683436851 ; +1.4280 kcal/mol
C        1.9255941791    0.2721292596   -0.4053257773
C        1.1156478829   -0.7642075017   -0.1125056979
C       -0.2988836588   -0.3026234690   -0.3596255473
C       -1.0042609685   -0.0624311173    0.9905388088
C       -0.0259314157    1.0638926525   -0.9559917372
N        1.2201360761    1.3964978706   -0.9339248595
H        2.9979350872    0.3471258544   -0.2745525871
H        1.3902466578   -1.7291374641    0.2931590355
H       -0.8982366368   -0.9551629454   -1.0052514030
H       -0.4059476216    0.5501784460    1.6678595607
H       -0.8024732044    1.7411445832   -1.3015944676
C       -2.1858377987   -0.4871855221    1.3692924374
H       -3.0279885786   -1.0702206467    1.0279222347
13   
Frame   5 IRC: Energy =  -286.8669340186 ; +2.3126 kcal/mol
C        1.9171405464    0.2837654040   -0.3696361398
C        1.1182917976   -0.7768727070   -0.1348318508
C       -0.2967589133   -0.3252219264   -0.3911612225
C       -0.9952218776   -0.0655089078    0.9674110153
C       -0.0307004146    1.0526980066   -0.9623876711
N        1.2072181356    1.4092677246   -0.8874653225
H        2.9834156609    0.3755202482   -0.2007408127
H        1.4046913153   -1.7553024347    0.2287428821
H       -0.8998333859   -0.9788007488   -1.0306419178
H       -0.3835601115    0.5577309669    1.6214227898
H       -0.8086840566    1.7232041456   -1.3181807840
C       -2.1724182971   -0.4642618706    1.3777548643
H       -3.0435803990   -1.0362179005    1.0997141698
13   
Frame   6 IRC: Energy =  -286.8648555578 ; +3.6169 kcal/mol
C        1.9134317238    0.2942796864   -0.3358500740
C        1.1281145108   -0.7881406122   -0.1576827567
C       -0.2926114494   -0.3437543509   -0.4112354977
C       -0.9928353763   -0.0662361868    0.9518324974
C       -0.0303719618    1.0426830541   -0.9680799055
N        1.1973405662    1.4206827978   -0.8438407885
H        2.9722794051    0.4020937593   -0.1329219077
H        1.4348978847   -1.7846565229    0.1338952407
H       -0.9032901092   -1.0005057507   -1.0366059484
H       -0.3873935190    0.5726432167    1.5962214035
H       -0.8037055495    1.7025277126   -1.3512532269
C       -2.1697437759   -0.4448659259    1.3819127757
H       -3.0661123495   -1.0067508775    1.1736081880
13   
Frame   7 IRC: Energy =  -286.8591337783 ; +7.2073 kcal/mol
C        1.9215743361    0.3030467801   -0.3247247195
C        1.1460525710   -0.7981679768   -0.2058777126
C       -0.2710893691   -0.3602600104   -0.4637157320
C       -1.0165669802   -0.0364597823    0.9962762369
C       -0.0180649217    1.0319725935   -0.9893510136
N        1.1984637817    1.4344519148   -0.8056800138
H        2.9757816582    0.4209678272   -0.0955836226
H        1.4501817415   -1.7949764523    0.0871236327
H       -0.9183804803   -1.0304349240   -1.0456580581
H       -0.3690990085    0.6041331274    1.6208863216
H       -0.7945116583    1.6871908884   -1.3687252792
C       -2.1969363470   -0.4488974586    1.3879288554
H       -3.1074053234   -1.0125665270    1.2071011049
13   
Frame   8 IRC: Energy =  -286.8446309291 ; +16.3080 kcal/mol
C        1.9250247500    0.3137028650   -0.3204120886
C        1.1521796651   -0.8041090267   -0.2284216734
C       -0.2152120062   -0.3801750222   -0.5622929519
C       -1.0668583377    0.0001296144    1.1039130572
C       -0.0110134450    1.0265633471   -1.0006762147
N        1.2040707136    1.4422075644   -0.7897538157
H        2.9770581040    0.4260665152   -0.0862742219
H        1.4517010211   -1.7970874399    0.0781067892
H       -0.9285372545   -1.0438327099   -1.0473901189
H       -0.3431291778    0.6218851311    1.6280024751
H       -0.7923282296    1.6812050305   -1.3710587385
C       -2.2232482612   -0.4653517645    1.3806952816
H       -3.1297075418   -1.0212041044    1.2155622204
13   
Frame   9 IRC: Energy =  -286.8398398812 ; +19.3144 kcal/mol (Transition State)
C        1.9259546012    0.3257472336   -0.3177698020
C        1.1485460589   -0.8109456373   -0.2461304788
C       -0.1577836061   -0.4038030678   -0.6562663487
C       -1.1232028710    0.0341141688    1.2231657061
C       -0.0041632243    1.0224597911   -1.0086975096
N        1.2105436636    1.4503283384   -0.7796071205
H        2.9779037633    0.4296993347   -0.0809653892
H        1.4521270043   -1.7987027523    0.0717076700
H       -0.9343976645   -1.0503729741   -1.0410869492
H       -0.3251141770    0.6296565842    1.6208977748
H       -0.7897563504    1.6764526162   -1.3731399986
C       -2.2379205451   -0.4784890004    1.3664486031
H       -3.1427366528   -1.0261446350    1.2214438425
13   
Frame  10 IRC: Energy =  -286.8465221091 ; +15.1213 kcal/mol
C        1.9269457264    0.3432836104   -0.3160751941
C        1.1436776098   -0.8201033873   -0.2716458485
C       -0.1069358858   -0.4296817603   -0.7440055711
C       -1.1768525885    0.0694320853    1.3459343853
C        0.0084717589    1.0151788863   -1.0244255244
N        1.2194385522    1.4607410815   -0.7658931016
H        2.9792373263    0.4351178245   -0.0748171382
H        1.4525581276   -1.8007685874    0.0629683365
H       -0.9388139964   -1.0570164213   -1.0321983281
H       -0.3111790281    0.6360373077    1.6120782817
H       -0.7843857130    1.6695275362   -1.3751663482
C       -2.2548075894   -0.4890209089    1.3583779870
H       -3.1573543000   -1.0327272666    1.2248680638
13   
Frame  11 IRC: Energy =  -286.8530924195 ; +10.9983 kcal/mol
C        1.9330646640    0.3630799372   -0.3152112538
C        1.1473650154   -0.8299869600   -0.3126243743
C       -0.0742704970   -0.4538761420   -0.8216018122
C       -1.2235871513    0.1050755913    1.4656341802
C        0.0272903097    1.0027372334   -1.0510604500
N        1.2292422958    1.4674856013   -0.7475275310
H        2.9823965811    0.4460674276   -0.0627717046
H        1.4551577658   -1.8040183011    0.0434386892
H       -0.9373327865   -1.0634479969   -1.0261487383
H       -0.3163481144    0.6394477790    1.6125723708
H       -0.7739901501    1.6589690789   -1.3811485513
C       -2.2723089567   -0.4905361802    1.3693657120
H       -3.1766789757   -1.0409970686    1.2270834632
13   
Frame  12 IRC: Energy =  -286.8568550417 ; +8.6373 kcal/mol
C        1.9442373614    0.3742325578   -0.3189830564
C        1.1642018762   -0.8387324775   -0.3625540295
C       -0.0477121741   -0.4674769940   -0.8795444554
C       -1.2710899174    0.1276858037    1.5605146853
C        0.0443958127    0.9890980218   -1.0776880794
N        1.2404561805    1.4683364261   -0.7371521899
H        2.9856857933    0.4640960401   -0.0362566289
H        1.4676603552   -1.8122975731    0.0000054202
H       -0.9248284119   -1.0717526743   -1.0414847446
H       -0.3467577006    0.6500447884    1.6490035588
H       -0.7580724919    1.6457925368   -1.4015413235
C       -2.3026652849   -0.4864528544    1.4071653122
H       -3.1955113985   -1.0425736015    1.2385155310
13   
Frame  13 IRC: Energy =  -286.8593407236 ; +7.0775 kcal/mol
C        1.9556648618    0.3781697048   -0.3247486737
C        1.1857044056   -0.8448459081   -0.3999486451
C       -0.0250291688   -0.4739943175   -0.9130773854
C       -1.3132317033    0.1379561493    1.6182112500
C        0.0587138862    0.9813197256   -1.0970841998
N        1.2512130327    1.4684643265   -0.7384516954
H        2.9870257200    0.4782707665   -0.0050191170
H        1.4976588188   -1.8241474586   -0.0623449214
H       -0.9007207842   -1.0830923385   -1.0827098173
H       -0.3937712153    0.6694531033    1.7202441455
H       -0.7393361803    1.6350291082   -1.4345737556
C       -2.3378007181   -0.4815091080    1.4504325141
H       -3.2260909552   -1.0410737534    1.2690703011
13   
Frame  14 IRC: Energy =  -286.8611051885 ; +5.9702 kcal/mol
C        1.9670186412    0.3820141390   -0.3281343781
C        1.2080487538   -0.8492760716   -0.4321631621
C       -0.0025380528   -0.4805768094   -0.9453518442
C       -1.3559936868    0.1472010461    1.6696143134
C        0.0734303070    0.9753195087   -1.1140780412
N        1.2600938991    1.4689379493   -0.7367259037
H        2.9896280795    0.4877249419    0.0181292824
H        1.5327387405   -1.8333405015   -0.1222679940
H       -0.8708426851   -1.0956403950   -1.1340351200
H       -0.4436961156    0.6875539044    1.7909476605
H       -0.7201968588    1.6259958901   -1.4667221892
C       -2.3750008096   -0.4773453055    1.4914255491
H       -3.2626902125   -1.0385682965    1.3093618270
13   
Frame  15 IRC: Energy =  -286.8622893575 ; +5.2272 kcal/mol
C        1.9801958226    0.3877347178   -0.3288468674
C        1.2349490867   -0.8513326415   -0.4621831130
C        0.0216221844   -0.4880371089   -0.9734767201
C       -1.4014704696    0.1507816387    1.7145464986
C        0.0889326195    0.9696147312   -1.1282143434
N        1.2678178676    1.4711913800   -0.7325031169
H        2.9972353292    0.4992511628    0.0327946622
H        1.5763036402   -1.8381146808   -0.1796149463
H       -0.8385624147   -1.1100949305   -1.1809693128
H       -0.4902047344    0.6919045075    1.8454318766
H       -0.7006840280    1.6155677964   -1.4971075198
C       -2.4216725361   -0.4709976480    1.5333841009
H       -3.3144623672   -1.0274689248    1.3567588015
13   
Frame  16 IRC: Energy =  -286.8631105022 ; +4.7119 kcal/mol
C        1.9952536580    0.3946365760   -0.3315857604
C        1.2655500883   -0.8518934602   -0.4889966999
C        0.0496484154   -0.4944570810   -0.9973578084
C       -1.4496246551    0.1480649299    1.7526602578
C        0.1045449242    0.9644716498   -1.1395298481
N        1.2749684830    1.4742301163   -0.7278304406
H        3.0074579029    0.5127580097    0.0415876027
H        1.6249583758   -1.8398379438   -0.2337808412
H       -0.8013488358   -1.1232642613   -1.2215896502
H       -0.5353686196    0.6833970948    1.8861836185
H       -0.6811467540    1.6047200416   -1.5263337588
C       -2.4762315591   -0.4639310180    1.5753089000
H       -3.3786614240   -1.0088946540    1.4112644285
13   
Frame  17 IRC: Energy =  -286.8636897931 ; +4.3484 kcal/mol
C        2.0126599379    0.4013843396   -0.3379034238
C        1.2964886444   -0.8519580515   -0.5153943371
C        0.0798259812   -0.5003631092   -1.0249146086
C       -1.4991603491    0.1447574630    1.7887659524
C        0.1206738856    0.9593381931   -1.1505101641
N        1.2838128651    1.4766797081   -0.7243272276
H        3.0192253927    0.5254694480    0.0482992188
H        1.6690053001   -1.8400345642   -0.2805264963
H       -0.7611889806   -1.1356140702   -1.2669188374
H       -0.5825072362    0.6752696032    1.9228980247
H       -0.6629503113    1.5956372818   -1.5479507407
C       -2.5321034264   -0.4584142157    1.6182946017
H       -3.4437817035   -0.9921520262    1.4701880380
13   
Frame  18 IRC: Energy =  -286.8641235233 ; +4.0762 kcal/mol
C        2.0311199636    0.4080330481   -0.3453796988
C        1.3278733861   -0.8516547616   -0.5421243890
C        0.1112961907   -0.5060813215   -1.0552410276
C       -1.5496360071    0.1412683502    1.8232395510
C        0.1375190936    0.9541747385   -1.1619816309
N        1.2940893092    1.4787541488   -0.7221787602
H        3.0321619906    0.5372439058    0.0532519979
H        1.7104235200   -1.8391650511   -0.3213691711
H       -0.7192996008   -1.1476316627   -1.3153911546
H       -0.6306136533    0.6675000724    1.9561642857
H       -0.6467914536    1.5877270230   -1.5625088669
C       -2.5888790708   -0.4535860977    1.6620667117
H       -3.5092636681   -0.9765823921    1.5314521527
13   
Frame  19 IRC: Energy =  -286.8644499681 ; +3.8714 kcal/mol
C        2.0499805683    0.4143796091   -0.3530866455
C        1.3598268384   -0.8511461094   -0.5692743761
C        0.1439056132   -0.5116647527   -1.0876195981
C       -1.6009225466    0.1379364670    1.8563839825
C        0.1551682031    0.9489494588   -1.1742362281
N        1.3051921464    1.4805178671   -0.7209988049
H        3.0460508709    0.5480586792    0.0563733957
H        1.7503078186   -1.8375405629   -0.3574348378
H       -0.6760270451   -1.1592103080   -1.3659801833
H       -0.6793106228    0.6600545801    1.9862826153
H       -0.6330108085    1.5803164765   -1.5706199849
C       -2.6464486551   -0.4488624220    1.7065579989
H       -3.5747123808   -0.9617889829    1.5936526663
13   
Frame  20 IRC: Energy =  -286.8646881730 ; +3.7219 kcal/mol
C        2.0688900449    0.4201262495   -0.3605238334
C        1.3925048599   -0.8505531257   -0.5967382788
C        0.1775730400   -0.5171765519   -1.1212278829
C       -1.6530497777    0.1351849684    1.8886024011
C        0.1735576301    0.9436381331   -1.1871582503
N        1.3163450249    1.4819221443   -0.7201341900
H        3.0607518314    0.5580551800    0.0576407044
H        1.7897697310   -1.8354290649   -0.3903774921
H       -0.6316527500   -1.1702313269   -1.4174776938
H       -0.7283710446    0.6529024959    2.0134739075
H       -0.6216482560    1.5725390018   -1.5732781197
C       -2.7048425873   -0.4435689887    1.7518644591
H       -3.6398277467   -0.9474091148    1.6553342689
13   
Frame  21 IRC: Energy =  -286.8648639240 ; +3.6116 kcal/mol
C        2.0877007236    0.4252195940   -0.3676028016
C        1.4258449594   -0.8499438193   -0.6243132558
C        0.2119054557   -0.5226870280   -1.1549374079
C       -1.7059311809    0.1332267979    1.9205167860
C        0.1922518884    0.9382235686   -1.2000720604
N        1.3269375495    1.4829119958   -0.7189169242
H        3.0758680705    0.5676048178    0.0577434892
H        1.8299230948   -1.8330896820   -0.4228721973
H       -0.5866346593   -1.1808407408   -1.4685439778
H       -0.7776382691    0.6459429942    2.0385976059
H       -0.6117330397    1.5638304239   -1.5731460268
C       -2.7639476793   -0.4373064855    1.7979645252
H       -3.7045469136   -0.9330924367    1.7155822454
13   
Frame  22 IRC: Energy =  -286.8649885019 ; +3.5334 kcal/mol
C        2.1064087355    0.4296902493   -0.3743931124
C        1.4598312966   -0.8493333266   -0.6519438685
C        0.2465696998   -0.5282531894   -1.1879535095
C       -1.7595500264    0.1321797974    1.9524965598
C        0.2108400630    0.9326288549   -1.2123174996
N        1.3366864835    1.4833879312   -0.7169413010
H        3.0911114681    0.5768994799    0.0572761910
H        1.8715559503   -1.8305881336   -0.4567823518
H       -0.5413215527   -1.1911861833   -1.5182560580
H       -0.8270902814    0.6391235780    2.0621273332
H       -0.6024521758    1.5540035644   -1.5721188948
C       -2.8237030854   -0.4298830871    1.8448390969
H       -3.7688865750   -0.9186695350    1.7739674147
13   
Frame  23 IRC: Energy =  -286.8650720903 ; +3.4810 kcal/mol
C        2.1250674747    0.4335854701   -0.3810097438
C        1.4945007994   -0.8487336108   -0.6796961647
C        0.2812607940   -0.5339633059   -1.2196518557
C       -1.8139125642    0.1321778848    1.9847645181
C        0.2289297178    0.9266981325   -1.2232358674
N        1.3454426904    1.4832201150   -0.7138638348
H        3.1062847463    0.5860014048    0.0567088213
H        1.9153340211   -1.8278712946   -0.4934962022
H       -0.4961089588   -1.2013781830   -1.5658269716
H       -0.8767683599    0.6324926308    2.0843093613
H       -0.5931474391    1.5430564812   -1.5716060212
C       -2.8840372083   -0.4211906113    1.8924155016
H       -3.8328457134   -0.9040951135    1.8301884591
13   
Frame  24 IRC: Energy =  -286.8651291770 ; +3.4452 kcal/mol
C        2.1437216921    0.4369578151   -0.3875388956
C        1.5298809310   -0.8481535891   -0.7077341663
C        0.3157336404   -0.5399310722   -1.2496631781
C       -1.8689717911    0.1333968017    2.0173464259
C        0.2461514613    0.9201783035   -1.2321955897
N        1.3531326261    1.4822371434   -0.7093273051
H        3.1212627491    0.5948486853    0.0563713797
H        1.9616678276   -1.8247746637   -0.5338536238
H       -0.4513559486   -1.2115078688   -1.6107546085
H       -0.9267189374    0.6262458923    2.1051154989
H       -0.5833825805    1.5311251434   -1.5724120489
C       -2.9447827472   -0.4112072415    1.9405080798
H       -3.8963389228   -0.8894153493    1.8841380318
13   
Frame  25 IRC: Energy =  -286.8651723192 ; +3.4181 kcal/mol
C        2.1623489327    0.4399141614   -0.3939763909
C        1.5658760238   -0.8475656316   -0.7362058192
C        0.3499143290   -0.5461850922   -1.2781547030
C       -1.9245248002    0.1358405023    2.0499653460
C        0.2623262202    0.9128494132   -1.2389738825
N        1.3598329060    1.4803302994   -0.7031500513
H        3.1359817283    0.6033352728    0.0564353154
H        2.0102896700   -1.8211214775   -0.5776410227
H       -0.4071046571   -1.2216259226   -1.6533412539
H       -0.9769178515    0.6205720614    2.1243191247
H       -0.5730925895    1.5184473617   -1.5744057180
C       -3.0056406769   -0.4001426462    1.9887689123
H       -3.9592892348   -0.8746483022    1.9363601431
13   
Frame  26 IRC: Energy =  -286.8652058411 ; +3.3970 kcal/mol
C        2.1808644502    0.4425284787   -0.4001807670
C        1.6024049737   -0.8469186944   -0.7652820916
C        0.3838485562   -0.5527049247   -1.3055270509
C       -1.9803386866    0.1395399238    2.0821294031
C        0.2773471526    0.9044756954   -1.2434728303
N        1.3655766755    1.4773436494   -0.6950581227
H        3.1503848236    0.6113200987    0.0570492287
H        2.0607532433   -1.8167405540   -0.6243698884
H       -0.3631841983   -1.2317196390   -1.6942731667
H       -1.0273262369    0.6157177809    2.1413324612
H       -0.5624776447    1.5051068290   -1.5768774868
C       -3.0662575324   -0.3882270400    2.0367781204
H       -4.0215955760   -0.8597216040    1.9877521910
13   
Frame  27 IRC: Energy =  -286.8652282908 ; +3.3830 kcal/mol
C        2.1990911869    0.4448546443   -0.4058469136
C        1.6393595649   -0.8460541928   -0.7951407742
C        0.4178455903   -0.5592746176   -1.3327320467
C       -2.0360352462    0.1442746062    2.1128102174
C        0.2913556882    0.8948818839   -1.2460778192
N        1.3704700286    1.4730817449   -0.6848514673
H        3.1644093174    0.6186141041    0.0583535504
H        2.1120706707   -1.8114609107   -0.6726121804
H       -0.3189936798   -1.2415082808   -1.7351033723
H       -1.0779055783    0.6118745610    2.1551665844
H       -0.5522780664    1.4909926548   -1.5779883315
C       -3.1261000924   -0.3759889777    2.0837179990
H       -4.0832893838   -0.8442872195    2.0403045541
13   
Frame  28 IRC: Energy =  -286.8652493792 ; +3.3697 kcal/mol
C        2.2166680371    0.4467627854   -0.4100965981
C        1.6767325668   -0.8450622085   -0.8261209790
C        0.4520687445   -0.5659456122   -1.3608863887
C       -2.0908615332    0.1504906755    2.1402833513
C        0.3042200986    0.8838208576   -1.2467498597
N        1.3740812644    1.4672328623   -0.6713522476
H        3.1777914287    0.6250134744    0.0610862207
H        2.1635955592   -1.8055563447   -0.7215056619
H       -0.2740825186   -1.2509911013   -1.7778518356
H       -1.1282422347    0.6101845195    2.1636358131
H       -0.5439549212    1.4754453543   -1.5750659312
C       -3.1840797252   -0.3638147146    2.1280737611
H       -4.1439367665   -0.8275805479    2.0965503558
13   
Frame  29 IRC: Energy =  -286.8652876287 ; +3.3457 kcal/mol
C        2.2314103788    0.4470359541   -0.4096370151
C        1.7143873347   -0.8446815576   -0.8594783103
C        0.4860344668   -0.5736048491   -1.3908069404
C       -2.1416760149    0.1622977824    2.1585435278
C        0.3132854176    0.8692518197   -1.2415260288
N        1.3728903373    1.4575716169   -0.6479548233
H        3.1883725967    0.6290675872    0.0686109256
H        2.2156423058   -1.7996287553   -0.7731332985
H       -0.2280339001   -1.2608182855   -1.8252174041
H       -1.1760525240    0.6165216707    2.1570215200
H       -0.5416551784    1.4558217134   -1.5611070318
C       -3.2352815827   -0.3513559648    2.1641122187
H       -4.1993236376   -0.8074787320    2.1605726602
13   
Frame  30 IRC: Energy =  -286.8653285893 ; +3.3200 kcal/mol
C        2.2395472081    0.4421795772   -0.4018521401
C        1.7500714625   -0.8454989557   -0.8927512829
C        0.5186419445   -0.5824338805   -1.4202045869
C       -2.1829087926    0.1835353730    2.1617266586
C        0.3159540537    0.8506924151   -1.2275131477
N        1.3618546891    1.4416743018   -0.6115891239
H        3.1920028060    0.6286564784    0.0836752849
H        2.2675762307   -1.7934651940   -0.8283956090
H       -0.1806256347   -1.2704950700   -1.8762442153
H       -1.2166182657    0.6351439069    2.1279641014
H       -0.5512268483    1.4290509906   -1.5285591130
C       -3.2731489417   -0.3366702166    2.1859980124
H       -4.2411199114   -0.7823697262    2.2277451616
13   
Frame  31 IRC: Energy =  -286.8653740277 ; +3.2915 kcal/mol
C        2.2392936932    0.4293117590   -0.3861937622
C        1.7794951041   -0.8484372786   -0.9189772086
C        0.5447101471   -0.5947693789   -1.4429790527
C       -2.2080011713    0.2169992483    2.1519218196
C        0.3108518130    0.8298474125   -1.2038702696
N        1.3380232338    1.4201660764   -0.5673627962
H        3.1856002243    0.6232170924    0.1080110430
H        2.3198842196   -1.7852347314   -0.8905447007
H       -0.1387293007   -1.2813308802   -1.9244699128
H       -1.2421645348    0.6650787010    2.0805543315
H       -0.5752622498    1.3926431317   -1.4788253469
C       -3.2936438930   -0.3114526910    2.1984474767
H       -4.2600572855   -0.7560384612    2.2742883791
13   
Frame  32 IRC: Energy =  -286.8654409654 ; +3.2495 kcal/mol
C        2.2236769993    0.4139662043   -0.3610929527
C        1.7890464561   -0.8544852725   -0.9316114450
C        0.5494132824   -0.6094144637   -1.4492504348
C       -2.1962502166    0.2601010568    2.1210081901
C        0.2887845176    0.8049709282   -1.1666690226
N        1.3020416725    1.3952790568   -0.5154925270
H        3.1649197579    0.6115094427    0.1410742455
H        2.3530236781   -1.7776243618   -0.9432263414
H       -0.1193668251   -1.2926686741   -1.9557934250
H       -1.2325544104    0.7060643977    2.0140706656
H       -0.6111185887    1.3551580581   -1.4221658184
C       -3.2766967479   -0.2760520890    2.1924120716
H       -4.2349195752   -0.7368042836    2.2767367941
13   
Frame  33 IRC: Energy =  -286.8655503610 ; +3.1809 kcal/mol
C        2.2037889656    0.4021869943   -0.3354933401
C        1.7922217371   -0.8590107365   -0.9425564492
C        0.5478062526   -0.6220679412   -1.4515439872
C       -2.1726892068    0.2985685061    2.0831627658
C        0.2607318966    0.7767629230   -1.1275793857
N        1.2651835203    1.3689223362   -0.4612108431
H        3.1412044602    0.6003677191    0.1736915574
H        2.3748318117   -1.7697004154   -0.9841848565
H       -0.1053793373   -1.3021502228   -1.9819022681
H       -1.2116822010    0.7425198023    1.9470166718
H       -0.6465405235    1.3205242498   -1.3703948151
C       -3.2496108965   -0.2404704523    2.1805633948
H       -4.1998664788   -0.7164527626    2.2704315552
13   
Frame  34 IRC: Energy =  -286.8656883161 ; +3.0943 kcal/mol
C        2.1839905108    0.3934283026   -0.3104458729
C        1.7973459969   -0.8606197840   -0.9569150545
C        0.5479650300   -0.6329434009   -1.4570630252
C       -2.1489767284    0.3301543432    2.0433032099
C        0.2322267480    0.7457389642   -1.0902434899
N        1.2285131463    1.3402216716   -0.4046460333
H        3.1176256950    0.5921907365    0.2057260073
H        2.3951616687   -1.7602016869   -1.0194823274
H       -0.0883508815   -1.3097760009   -2.0116059319
H       -1.1907310570    0.7713057923    1.8827812896
H       -0.6804188033    1.2851620015   -1.3217739075
C       -3.2243522746   -0.2064000449    2.1680263339
H       -4.1699990510   -0.6882608942    2.2723388018
13   
Frame  35 IRC: Energy =  -286.8658539097 ; +2.9904 kcal/mol
C        2.1635224623    0.3844449986   -0.2844007635
C        1.8061788366   -0.8585651430   -0.9739130423
C        0.5525464867   -0.6418315698   -1.4672981795
C       -2.1257206115    0.3545554186    1.9988011534
C        0.2049831699    0.7139031699   -1.0554630238
N        1.1885389864    1.3084476011   -0.3444455568
H        3.0926861443    0.5860237237    0.2388482396
H        2.4174386875   -1.7478950445   -1.0516002865
H       -0.0658569942   -1.3148863171   -2.0460810811
H       -1.1699106755    0.7936887271    1.8190307607
H       -0.7161487823    1.2449189592   -1.2715436859
C       -3.2008564060   -0.1756613512    2.1504746264
H       -4.1474013043   -0.6471431725    2.2875908393
13   
Frame  36 IRC: Energy =  -286.8660433101 ; +2.8715 kcal/mol
C        2.1463015486    0.3731733747   -0.2586536426
C        1.8212761376   -0.8495763569   -0.9933679508
C        0.5648149835   -0.6461302521   -1.4846608449
C       -2.1090319375    0.3654841613    1.9564799968
C        0.1821094759    0.6842632433   -1.0284620133
N        1.1486996211    1.2736561231   -0.2859884415
H        3.0695578633    0.5806194194    0.2726311191
H        2.4465096958   -1.7277853610   -1.0846188523
H       -0.0365469869   -1.3135434454   -2.0865410825
H       -1.1540829361    0.8040801384    1.7677377708
H       -0.7523157519    1.1981828864   -1.2277679636
C       -3.1873744698   -0.1498675923    2.1351500750
H       -4.1399172437   -0.5925563389    2.3180618299
13   
Frame  37 IRC: Energy =  -286.8662299199 ; +2.7544 kcal/mol
C        2.1249872486    0.3583882542   -0.2304750451
C        1.8341436812   -0.8451265515   -1.0082213052
C        0.5748587572   -0.6537176924   -1.4978217733
C       -2.0912364241    0.3869232735    1.9189997812
C        0.1606394577    0.6553369307   -0.9973057088
N        1.1051188555    1.2392888494   -0.2327017592
H        3.0406695901    0.5720954125    0.3111688362
H        2.4790332196   -1.7051739148   -1.1301765356
H       -0.0098478521   -1.3147050662   -2.1234847590
H       -1.1379651088    0.8198473732    1.7130007434
H       -0.7868801973    1.1508096566   -1.1812046045
C       -3.1704902340   -0.1162968158    2.1249154272
H       -4.1230309937   -0.5476697096    2.3333067028
13   
Frame  38 IRC: Energy =  -286.8664145883 ; +2.6385 kcal/mol
C        2.1044422684    0.3417179107   -0.2003846485
C        1.8491417684   -0.8357712206   -1.0235559349
C        0.5881684770   -0.6581699017   -1.5156993503
C       -2.0762018453    0.3989348629    1.8875224466
C        0.1411446143    0.6261228448   -0.9719237486
N        1.0613663786    1.2022986857   -0.1823853470
H        3.0110309707    0.5607419675    0.3540179330
H        2.5181123948   -1.6707082601   -1.1831302986
H        0.0197574946   -1.3108058357   -2.1648644124
H       -1.1221192478    0.8260027449    1.6725806177
H       -0.8200251453    1.0986475257   -1.1455267818
C       -3.1600509462   -0.0802246715    2.1243971378
H       -4.1147671822   -0.4987866526    2.3489523870
13   