
Running Job 1 of 1 irc_product.in
qchem irc_product.in_39854.0 ./irc_product.d/ 1
/home/leeping/opt/qchem/5.0.2-openmp/exe/qcprog.exe_s irc_product.in_39854.0 ./irc_product.d/
Check license passed

                  Welcome to Q-Chem
     A Quantum Leap Into The Future Of Chemistry


 Q-Chem 5.0, Q-Chem, Inc., Pleasanton, CA (2017)

 Yihan Shao,  Zhengting Gan,  E. Epifanovsky,  A. T. B. Gilbert,  M. Wormit,  
 J. Kussmann,  A. W. Lange,  A. Behn,  Jia Deng,  Xintian Feng,  D. Ghosh,  
 M. Goldey,  P. R. Horn,  L. D. Jacobson,  I. Kaliman,  T. Kus,  A. Landau,  
 Jie Liu,  E. I. Proynov,  R. M. Richard,  R. P. Steele,  E. J. Sundstrom,  
 H. L. Woodcock III,  P. M. Zimmerman,  D. Zuev,  B. Albrecht,  E. Alguire,  
 S. A. Baeppler,  D. Barton,  Z. Benda,  Y. A. Bernard,  E. J. Berquist,  
 K. B. Bravaya,  H. Burton,  D. Casanova,  Chun-Min Chang,  Yunqing Chen,  
 A. Chien,  K. D. Closser,  M. P. Coons,  S. Dasgupta,  A. L. Dempwolff,  
 M. Diedenhofen,  Hainam Do,  R. G. Edgar,  Po-Tung Fang,  S. Fatehi,  
 Qingguo Feng,  J. Fosso-Tande,  Qinghui Ge,  A. Ghysels,  G. Gidofalvi,  
 J. Gomes,  J. Gonthier,  A. Gunina,  M. W. D. Hanson-Heine,  
 P. H. P. Harbach,  A. W. Hauser,  J. E. Herr,  E. G. Hohenstein,  
 Z. C. Holden,  Kerwin Hui,  T.-C. Jagau,  Hyunjun Ji,  B. Kaduk,  
 K. Khistyaev,  Jaehoon Kim,  P. Klunzinger,  K. Koh,  D. Kosenkov,  
 L. Koulias,  T. Kowalczyk,  C. M. Krauter,  A. Kunitsa,  Ka Un Lao,  
 A. Laurent,  K. V. Lawler,  Joonho Lee,  D. Lefrancois,  S. Lehtola,  
 D. S. Levine,  Yi-Pei Li,  You-Sheng Lin,  Fenglai Liu,  E. Livshits,  
 A. Luenser,  P. Manohar,  E. Mansoor,  S. F. Manzer,  Shan-Ping Mao,  
 Yuezhi Mao,  N. Mardirossian,  A. V. Marenich,  T. Markovich,  
 L. A. Martinez-Martinez,  S. A. Maurer,  N. J. Mayhall,  S. C. McKenzie,  
 J.-M. Mewes,  A. F. Morrison,  J. W. Mullinax,  K. Nanda,  
 T. S. Nguyen-Beck,  R. Olivares-Amaya,  J. A. Parkhill,  T. M. Perrine,  
 F. Plasser,  S. Prager,  A. Prociuk,  E. Ramos,  D. R. Rehn,  F. Rob,  
 M. Schneider,  N. Sergueev,  S. M. Sharada,  S. Sharma,  D. W. Small,  
 T. Stauch,  T. Stein,  Yu-Chuan Su,  A. J. W. Thom,  A. Tkatchenko,  
 T. Tsuchimochi,  L. Vogt,  O. Vydrov,  M. A. Watson,  J. Wenzel,  
 M. de Wergifosse,  T. A. Wesolowski,  A. White,  J. Witte,  A. Yamada,  
 Jun Yang,  K. Yao,  S. Yeganeh,  S. R. Yost,  Zhi-Qiang You,  A. Zech,  
 Igor Ying Zhang,  Xing Zhang,  Yan Zhao,  Ying Zhu,  B. R. Brooks,  
 G. K. L. Chan,  C. J. Cramer,  M. S. Gordon,  W. J. Hehre,  A. Klamt,  
 M. W. Schmidt,  C. D. Sherrill,  D. G. Truhlar,  A. Aspuru-Guzik,  R. Baer,  
 A. T. Bell,  N. A. Besley,  Jeng-Da Chai,  R. A. DiStasio Jr.,  A. Dreuw,  
 B. D. Dunietz,  T. R. Furlani,  Chao-Ping Hsu,  Yousung Jung,  Jing Kong,  
 D. S. Lambrecht,  WanZhen Liang,  C. Ochsenfeld,  V. A. Rassolov,  
 L. V. Slipchenko,  J. E. Subotnik,  T. Van Voorhis,  J. M. Herbert,  
 A. I. Krylov,  P. M. W. Gill,  M. Head-Gordon

 Contributors to earlier versions of Q-Chem not listed above: 
 R. D. Adamson,  B. Austin,  J. Baker,  G. J. O. Beran,  K. Brandhorst,  
 S. T. Brown,  E. F. C. Byrd,  A. K. Chakraborty,  C.-L. Cheng,  
 Siu Hung Chien,  D. M. Chipman,  D. L. Crittenden,  H. Dachsel,  
 R. J. Doerksen,  A. D. Dutoi,  L. Fusti-Molnar,  W. A. Goddard III,  
 A. Golubeva-Zadorozhnaya,  S. R. Gwaltney,  G. Hawkins,  A. Heyden,  
 S. Hirata,  G. Kedziora,  F. J. Keil,  C. Kelley,  Jihan Kim,  R. A. King,  
 R. Z. Khaliullin,  P. P. Korambath,  W. Kurlancheek,  A. M. Lee,  M. S. Lee,  
 S. V. Levchenko,  Ching Yeh Lin,  D. Liotard,  R. C. Lochan,  I. Lotan,  
 P. E. Maslen,  N. Nair,  D. P. O'Neill,  D. Neuhauser,  E. Neuscamman,  
 C. M. Oana,  R. Olson,  B. Peters,  R. Peverati,  P. A. Pieniazek,  
 Y. M. Rhee,  J. Ritchie,  M. A. Rohrdanz,  E. Rosta,  N. J. Russ,  
 H. F. Schaefer III,  N. E. Schultz,  N. Shenvi,  A. C. Simmonett,  A. Sodt,  
 D. Stuck,  K. S. Thanthiriwatte,  V. Vanovschi,  Tao Wang,  A. Warshel,  
 C. F. Williams,  Q. Wu,  X. Xu,  W. Zhang

 Please cite Q-Chem as follows:
 Y. Shao et al., Mol. Phys. 113, 184-215 (2015)
 DOI: 10.1080/00268976.2014.952696

 Q-Chem 5.0.2 for Intel X86 EM64T Linux

 Parts of Q-Chem use Armadillo 5.200.1 (Boston Tea Smuggler).
 http://arma.sourceforge.net/

 Q-Chem begins on Tue Mar  1 16:49:26 2022  

Host: 
0

     Scratch files written to ./irc_product.d//
 Dec517 15110_ 26548  26544 5633   
Processing $rem in /home/leeping/opt/qchem/5.0.2-openmp/config/preferences.
 MEM_STATIC 2000
 MEM_TOTAL  8000
 SYMMETRY   OFF
 SYM_IGNORE TRUE 

Checking the input file for inconsistencies... 	...done.

--------------------------------------------------------------
User input:
--------------------------------------------------------------
$molecule
0 2
C        1.7125492877   -0.2171770291    0.0853630181
C        2.2577630633   -0.0515330580   -1.2581234100
C        1.1840363016    0.2401955362   -2.0494908952
C       -2.2801861944   -0.1192068025    2.0740882323
C        0.0325999134    0.2387920050   -1.1525201134
N        0.3768368486   -0.0380434781    0.1217761585
H        2.2677245431   -0.4568277245    0.9861238013
H        3.2976081498   -0.1460701029   -1.5410137595
H        1.1634676085    0.4356118427   -3.1131602787
H       -1.3186732356   -0.1187556447    1.5903074412
H       -1.0010726338    0.4296956249   -1.4214999176
C       -3.3679886086   -0.1034808259    2.6035784805
H       -4.3246650436   -0.0932003432    3.0745712426
$end

$rem
method                b3lyp
basis                 6-31+g(d,p)
unrestricted          true
symmetry              off
sym_ignore            true
incdft                false
incfock               0
scf_convergence       8
thresh                14
jobtype               sp
scf_guess             read
scf_algorithm         diis
max_scf_cycles        100
scf_final_print       1
$end

--------------------------------------------------------------
 ----------------------------------------------------------------
             Standard Nuclear Orientation (Angstroms)
    I     Atom           X                Y                Z
 ----------------------------------------------------------------
    1      C       1.7125492877    -0.2171770291     0.0853630181
    2      C       2.2577630633    -0.0515330580    -1.2581234100
    3      C       1.1840363016     0.2401955362    -2.0494908952
    4      C      -2.2801861944    -0.1192068025     2.0740882323
    5      C       0.0325999134     0.2387920050    -1.1525201134
    6      N       0.3768368486    -0.0380434781     0.1217761585
    7      H       2.2677245431    -0.4568277245     0.9861238013
    8      H       3.2976081498    -0.1460701029    -1.5410137595
    9      H       1.1634676085     0.4356118427    -3.1131602787
   10      H      -1.3186732356    -0.1187556447     1.5903074412
   11      H      -1.0010726338     0.4296956249    -1.4214999176
   12      C      -3.3679886086    -0.1034808259     2.6035784805
   13      H      -4.3246650436    -0.0932003432     3.0745712426
 ----------------------------------------------------------------
 Nuclear Repulsion Energy =   228.5954151430 hartrees
 There are       25 alpha and       24 beta electrons
 Requested basis set is 6-31+G(d,p)
 There are 53 shells and 163 basis functions

 Total QAlloc Memory Limit   8000 MB
 Mega-Array Size      1956 MB
 MEM_STATIC part      2000 MB

                       Distance Matrix (Angstroms)
             C (  1)   C (  2)   C (  3)   C (  4)   C (  5)   N (  6)
   C (  2)  1.459333
   C (  3)  2.246356  1.365378
   C (  4)  4.461677  5.630382  5.397584
   C (  5)  2.135999  2.246507  1.459577  3.985993
   N (  6)  1.348163  2.332850  2.333107  3.298163  1.348691
   H (  7)  1.084906  2.280572  3.297754  4.688406  3.170720  2.120833
   H (  8)  2.272129  1.081777  2.207926  6.646915  3.310487  3.362654
   H (  9)  3.310313  2.208156  1.081667  6.250930  2.271940  3.362730
   H ( 10)  3.385684  4.572633  4.431764  1.076360  3.078455  2.244516
   H ( 11)  3.170619  3.298224  2.281443  3.762521  1.085022  2.121112
   C ( 12)  5.671525  6.823820  6.518443  1.209926  5.078329  4.493033
   H ( 13)  6.737855  7.880504  7.530800  2.276299  6.079826  5.552131
             H (  7)   H (  8)   H (  9)   H ( 10)   H ( 11)   C ( 12)
   H (  8)  2.746571
   H (  9)  4.338198  2.713771
   H ( 10)  3.652613  5.578169  5.347051
   H ( 11)  4.155431  4.338715  2.747178  3.077767
   C ( 12)  5.873864  7.849181  7.314767  2.286186  4.699769
   H ( 13)  6.924842  8.910975  8.287778  3.352563  5.615545  1.066382

 
 A cutoff of  1.0D-14 yielded   1250 shell pairs
 There are     12235 function pairs
 
 -------------------------------------------------------
 OpenMP Integral Computing Module                       
 Release: version 1.0, May 2013, Q-Chem Inc. Pittsburgh 
 -------------------------------------------------------
 Integral Job Info:
 Integral job number is                      11
 Integral operator is                         1
 short-range coefficients                     0
 long-range coefficients              100000000
 Omega coefficients                           0
 if combine SR and LR in K                    0
 Integral screening is                        0
 Integral computing path is                   2
 max size of driver memory is            800000
 size of driver memory is                593474
 size of scratch memory is              2361544
 max col of scratch BK array               1296
 max len of scratch array in speh3          155
 max len of scratch index in speh4           18
 max int batch size is                      520
 min int batch size is                       52
 fixed nKL is                                52
 max L of basis functions is                  2
 order of int derivative is                   0
 number of shells is                         53
 number of basis is                         163
 number of cartesian basis is               163
 number of contracted shell pairs          1250
 number of primitive shell pairs           4106
 maxK2 (contraction) of shell pair           36
 max number of K2 of shell pair               1
 max number of CS2 of shell pair            119
 max number of PS2 of shell pair            666
 mem total for path MDJ                  526394
 -------------------------------------------------------
 Smallest overlap matrix eigenvalue = 1.95E-05

 Scale SEOQF with 1.000000e-01/1.000000e-01/1.000000e-01

 Standard Electronic Orientation quadrupole field applied
 Nucleus-field energy     =    -0.0000000075 hartrees
 Guess MOs from SCF MO coefficient file
 Reading MOs from coefficient file
 Reading MOs from coefficient file
 An unrestricted hybrid HF-DFT SCF calculation will be
 performed using Pulay DIIS extrapolation
 Exchange:     0.2000 Hartree-Fock + 0.0800 Slater + 0.7200 B88
 Correlation:  0.1900 VWN1RPA + 0.8100 LYP
 Using SG-1 standard quadrature grid
 SCF converges when DIIS error is below 1.0E-08
Using Q-Chem read-in guess as SCF_GUESS READ specified.

 using 4 threads for integral computing
 -------------------------------------------------------
 OpenMP Integral computing Module                
 Release: version 1.0, May 2013, Q-Chem Inc. Pittsburgh 
 -------------------------------------------------------
 -------------------------------------------------------
 OpenMP BLAS3 based DFT computing Module                
 Release: version 1.0, May 2013, Q-Chem Inc. Pittsburgh 
 -------------------------------------------------------
 ---------------------------------------
  Cycle       Energy         DIIS Error
 ---------------------------------------
    1    -286.8704026935      5.19E-10
    2    -286.8704026935      8.51E-10 Convergence criterion met
 ---------------------------------------
 One-Electron    Energy =  -837.6639841410
 Total Coulomb   Energy =   363.7004991580
 Alpha Exchange  Energy =    -4.0050365428
 Beta  Exchange  Energy =    -3.9209792561
 DFT   Exchange  Energy =   -31.4909222794
 DFT Correlation Energy =    -2.0853947676
 Nuclear Repu.   Energy =   228.5954151355
 Nuclear Attr.   Energy = -1121.7057240542
 Kinetic         Energy =   284.0417399131
 <S^2> = 0.7647
 SCF time:  CPU 8.44 s  wall 4.54 s
 Final Alpha MO Eigenvalues
            1           2           3           4           5           6
    1 -14.3432199 -10.2617692 -10.2614821 -10.2201917 -10.2194939 -10.1844395
            7           8           9          10          11          12
    1 -10.1807588  -0.9806539  -0.7896910  -0.7426169  -0.7356159  -0.5894291
           13          14          15          16          17          18
    1  -0.5830633  -0.5515123  -0.5372524  -0.4761810  -0.4368574  -0.4306955
           19          20          21          22          23          24
    1  -0.4231420  -0.4103480  -0.2958142  -0.2761063  -0.2757452  -0.2728848
           25          26          27          28          29          30
    1  -0.2618481   0.0049282   0.0073047   0.0158593   0.0194182   0.0267812
 Final Beta MO Eigenvalues
            1           2           3           4           5           6
    1 -14.3459964 -10.2544417 -10.2541550 -10.2190822 -10.2183741 -10.1844394
            7           8           9          10          11          12
    1 -10.1807536  -0.9740852  -0.7868460  -0.7356367  -0.7217447  -0.5836277
           13          14          15          16          17          18
    1  -0.5720414  -0.5512852  -0.5352379  -0.4761427  -0.4332965  -0.4209350
           19          20          21          22          23          24
    1  -0.4043491  -0.4009924  -0.2970046  -0.2757474  -0.2757357  -0.2697620
           25          26          27          28          29
    1  -0.1580075   0.0054402   0.0196901   0.0271089   0.0287523
 SCF   energy in the final basis set = -286.87040269
 Total energy in the final basis set = -286.87040269
 
 --------------------------------------------------------------
 
                    Orbital Energies (a.u.)
 --------------------------------------------------------------
 
 Alpha MOs
 -- Occupied --
-14.343 -10.262 -10.261 -10.220 -10.219 -10.184 -10.181  -0.981
 -0.790  -0.743  -0.736  -0.589  -0.583  -0.552  -0.537  -0.476
 -0.437  -0.431  -0.423  -0.410  -0.296  -0.276  -0.276  -0.273
 -0.262
 -- Virtual --
  0.005   0.007   0.016   0.019   0.027   0.029   0.030   0.033
  0.047   0.052   0.053   0.064   0.077   0.086   0.088   0.094
  0.113   0.116   0.128   0.140   0.148   0.157   0.169   0.175
  0.179   0.186   0.200   0.213   0.215   0.221   0.227   0.236
  0.243   0.251   0.258   0.279   0.280   0.299   0.322   0.364
  0.403   0.431   0.476   0.578   0.643   0.654   0.671   0.678
  0.680   0.689   0.695   0.710   0.724   0.759   0.762   0.768
  0.838   0.846   0.859   0.870   0.886   0.915   0.948   0.963
  0.989   1.003   1.032   1.085   1.115   1.155   1.185   1.191
  1.239   1.257   1.292   1.313   1.336   1.389   1.399   1.419
  1.433   1.456   1.473   1.544   1.558   1.560   1.577   1.703
  1.761   1.872   1.880   1.927   1.948   1.949   1.957   1.963
  1.975   2.011   2.025   2.117   2.173   2.228   2.250   2.367
  2.372   2.393   2.399   2.414   2.421   2.437   2.455   2.509
  2.525   2.587   2.604   2.628   2.712   2.719   2.795   2.827
  2.913   3.011   3.032   3.051   3.182   3.217   3.304   3.477
  3.537   3.750   3.880   4.119   4.296   4.348   4.530   4.628
  4.736   5.359
 
 Beta MOs
 -- Occupied --
-14.346 -10.254 -10.254 -10.219 -10.218 -10.184 -10.181  -0.974
 -0.787  -0.736  -0.722  -0.584  -0.572  -0.551  -0.535  -0.476
 -0.433  -0.421  -0.404  -0.401  -0.297  -0.276  -0.276  -0.270
 -- Virtual --
 -0.158   0.005   0.020   0.027   0.029   0.030   0.031   0.034
  0.039   0.047   0.053   0.059   0.065   0.078   0.086   0.094
  0.094   0.116   0.119   0.128   0.143   0.155   0.158   0.170
  0.177   0.179   0.187   0.201   0.215   0.216   0.225   0.226
  0.241   0.248   0.254   0.260   0.280   0.282   0.304   0.323
  0.365   0.406   0.435   0.485   0.578   0.649   0.672   0.681
  0.681   0.690   0.699   0.713   0.714   0.737   0.760   0.762
  0.768   0.841   0.848   0.864   0.872   0.889   0.915   0.949
  0.968   0.983   1.005   1.034   1.092   1.117   1.156   1.193
  1.196   1.255   1.262   1.292   1.332   1.348   1.389   1.400
  1.433   1.439   1.464   1.478   1.545   1.558   1.560   1.577
  1.711   1.778   1.879   1.885   1.930   1.948   1.949   1.957
  1.963   1.984   2.015   2.039   2.124   2.179   2.241   2.275
  2.371   2.373   2.394   2.399   2.414   2.432   2.445   2.462
  2.526   2.533   2.588   2.618   2.630   2.720   2.725   2.800
  2.827   2.914   3.013   3.033   3.051   3.184   3.218   3.307
  3.477   3.541   3.754   3.880   4.117   4.310   4.352   4.547
  4.628   4.743   5.359
 --------------------------------------------------------------
 
          Ground-State Mulliken Net Atomic Charges

     Atom                 Charge (a.u.)    Spin (a.u.)
  --------------------------------------------------------
      1 C                    -0.067250       0.530905
      2 C                    -0.101130       0.078527
      3 C                    -0.152957       0.086646
      4 C                    -0.056756       0.000226
      5 C                    -0.034340       0.526456
      6 N                    -0.184777      -0.159383
      7 H                     0.144184      -0.026399
      8 H                     0.142986      -0.005814
      9 H                     0.142590      -0.005895
     10 H                     0.211903       0.001245
     11 H                     0.148506      -0.026294
     12 C                    -0.375180      -0.000230
     13 H                     0.182221       0.000009
  --------------------------------------------------------
  Sum of atomic charges =    -0.000000
  Sum of spin   charges =     1.000000

 -----------------------------------------------------------------
                    Cartesian Multipole Moments
 -----------------------------------------------------------------
    Charge (ESU x 10^10)
                -0.0000
    Dipole Moment (Debye)
         X       2.0367      Y       0.1631      Z      -2.3150
       Tot       3.0878
    Quadrupole Moments (Debye-Ang)
        XX     -34.1416     XY      -1.3864     YY     -45.2672
        XZ      -0.1705     YZ      -1.1443     ZZ     -39.7854
    Octopole Moments (Debye-Ang^2)
       XXX      -2.6529    XXY      -2.0326    XYY       3.7944
       YYY       1.0900    XXZ      12.5094    XYZ      -0.6458
       YYZ      -4.8575    XZZ      -1.3489    YZZ       3.1254
       ZZZ     -26.2366
    Hexadecapole Moments (Debye-Ang^3)
      XXXX    -837.2342   XXXY     -13.1054   XXYY    -207.3059
      XYYY      -7.4297   YYYY     -66.1372   XXXZ     211.7531
      XXYZ       6.5724   XYYZ     131.8555   YYYZ      27.8778
      XXZZ    -214.2007   XYZZ      -1.1102   YYZZ    -151.1470
      XZZZ     312.2488   YZZZ      16.7485   ZZZZ    -740.5370
 -----------------------------------------------------------------
 Mayer SCF Bond Order, atomic valence on the diagonal:

            1           2           3           4           5           6
    1   3.7030199   1.2424683   0.0935618   0.0049926   0.1616906   1.1937245
    2   1.2424683   4.1227359   1.8789696  -0.0052209   0.0955792   0.0096280
    3   0.0935618   1.8789696   4.2434510   0.0233108   1.2873657   0.0486518
    4   0.0049926  -0.0052209   0.0233108   3.7417867  -0.0383160  -0.0446292
    5   0.1616906   0.0955792   1.2873657  -0.0383160   3.7314617   1.2078673
    6   1.1937245   0.0096280   0.0486518  -0.0446292   1.2078673   2.4338883
    7   0.9644874  -0.0159492   0.0262179  -0.0002788   0.0051041  -0.0391527
    8   0.0265938   0.8590609   0.0453324  -0.0007413   0.0103740   0.0070353
    9   0.0078251   0.0439062   0.8554701  -0.0002697   0.0341312   0.0074610
   10   0.0023534  -0.0022934   0.0131986   0.7129233  -0.0039217   0.0130852
   11   0.0089560   0.0235821  -0.0033126   0.0019057   0.9462019  -0.0336281
   12  -0.0039109  -0.0066431  -0.0261802   3.1824656   0.0259104   0.0647808
   13   0.0002774  -0.0003517   0.0008652  -0.0943552  -0.0005249  -0.0009358
            7           8           9          10          11          12
    1   0.9644874   0.0265938   0.0078251   0.0023534   0.0089560  -0.0039109
    2  -0.0159492   0.8590609   0.0439062  -0.0022934   0.0235821  -0.0066431
    3   0.0262179   0.0453324   0.8554701   0.0131986  -0.0033126  -0.0261802
    4  -0.0002788  -0.0007413  -0.0002697   0.7129233   0.0019057   3.1824656
    5   0.0051041   0.0103740   0.0341312  -0.0039217   0.9462019   0.0259104
    6  -0.0391527   0.0070353   0.0074610   0.0130852  -0.0336281   0.0647808
    7   0.9444517   0.0001398   0.0015306  -0.0000219   0.0024098  -0.0000356
    8   0.0001398   0.9518912   0.0007978   0.0003680   0.0015500   0.0013669
    9   0.0015306   0.0007978   0.9520965   0.0003154   0.0001388   0.0007944
   10  -0.0000219   0.0003680   0.0003154   0.9269105   0.0000297   0.1866640
   11   0.0024098   0.0015500   0.0001388   0.0000297   0.9440113  -0.0038144
   12  -0.0000356   0.0013669   0.0007944   0.1866640  -0.0038144   4.4629506
   13   0.0000004   0.0000138  -0.0000043   0.0042098  -0.0000075   1.0415528
           13
    1   0.0002774
    2  -0.0003517
    3   0.0008652
    4  -0.0943552
    5  -0.0005249
    6  -0.0009358
    7   0.0000004
    8   0.0000138
    9  -0.0000043
   10   0.0042098
   11  -0.0000075
   12   1.0415528
   13   0.9507399


Archival summary:
1\1\c8-89\SP\ProcedureUnspecified\6-31+G**\166(2)\hpark21\TueMar116:49:372022TueMar116:49:372022\0\\#,ProcedureUnspecified,6-31+G**,\\0,2\N\C,1,1.34816\H,2,1.08491,1,120.926\C,1,1.34869,2,104.752,3,-179.963,0\H,4,1.08502,1,120.897,2,179.933,0\C,2,1.45933,1,112.33,3,179.964,0\H,6,1.08178,2,126.153,1,-179.947,0\C,6,1.36538,2,105.31,1,0.0108428,0\H,8,1.08167,6,128.573,2,179.912,0\H,1,2.24452,2,139.581,3,-1.9798,0\C,10,1.07636,1,165.67,2,-173.681,0\C,11,1.20993,10,178.923,1,-37.2813,0\H,12,1.06638,11,179.679,10,-171.232,0\\\@

 Total job time:  11.85s(wall), 10.26s(cpu) 
 Tue Mar  1 16:49:37 2022

        *************************************************************
        *                                                           *
        *  Thank you very much for using Q-Chem.  Have a nice day.  *
        *                                                           *
        *************************************************************


