13   
Frame   0 IRC: Energy =  -286.8706193735 ; +0.0000 kcal/mol
C        1.9574414626    0.2137686774   -0.5414394878
C        1.1268522648   -0.7098529817   -0.0208820526
C       -0.2822739222   -0.2060644808   -0.2157793724
C       -1.0799659679   -0.0365746372    1.0785750618
C        0.0082424147    1.1120669755   -0.9084147056
N        1.2646064231    1.3366136955   -1.0904601220
H        3.0392110647    0.1969043243   -0.5905256200
H        1.3874801330   -1.6455845939    0.4561599151
H       -0.8453393862   -0.8580668909   -0.8998990911
H       -0.6034806936    0.5890153397    1.8352503968
H       -0.7580639795    1.8143315772   -1.2263379532
C       -2.2521616108   -0.5820226153    1.3142465062
H       -2.9625482029   -1.2245343900    0.8095065250
