
Running Job 1 of 1 irc_reactant.in
qchem irc_reactant.in_39649.0 ./irc_reactant.d/ 1
/home/leeping/opt/qchem/5.0.2-openmp/exe/qcprog.exe_s irc_reactant.in_39649.0 ./irc_reactant.d/
Check license passed

                  Welcome to Q-Chem
     A Quantum Leap Into The Future Of Chemistry


 Q-Chem 5.0, Q-Chem, Inc., Pleasanton, CA (2017)

 Yihan Shao,  Zhengting Gan,  E. Epifanovsky,  A. T. B. Gilbert,  M. Wormit,  
 J. Kussmann,  A. W. Lange,  A. Behn,  Jia Deng,  Xintian Feng,  D. Ghosh,  
 M. Goldey,  P. R. Horn,  L. D. Jacobson,  I. Kaliman,  T. Kus,  A. Landau,  
 Jie Liu,  E. I. Proynov,  R. M. Richard,  R. P. Steele,  E. J. Sundstrom,  
 H. L. Woodcock III,  P. M. Zimmerman,  D. Zuev,  B. Albrecht,  E. Alguire,  
 S. A. Baeppler,  D. Barton,  Z. Benda,  Y. A. Bernard,  E. J. Berquist,  
 K. B. Bravaya,  H. Burton,  D. Casanova,  Chun-Min Chang,  Yunqing Chen,  
 A. Chien,  K. D. Closser,  M. P. Coons,  S. Dasgupta,  A. L. Dempwolff,  
 M. Diedenhofen,  Hainam Do,  R. G. Edgar,  Po-Tung Fang,  S. Fatehi,  
 Qingguo Feng,  J. Fosso-Tande,  Qinghui Ge,  A. Ghysels,  G. Gidofalvi,  
 J. Gomes,  J. Gonthier,  A. Gunina,  M. W. D. Hanson-Heine,  
 P. H. P. Harbach,  A. W. Hauser,  J. E. Herr,  E. G. Hohenstein,  
 Z. C. Holden,  Kerwin Hui,  T.-C. Jagau,  Hyunjun Ji,  B. Kaduk,  
 K. Khistyaev,  Jaehoon Kim,  P. Klunzinger,  K. Koh,  D. Kosenkov,  
 L. Koulias,  T. Kowalczyk,  C. M. Krauter,  A. Kunitsa,  Ka Un Lao,  
 A. Laurent,  K. V. Lawler,  Joonho Lee,  D. Lefrancois,  S. Lehtola,  
 D. S. Levine,  Yi-Pei Li,  You-Sheng Lin,  Fenglai Liu,  E. Livshits,  
 A. Luenser,  P. Manohar,  E. Mansoor,  S. F. Manzer,  Shan-Ping Mao,  
 Yuezhi Mao,  N. Mardirossian,  A. V. Marenich,  T. Markovich,  
 L. A. Martinez-Martinez,  S. A. Maurer,  N. J. Mayhall,  S. C. McKenzie,  
 J.-M. Mewes,  A. F. Morrison,  J. W. Mullinax,  K. Nanda,  
 T. S. Nguyen-Beck,  R. Olivares-Amaya,  J. A. Parkhill,  T. M. Perrine,  
 F. Plasser,  S. Prager,  A. Prociuk,  E. Ramos,  D. R. Rehn,  F. Rob,  
 M. Schneider,  N. Sergueev,  S. M. Sharada,  S. Sharma,  D. W. Small,  
 T. Stauch,  T. Stein,  Yu-Chuan Su,  A. J. W. Thom,  A. Tkatchenko,  
 T. Tsuchimochi,  L. Vogt,  O. Vydrov,  M. A. Watson,  J. Wenzel,  
 M. de Wergifosse,  T. A. Wesolowski,  A. White,  J. Witte,  A. Yamada,  
 Jun Yang,  K. Yao,  S. Yeganeh,  S. R. Yost,  Zhi-Qiang You,  A. Zech,  
 Igor Ying Zhang,  Xing Zhang,  Yan Zhao,  Ying Zhu,  B. R. Brooks,  
 G. K. L. Chan,  C. J. Cramer,  M. S. Gordon,  W. J. Hehre,  A. Klamt,  
 M. W. Schmidt,  C. D. Sherrill,  D. G. Truhlar,  A. Aspuru-Guzik,  R. Baer,  
 A. T. Bell,  N. A. Besley,  Jeng-Da Chai,  R. A. DiStasio Jr.,  A. Dreuw,  
 B. D. Dunietz,  T. R. Furlani,  Chao-Ping Hsu,  Yousung Jung,  Jing Kong,  
 D. S. Lambrecht,  WanZhen Liang,  C. Ochsenfeld,  V. A. Rassolov,  
 L. V. Slipchenko,  J. E. Subotnik,  T. Van Voorhis,  J. M. Herbert,  
 A. I. Krylov,  P. M. W. Gill,  M. Head-Gordon

 Contributors to earlier versions of Q-Chem not listed above: 
 R. D. Adamson,  B. Austin,  J. Baker,  G. J. O. Beran,  K. Brandhorst,  
 S. T. Brown,  E. F. C. Byrd,  A. K. Chakraborty,  C.-L. Cheng,  
 Siu Hung Chien,  D. M. Chipman,  D. L. Crittenden,  H. Dachsel,  
 R. J. Doerksen,  A. D. Dutoi,  L. Fusti-Molnar,  W. A. Goddard III,  
 A. Golubeva-Zadorozhnaya,  S. R. Gwaltney,  G. Hawkins,  A. Heyden,  
 S. Hirata,  G. Kedziora,  F. J. Keil,  C. Kelley,  Jihan Kim,  R. A. King,  
 R. Z. Khaliullin,  P. P. Korambath,  W. Kurlancheek,  A. M. Lee,  M. S. Lee,  
 S. V. Levchenko,  Ching Yeh Lin,  D. Liotard,  R. C. Lochan,  I. Lotan,  
 P. E. Maslen,  N. Nair,  D. P. O'Neill,  D. Neuhauser,  E. Neuscamman,  
 C. M. Oana,  R. Olson,  B. Peters,  R. Peverati,  P. A. Pieniazek,  
 Y. M. Rhee,  J. Ritchie,  M. A. Rohrdanz,  E. Rosta,  N. J. Russ,  
 H. F. Schaefer III,  N. E. Schultz,  N. Shenvi,  A. C. Simmonett,  A. Sodt,  
 D. Stuck,  K. S. Thanthiriwatte,  V. Vanovschi,  Tao Wang,  A. Warshel,  
 C. F. Williams,  Q. Wu,  X. Xu,  W. Zhang

 Please cite Q-Chem as follows:
 Y. Shao et al., Mol. Phys. 113, 184-215 (2015)
 DOI: 10.1080/00268976.2014.952696

 Q-Chem 5.0.2 for Intel X86 EM64T Linux

 Parts of Q-Chem use Armadillo 5.200.1 (Boston Tea Smuggler).
 http://arma.sourceforge.net/

 Q-Chem begins on Tue Mar  1 16:44:11 2022  

Host: 
0

     Scratch files written to ./irc_reactant.d//
 Dec517 15110_ 26548  26544 5633   
Processing $rem in /home/leeping/opt/qchem/5.0.2-openmp/config/preferences.
 MEM_STATIC 2000
 MEM_TOTAL  8000
 SYMMETRY   OFF
 SYM_IGNORE TRUE 

Checking the input file for inconsistencies... 	...done.

--------------------------------------------------------------
User input:
--------------------------------------------------------------
$molecule
0 2
C        1.9574414626    0.2137686774   -0.5414394878
C        1.1268522648   -0.7098529817   -0.0208820526
C       -0.2822739222   -0.2060644808   -0.2157793724
C       -1.0799659679   -0.0365746372    1.0785750618
C        0.0082424147    1.1120669755   -0.9084147056
N        1.2646064231    1.3366136955   -1.0904601220
H        3.0392110647    0.1969043243   -0.5905256200
H        1.3874801330   -1.6455845939    0.4561599151
H       -0.8453393862   -0.8580668909   -0.8998990911
H       -0.6034806936    0.5890153397    1.8352503968
H       -0.7580639795    1.8143315772   -1.2263379532
C       -2.2521616108   -0.5820226153    1.3142465062
H       -2.9625482029   -1.2245343900    0.8095065250
$end

$rem
method                b3lyp
basis                 6-31+g(d,p)
unrestricted          true
symmetry              off
sym_ignore            true
incdft                false
incfock               0
scf_convergence       8
thresh                14
jobtype               sp
scf_guess             read
scf_algorithm         diis
max_scf_cycles        100
scf_final_print       1
$end

--------------------------------------------------------------
 ----------------------------------------------------------------
             Standard Nuclear Orientation (Angstroms)
    I     Atom           X                Y                Z
 ----------------------------------------------------------------
    1      C       1.9574414626     0.2137686774    -0.5414394878
    2      C       1.1268522648    -0.7098529817    -0.0208820526
    3      C      -0.2822739222    -0.2060644808    -0.2157793724
    4      C      -1.0799659679    -0.0365746372     1.0785750618
    5      C       0.0082424147     1.1120669755    -0.9084147056
    6      N       1.2646064231     1.3366136955    -1.0904601220
    7      H       3.0392110647     0.1969043243    -0.5905256200
    8      H       1.3874801330    -1.6455845939     0.4561599151
    9      H      -0.8453393862    -0.8580668909    -0.8998990911
   10      H      -0.6034806936     0.5890153397     1.8352503968
   11      H      -0.7580639795     1.8143315772    -1.2263379532
   12      C      -2.2521616108    -0.5820226153     1.3142465062
   13      H      -2.9625482029    -1.2245343900     0.8095065250
 ----------------------------------------------------------------
 Nuclear Repulsion Energy =   257.3341709561 hartrees
 There are       25 alpha and       24 beta electrons
 Requested basis set is 6-31+G(d,p)
 There are 53 shells and 163 basis functions

 Total QAlloc Memory Limit   8000 MB
 Mega-Array Size      1956 MB
 MEM_STATIC part      2000 MB

                       Distance Matrix (Angstroms)
             C (  1)   C (  2)   C (  3)   C (  4)   C (  5)   N (  6)
   C (  2)  1.346824
   C (  3)  2.301877  1.509114
   C (  4)  3.451516  2.555808  1.529834
   C (  5)  2.177381  2.314821  1.517107  2.540020
   N (  6)  1.429064  2.313223  2.353245  3.476691  1.289191
   H (  7)  1.083014  2.191762  3.366761  4.450621  3.182035  2.167509
   H (  8)  2.185693  1.082169  2.304734  3.010748  3.371795  3.361642
   H (  9)  3.022070  2.164296  1.100077  2.155054  2.147115  3.050378
   H ( 10)  3.513942  2.850673  2.223072  1.091310  2.859281  3.550836
   H ( 11)  3.225656  3.373061  2.308594  2.973567  1.086957  2.082756
   C ( 12)  4.668791  3.635470  2.522455  1.314191  3.594383  4.672412
   H ( 13)  5.300950  4.204478  3.045055  2.242267  4.151693  5.295110
             H (  7)   H (  8)   H (  9)   H ( 10)   H ( 11)   C ( 12)
   H (  8)  2.686732
   H (  9)  4.037129  2.728473
   H ( 10)  4.394012  3.295338  3.103802
   H ( 11)  4.176078  4.405131  2.693676  3.301306
   C ( 12)  5.677456  3.887733  2.637762  2.088282  3.798606
   H ( 13)  6.324689  4.384619  2.745713  3.147430  4.270728  1.082697

 
 A cutoff of  1.0D-14 yielded   1372 shell pairs
 There are     13339 function pairs
 
 -------------------------------------------------------
 OpenMP Integral Computing Module                       
 Release: version 1.0, May 2013, Q-Chem Inc. Pittsburgh 
 -------------------------------------------------------
 Integral Job Info:
 Integral job number is                      11
 Integral operator is                         1
 short-range coefficients                     0
 long-range coefficients              100000000
 Omega coefficients                           0
 if combine SR and LR in K                    0
 Integral screening is                        0
 Integral computing path is                   2
 max size of driver memory is            800000
 size of driver memory is                593474
 size of scratch memory is              2361544
 max col of scratch BK array               1296
 max len of scratch array in speh3          155
 max len of scratch index in speh4           18
 max int batch size is                      520
 min int batch size is                       52
 fixed nKL is                                52
 max L of basis functions is                  2
 order of int derivative is                   0
 number of shells is                         53
 number of basis is                         163
 number of cartesian basis is               163
 number of contracted shell pairs          1372
 number of primitive shell pairs           4564
 maxK2 (contraction) of shell pair           36
 max number of K2 of shell pair               1
 max number of CS2 of shell pair            129
 max number of PS2 of shell pair            666
 mem total for path MDJ                  530316
 -------------------------------------------------------
 Smallest overlap matrix eigenvalue = 1.36E-05

 Scale SEOQF with 1.000000e-01/1.000000e-01/1.000000e-01

 Standard Electronic Orientation quadrupole field applied
 Nucleus-field energy     =     0.0000000018 hartrees
 Guess MOs from SCF MO coefficient file
 Reading MOs from coefficient file
 Reading MOs from coefficient file
 An unrestricted hybrid HF-DFT SCF calculation will be
 performed using Pulay DIIS extrapolation
 Exchange:     0.2000 Hartree-Fock + 0.0800 Slater + 0.7200 B88
 Correlation:  0.1900 VWN1RPA + 0.8100 LYP
 Using SG-1 standard quadrature grid
 SCF converges when DIIS error is below 1.0E-08
Using Q-Chem read-in guess as SCF_GUESS READ specified.

 using 4 threads for integral computing
 -------------------------------------------------------
 OpenMP Integral computing Module                
 Release: version 1.0, May 2013, Q-Chem Inc. Pittsburgh 
 -------------------------------------------------------
 -------------------------------------------------------
 OpenMP BLAS3 based DFT computing Module                
 Release: version 1.0, May 2013, Q-Chem Inc. Pittsburgh 
 -------------------------------------------------------
 ---------------------------------------
  Cycle       Energy         DIIS Error
 ---------------------------------------
    1    -286.8706193733      3.03E-09
    2    -286.8706193734      4.19E-09 Convergence criterion met
 ---------------------------------------
 One-Electron    Energy =  -894.8971436035
 Total Coulomb   Energy =   392.2470427704
 Alpha Exchange  Energy =    -4.0139340438
 Beta  Exchange  Energy =    -3.9220843549
 DFT   Exchange  Energy =   -31.5248593766
 DFT Correlation Energy =    -2.0938117229
 Nuclear Repu.   Energy =   257.3341709579
 Nuclear Attr.   Energy = -1178.9823856485
 Kinetic         Energy =   284.0852420450
 <S^2> = 0.7602
 SCF time:  CPU 10.02 s  wall 3.83 s
 Final Alpha MO Eigenvalues
            1           2           3           4           5           6
    1 -14.3484070 -10.2416181 -10.2308579 -10.2286235 -10.2261777 -10.2234780
            7           8           9          10          11          12
    1 -10.2067553  -0.9650958  -0.8225269  -0.7621759  -0.7237658  -0.6018710
           13          14          15          16          17          18
    1  -0.5768837  -0.5638220  -0.5230422  -0.4825535  -0.4407454  -0.4232093
           19          20          21          22          23          24
    1  -0.4066755  -0.3947819  -0.3604099  -0.3040212  -0.2784874  -0.2548657
           25          26          27          28          29          30
    1  -0.2492235  -0.0548961  -0.0179786   0.0053062   0.0191552   0.0279490
 Final Beta MO Eigenvalues
            1           2           3           4           5           6
    1 -14.3483185 -10.2416169 -10.2290595 -10.2260756 -10.2251026 -10.2135690
            7           8           9          10          11          12
    1 -10.2068219  -0.9646158  -0.8157033  -0.7571856  -0.7140474  -0.5923500
           13          14          15          16          17          18
    1  -0.5682301  -0.5635985  -0.5204408  -0.4748231  -0.4318971  -0.4193258
           19          20          21          22          23          24
    1  -0.4060110  -0.3920510  -0.3576753  -0.2988745  -0.2731618  -0.2522562
           25          26          27          28          29
    1  -0.0978726  -0.0528510  -0.0099893   0.0059851   0.0205363
 SCF   energy in the final basis set = -286.87061937
 Total energy in the final basis set = -286.87061937
 
 --------------------------------------------------------------
 
                    Orbital Energies (a.u.)
 --------------------------------------------------------------
 
 Alpha MOs
 -- Occupied --
-14.348 -10.242 -10.231 -10.229 -10.226 -10.223 -10.207  -0.965
 -0.823  -0.762  -0.724  -0.602  -0.577  -0.564  -0.523  -0.483
 -0.441  -0.423  -0.407  -0.395  -0.360  -0.304  -0.278  -0.255
 -0.249
 -- Virtual --
 -0.055  -0.018   0.005   0.019   0.028   0.030   0.041   0.044
  0.046   0.062   0.070   0.076   0.087   0.092   0.101   0.106
  0.117   0.128   0.140   0.141   0.150   0.159   0.175   0.186
  0.190   0.192   0.200   0.211   0.220   0.230   0.238   0.245
  0.253   0.258   0.265   0.283   0.297   0.303   0.344   0.379
  0.393   0.434   0.446   0.460   0.601   0.648   0.655   0.662
  0.680   0.689   0.706   0.720   0.734   0.746   0.759   0.763
  0.818   0.861   0.881   0.886   0.907   0.933   0.963   0.977
  1.004   1.007   1.012   1.036   1.077   1.085   1.138   1.151
  1.202   1.209   1.258   1.272   1.341   1.362   1.399   1.427
  1.463   1.506   1.545   1.560   1.637   1.673   1.712   1.762
  1.782   1.835   1.881   1.901   1.956   1.999   2.023   2.029
  2.064   2.109   2.169   2.208   2.256   2.274   2.331   2.369
  2.406   2.418   2.459   2.485   2.501   2.504   2.552   2.572
  2.580   2.601   2.626   2.657   2.684   2.702   2.727   2.756
  2.786   2.885   2.992   3.037   3.131   3.271   3.336   3.395
  3.470   3.584   3.677   4.140   4.319   4.333   4.391   4.534
  4.587   4.747
 
 Beta MOs
 -- Occupied --
-14.348 -10.242 -10.229 -10.226 -10.225 -10.214 -10.207  -0.965
 -0.816  -0.757  -0.714  -0.592  -0.568  -0.564  -0.520  -0.475
 -0.432  -0.419  -0.406  -0.392  -0.358  -0.299  -0.273  -0.252
 -- Virtual --
 -0.098  -0.053  -0.010   0.006   0.021   0.030   0.031   0.042
  0.044   0.047   0.063   0.074   0.077   0.090   0.094   0.104
  0.109   0.117   0.128   0.140   0.142   0.151   0.164   0.176
  0.186   0.191   0.193   0.201   0.213   0.222   0.232   0.238
  0.247   0.254   0.259   0.266   0.285   0.299   0.304   0.348
  0.382   0.396   0.444   0.449   0.464   0.614   0.647   0.656
  0.675   0.687   0.696   0.716   0.728   0.736   0.754   0.761
  0.779   0.819   0.863   0.881   0.894   0.908   0.938   0.967
  0.977   1.007   1.013   1.015   1.039   1.078   1.090   1.141
  1.152   1.203   1.214   1.261   1.274   1.342   1.363   1.404
  1.428   1.464   1.508   1.558   1.583   1.662   1.710   1.730
  1.764   1.791   1.839   1.889   1.903   1.956   2.001   2.029
  2.036   2.069   2.111   2.178   2.213   2.259   2.276   2.341
  2.370   2.407   2.422   2.463   2.489   2.502   2.505   2.556
  2.576   2.587   2.603   2.628   2.670   2.686   2.706   2.729
  2.758   2.791   2.888   3.005   3.037   3.131   3.271   3.343
  3.398   3.471   3.600   3.677   4.140   4.331   4.338   4.404
  4.540   4.589   4.749
 --------------------------------------------------------------
 
          Ground-State Mulliken Net Atomic Charges

     Atom                 Charge (a.u.)    Spin (a.u.)
  --------------------------------------------------------
      1 C                    -0.147533       0.000342
      2 C                    -0.079101       0.024353
      3 C                    -0.166606       0.041255
      4 C                    -0.000954      -0.189481
      5 C                    -0.074884       0.030568
      6 N                    -0.185423       0.001371
      7 H                     0.134950       0.000192
      8 H                     0.141035       0.000068
      9 H                     0.168102      -0.004164
     10 H                     0.152805       0.039585
     11 H                     0.142088      -0.000498
     12 C                    -0.234902       1.048556
     13 H                     0.150422       0.007855
  --------------------------------------------------------
  Sum of atomic charges =     0.000000
  Sum of spin   charges =     1.000000

 -----------------------------------------------------------------
                    Cartesian Multipole Moments
 -----------------------------------------------------------------
    Charge (ESU x 10^10)
                 0.0000
    Dipole Moment (Debye)
         X      -1.0107      Y      -1.8152      Z       0.1808
       Tot       2.0854
    Quadrupole Moments (Debye-Ang)
        XX     -40.4833     XY      -2.2559     YY     -44.0646
        XZ       4.5695     YZ       2.5098     ZZ     -45.6052
    Octopole Moments (Debye-Ang^2)
       XXX      -3.0447    XXY     -16.5727    XYY     -12.4628
       YYY     -24.6119    XXZ      -2.1455    XYZ       4.0338
       YYZ       5.7921    XZZ      -3.9169    YZZ      -5.7603
       ZZZ       4.9836
    Hexadecapole Moments (Debye-Ang^3)
      XXXX    -519.5806   XXXY     -31.0664   XXYY    -134.4840
      XYYY     -66.2470   YYYY    -229.8058   XXXZ     123.3637
      XXYZ      21.6619   XYYZ      54.4917   YYYZ      66.9944
      XXZZ    -158.2236   XYZZ     -26.9718   YYZZ     -87.7164
      XZZZ     136.3178   YZZZ      74.7410   ZZZZ    -273.1882
 -----------------------------------------------------------------
 Mayer SCF Bond Order, atomic valence on the diagonal:

            1           2           3           4           5           6
    1   3.9118637   1.8049128   0.0785061  -0.0479823   0.0140004   1.0535135
    2   1.8049128   3.9096374   0.9604087   0.0550231   0.1446720  -0.1312570
    3   0.0785061   0.9604087   3.9618631   0.9903553   0.8503554   0.1652000
    4  -0.0479823   0.0550231   0.9903553   3.6645392  -0.0030034  -0.0461503
    5   0.0140004   0.1446720   0.8503554  -0.0030034   3.7409670   1.6242987
    6   1.0535135  -0.1312570   0.1652000  -0.0461503   1.6242987   2.6793793
    7   0.9823324  -0.0354837   0.0273451   0.0015297   0.0041383  -0.0337796
    8   0.0203197   0.8830961   0.0007284   0.0291701   0.0092982   0.0128445
    9  -0.0037972   0.0757860   0.8223900  -0.0550371   0.0418160   0.0204546
   10  -0.0160598   0.0636378  -0.0398729   0.8316748   0.0414934   0.0008285
   11   0.0062277   0.0303956  -0.0618260   0.0203979   0.9675937  -0.0252767
   12   0.0217125   0.0413407   0.1603776   1.9382429   0.0332176   0.0386110
   13  -0.0018221   0.0171054   0.0078954  -0.0496815   0.0130869   0.0000920
            7           8           9          10          11          12
    1   0.9823324   0.0203197  -0.0037972  -0.0160598   0.0062277   0.0217125
    2  -0.0354837   0.8830961   0.0757860   0.0636378   0.0303956   0.0413407
    3   0.0273451   0.0007284   0.8223900  -0.0398729  -0.0618260   0.1603776
    4   0.0015297   0.0291701  -0.0550371   0.8316748   0.0203979   1.9382429
    5   0.0041383   0.0092982   0.0418160   0.0414934   0.9675937   0.0332176
    6  -0.0337796   0.0128445   0.0204546   0.0008285  -0.0252767   0.0386110
    7   0.9499061   0.0005192   0.0007185   0.0000698   0.0021395   0.0003683
    8   0.0005192   0.9564217  -0.0000726  -0.0001359   0.0010071  -0.0003546
    9   0.0007185  -0.0000726   0.9393023   0.0087761   0.0001365   0.0267003
   10   0.0000698  -0.0001359   0.0087761   0.9444031  -0.0000680   0.0463234
   11   0.0021395   0.0010071   0.0001365  -0.0000680   0.9452042   0.0044728
   12   0.0003683  -0.0003546   0.0267003   0.0463234   0.0044728   3.2671733
   13   0.0000085   0.0000013   0.0014313   0.0077360   0.0000040   0.9561609
           13
    1  -0.0018221
    2   0.0171054
    3   0.0078954
    4  -0.0496815
    5   0.0130869
    6   0.0000920
    7   0.0000085
    8   0.0000013
    9   0.0014313
   10   0.0077360
   11   0.0000040
   12   0.9561609
   13   0.9520180


Archival summary:
1\1\c8-89\SP\ProcedureUnspecified\6-31+G**\166(2)\hpark21\TueMar116:44:202022TueMar116:44:202022\0\\#,ProcedureUnspecified,6-31+G**,\\0,2\C\H,1,1.10008\C,1,1.50911,2,111.124\H,3,1.08217,1,124.783,2,-65.2567,0\C,3,1.34682,1,107.277,2,114.878,0\H,5,1.08301,3,128.523,1,-179.632,0\N,5,1.42906,3,112.851,1,0.0929452,0\C,7,1.28919,5,106.342,3,0.146956,0\H,8,1.08696,7,122.223,5,179.547,0\C,1,1.52983,2,108.962,3,-127.064,0\H,10,1.09131,1,114.992,2,179.443,0\C,10,1.31419,1,124.808,2,-0.436211,0\H,12,1.0827,10,138.412,1,0.205375,0\\\@

 Total job time:  8.09s(wall), 11.95s(cpu) 
 Tue Mar  1 16:44:20 2022

        *************************************************************
        *                                                           *
        *  Thank you very much for using Q-Chem.  Have a nice day.  *
        *                                                           *
        *************************************************************


