
Running Job 1 of 1 qcirc.in
qchem qcirc.in_37663.0 ./qcirc.d/ 1
/home/leeping/opt/qchem/5.0.2-openmp/exe/qcprog.exe_s qcirc.in_37663.0 ./qcirc.d/
Check license passed

                  Welcome to Q-Chem
     A Quantum Leap Into The Future Of Chemistry


 Q-Chem 5.0, Q-Chem, Inc., Pleasanton, CA (2017)

 Yihan Shao,  Zhengting Gan,  E. Epifanovsky,  A. T. B. Gilbert,  M. Wormit,  
 J. Kussmann,  A. W. Lange,  A. Behn,  Jia Deng,  Xintian Feng,  D. Ghosh,  
 M. Goldey,  P. R. Horn,  L. D. Jacobson,  I. Kaliman,  T. Kus,  A. Landau,  
 Jie Liu,  E. I. Proynov,  R. M. Richard,  R. P. Steele,  E. J. Sundstrom,  
 H. L. Woodcock III,  P. M. Zimmerman,  D. Zuev,  B. Albrecht,  E. Alguire,  
 S. A. Baeppler,  D. Barton,  Z. Benda,  Y. A. Bernard,  E. J. Berquist,  
 K. B. Bravaya,  H. Burton,  D. Casanova,  Chun-Min Chang,  Yunqing Chen,  
 A. Chien,  K. D. Closser,  M. P. Coons,  S. Dasgupta,  A. L. Dempwolff,  
 M. Diedenhofen,  Hainam Do,  R. G. Edgar,  Po-Tung Fang,  S. Fatehi,  
 Qingguo Feng,  J. Fosso-Tande,  Qinghui Ge,  A. Ghysels,  G. Gidofalvi,  
 J. Gomes,  J. Gonthier,  A. Gunina,  M. W. D. Hanson-Heine,  
 P. H. P. Harbach,  A. W. Hauser,  J. E. Herr,  E. G. Hohenstein,  
 Z. C. Holden,  Kerwin Hui,  T.-C. Jagau,  Hyunjun Ji,  B. Kaduk,  
 K. Khistyaev,  Jaehoon Kim,  P. Klunzinger,  K. Koh,  D. Kosenkov,  
 L. Koulias,  T. Kowalczyk,  C. M. Krauter,  A. Kunitsa,  Ka Un Lao,  
 A. Laurent,  K. V. Lawler,  Joonho Lee,  D. Lefrancois,  S. Lehtola,  
 D. S. Levine,  Yi-Pei Li,  You-Sheng Lin,  Fenglai Liu,  E. Livshits,  
 A. Luenser,  P. Manohar,  E. Mansoor,  S. F. Manzer,  Shan-Ping Mao,  
 Yuezhi Mao,  N. Mardirossian,  A. V. Marenich,  T. Markovich,  
 L. A. Martinez-Martinez,  S. A. Maurer,  N. J. Mayhall,  S. C. McKenzie,  
 J.-M. Mewes,  A. F. Morrison,  J. W. Mullinax,  K. Nanda,  
 T. S. Nguyen-Beck,  R. Olivares-Amaya,  J. A. Parkhill,  T. M. Perrine,  
 F. Plasser,  S. Prager,  A. Prociuk,  E. Ramos,  D. R. Rehn,  F. Rob,  
 M. Schneider,  N. Sergueev,  S. M. Sharada,  S. Sharma,  D. W. Small,  
 T. Stauch,  T. Stein,  Yu-Chuan Su,  A. J. W. Thom,  A. Tkatchenko,  
 T. Tsuchimochi,  L. Vogt,  O. Vydrov,  M. A. Watson,  J. Wenzel,  
 M. de Wergifosse,  T. A. Wesolowski,  A. White,  J. Witte,  A. Yamada,  
 Jun Yang,  K. Yao,  S. Yeganeh,  S. R. Yost,  Zhi-Qiang You,  A. Zech,  
 Igor Ying Zhang,  Xing Zhang,  Yan Zhao,  Ying Zhu,  B. R. Brooks,  
 G. K. L. Chan,  C. J. Cramer,  M. S. Gordon,  W. J. Hehre,  A. Klamt,  
 M. W. Schmidt,  C. D. Sherrill,  D. G. Truhlar,  A. Aspuru-Guzik,  R. Baer,  
 A. T. Bell,  N. A. Besley,  Jeng-Da Chai,  R. A. DiStasio Jr.,  A. Dreuw,  
 B. D. Dunietz,  T. R. Furlani,  Chao-Ping Hsu,  Yousung Jung,  Jing Kong,  
 D. S. Lambrecht,  WanZhen Liang,  C. Ochsenfeld,  V. A. Rassolov,  
 L. V. Slipchenko,  J. E. Subotnik,  T. Van Voorhis,  J. M. Herbert,  
 A. I. Krylov,  P. M. W. Gill,  M. Head-Gordon

 Contributors to earlier versions of Q-Chem not listed above: 
 R. D. Adamson,  B. Austin,  J. Baker,  G. J. O. Beran,  K. Brandhorst,  
 S. T. Brown,  E. F. C. Byrd,  A. K. Chakraborty,  C.-L. Cheng,  
 Siu Hung Chien,  D. M. Chipman,  D. L. Crittenden,  H. Dachsel,  
 R. J. Doerksen,  A. D. Dutoi,  L. Fusti-Molnar,  W. A. Goddard III,  
 A. Golubeva-Zadorozhnaya,  S. R. Gwaltney,  G. Hawkins,  A. Heyden,  
 S. Hirata,  G. Kedziora,  F. J. Keil,  C. Kelley,  Jihan Kim,  R. A. King,  
 R. Z. Khaliullin,  P. P. Korambath,  W. Kurlancheek,  A. M. Lee,  M. S. Lee,  
 S. V. Levchenko,  Ching Yeh Lin,  D. Liotard,  R. C. Lochan,  I. Lotan,  
 P. E. Maslen,  N. Nair,  D. P. O'Neill,  D. Neuhauser,  E. Neuscamman,  
 C. M. Oana,  R. Olson,  B. Peters,  R. Peverati,  P. A. Pieniazek,  
 Y. M. Rhee,  J. Ritchie,  M. A. Rohrdanz,  E. Rosta,  N. J. Russ,  
 H. F. Schaefer III,  N. E. Schultz,  N. Shenvi,  A. C. Simmonett,  A. Sodt,  
 D. Stuck,  K. S. Thanthiriwatte,  V. Vanovschi,  Tao Wang,  A. Warshel,  
 C. F. Williams,  Q. Wu,  X. Xu,  W. Zhang

 Please cite Q-Chem as follows:
 Y. Shao et al., Mol. Phys. 113, 184-215 (2015)
 DOI: 10.1080/00268976.2014.952696

 Q-Chem 5.0.2 for Intel X86 EM64T Linux

 Parts of Q-Chem use Armadillo 5.200.1 (Boston Tea Smuggler).
 http://arma.sourceforge.net/

 Q-Chem begins on Tue Mar  1 16:32:05 2022  

Host: 
0

     Scratch files written to ./qcirc.d//
 Dec517 15110_ 26548  26544 5633   
Processing $rem in /home/leeping/opt/qchem/5.0.2-openmp/config/preferences.
 MEM_STATIC 2000
 MEM_TOTAL  8000
 SYMMETRY   OFF
 SYM_IGNORE TRUE 

Checking the input file for inconsistencies... 	...done.

--------------------------------------------------------------
User input:
--------------------------------------------------------------
$molecule
0 2
C        1.9381086319    0.2421515692   -0.4943317505
C        1.1126372135   -0.7271466435   -0.0538879285
C       -0.3009202521   -0.2428291021   -0.2667667980
C       -1.0603105823   -0.0490476609    1.0516257632
C       -0.0184269089    1.0929777895   -0.9283998087
N        1.2375483550    1.3629581273   -1.0389285092
H        3.0213608496    0.2651299074   -0.4774009689
H        1.3796893522   -1.6715787123    0.4024854251
H       -0.8786044785   -0.8968420050   -0.9348349616
H       -0.5285813328    0.5579752751    1.7859554578
H       -0.7911484074    1.7827354485   -1.2585611253
C       -2.2450655187   -0.5402014963    1.3342427405
H       -3.0123513195   -1.1493351183    0.8771785276
$end

$rem
method                b3lyp
basis                 6-31+g(d,p)
unrestricted          true
symmetry              off
sym_ignore            true
incdft                false
incfock               0
scf_convergence       8
thresh                14
jobtype               opt
scf_guess             read
scf_algorithm         diis
max_scf_cycles        100
geom_opt_max_cycles   300
$end

--------------------------------------------------------------
 ----------------------------------------------------------------
             Standard Nuclear Orientation (Angstroms)
    I     Atom           X                Y                Z
 ----------------------------------------------------------------
    1      C       1.9381086319     0.2421515692    -0.4943317505
    2      C       1.1126372135    -0.7271466435    -0.0538879285
    3      C      -0.3009202521    -0.2428291021    -0.2667667980
    4      C      -1.0603105823    -0.0490476609     1.0516257632
    5      C      -0.0184269089     1.0929777895    -0.9283998087
    6      N       1.2375483550     1.3629581273    -1.0389285092
    7      H       3.0213608496     0.2651299074    -0.4774009689
    8      H       1.3796893522    -1.6715787123     0.4024854251
    9      H      -0.8786044785    -0.8968420050    -0.9348349616
   10      H      -0.5285813328     0.5579752751     1.7859554578
   11      H      -0.7911484074     1.7827354485    -1.2585611253
   12      C      -2.2450655187    -0.5402014963     1.3342427405
   13      H      -3.0123513195    -1.1493351183     0.8771785276
 ----------------------------------------------------------------
 Nuclear Repulsion Energy =   257.7952203254 hartrees
 There are       25 alpha and       24 beta electrons
 Requested basis set is 6-31+G(d,p)
 There are 53 shells and 163 basis functions

 Total QAlloc Memory Limit   8000 MB
 Mega-Array Size      1956 MB
 MEM_STATIC part      2000 MB
 A cutoff of  1.0D-14 yielded   1372 shell pairs
 There are     13339 function pairs
 
 -------------------------------------------------------
 OpenMP Integral Computing Module                       
 Release: version 1.0, May 2013, Q-Chem Inc. Pittsburgh 
 -------------------------------------------------------
 Integral Job Info:
 Integral job number is                      11
 Integral operator is                         1
 short-range coefficients                     0
 long-range coefficients              100000000
 Omega coefficients                           0
 if combine SR and LR in K                    0
 Integral screening is                        0
 Integral computing path is                   2
 max size of driver memory is            800000
 size of driver memory is                593474
 size of scratch memory is              2361544
 max col of scratch BK array               1296
 max len of scratch array in speh3          155
 max len of scratch index in speh4           18
 max int batch size is                      520
 min int batch size is                       52
 fixed nKL is                                52
 max L of basis functions is                  2
 order of int derivative is                   0
 number of shells is                         53
 number of basis is                         163
 number of cartesian basis is               163
 number of contracted shell pairs          1372
 number of primitive shell pairs           4574
 maxK2 (contraction) of shell pair           36
 max number of K2 of shell pair               1
 max number of CS2 of shell pair            128
 max number of PS2 of shell pair            672
 mem total for path MDJ                  530316
 -------------------------------------------------------
 Smallest overlap matrix eigenvalue = 1.47E-05

 Scale SEOQF with 1.000000e-01/1.000000e-01/1.000000e-01

 Standard Electronic Orientation quadrupole field applied
 Nucleus-field energy     =     0.0000000019 hartrees
 Guess MOs from SCF MO coefficient file
 Reading MOs from coefficient file
 Reading MOs from coefficient file
 An unrestricted hybrid HF-DFT SCF calculation will be
 performed using Pulay DIIS extrapolation
 Exchange:     0.2000 Hartree-Fock + 0.0800 Slater + 0.7200 B88
 Correlation:  0.1900 VWN1RPA + 0.8100 LYP
 Using SG-1 standard quadrature grid
 SCF converges when DIIS error is below 1.0E-08
Using Q-Chem read-in guess as SCF_GUESS READ specified.

 using 4 threads for integral computing
 -------------------------------------------------------
 OpenMP Integral computing Module                
 Release: version 1.0, May 2013, Q-Chem Inc. Pittsburgh 
 -------------------------------------------------------
 -------------------------------------------------------
 OpenMP BLAS3 based DFT computing Module                
 Release: version 1.0, May 2013, Q-Chem Inc. Pittsburgh 
 -------------------------------------------------------
 ---------------------------------------
  Cycle       Energy         DIIS Error
 ---------------------------------------
    1    -278.6395406112      3.71E-02
    2    -277.8305588799      3.88E-02
    3    -274.0446385754      4.53E-02
    4    -286.3170406572      1.15E-02
    5    -286.0049001390      1.49E-02
    6    -286.8464323515      2.51E-03
    7    -286.8614707850      1.55E-03
    8    -286.8695857724      3.42E-04
    9    -286.8701833331      8.49E-05
   10    -286.8702563465      7.02E-05
   11    -286.8702948332      1.99E-05
   12    -286.8703097501      6.68E-06
   13    -286.8703139299      1.90E-06
   14    -286.8703168384      7.78E-07
   15    -286.8703181890      4.93E-07
   16    -286.8703189598      2.53E-07
   17    -286.8703191897      9.89E-08
   18    -286.8703192113      3.31E-08
   19    -286.8703192160      1.41E-08
   20    -286.8703192186      6.46E-09 Convergence criterion met
 ---------------------------------------
 <S^2> = 0.7602
 SCF time:  CPU 100.41 s  wall 48.78 s
 SCF   energy in the final basis set = -286.87031922
 Total energy in the final basis set = -286.87031922
 
 --------------------------------------------------------------
 
                    Orbital Energies (a.u.)
 --------------------------------------------------------------
 
 Alpha MOs
 -- Occupied --
-14.349 -10.242 -10.231 -10.228 -10.226 -10.224 -10.207  -0.965
 -0.822  -0.762  -0.724  -0.602  -0.577  -0.564  -0.523  -0.483
 -0.441  -0.422  -0.407  -0.393  -0.362  -0.304  -0.278  -0.255
 -0.248
 -- Virtual --
 -0.055  -0.018   0.005   0.019   0.028   0.031   0.041   0.046
  0.047   0.062   0.070   0.078   0.086   0.093   0.100   0.106
  0.117   0.126   0.140   0.141   0.151   0.159   0.177   0.186
  0.190   0.192   0.200   0.212   0.220   0.230   0.238   0.246
  0.254   0.258   0.263   0.282   0.295   0.302   0.342   0.378
  0.393   0.435   0.445   0.461   0.604   0.648   0.655   0.666
  0.679   0.691   0.705   0.723   0.735   0.747   0.761   0.763
  0.820   0.859   0.879   0.887   0.907   0.933   0.965   0.976
  1.005   1.007   1.013   1.036   1.075   1.082   1.138   1.152
  1.196   1.210   1.259   1.277   1.341   1.365   1.401   1.430
  1.457   1.513   1.545   1.565   1.635   1.676   1.721   1.758
  1.782   1.836   1.884   1.894   1.955   2.000   2.023   2.032
  2.072   2.112   2.166   2.206   2.258   2.275   2.337   2.370
  2.408   2.420   2.463   2.481   2.495   2.507   2.547   2.564
  2.580   2.604   2.623   2.658   2.686   2.699   2.725   2.764
  2.779   2.890   2.994   3.036   3.130   3.271   3.337   3.399
  3.465   3.593   3.677   4.142   4.325   4.335   4.405   4.540
  4.596   4.745
 
 Beta MOs
 -- Occupied --
-14.348 -10.242 -10.229 -10.226 -10.226 -10.213 -10.207  -0.965
 -0.815  -0.757  -0.714  -0.592  -0.568  -0.563  -0.521  -0.475
 -0.432  -0.418  -0.406  -0.391  -0.359  -0.299  -0.273  -0.252
 -- Virtual --
 -0.098  -0.052  -0.010   0.006   0.020   0.030   0.031   0.042
  0.046   0.047   0.063   0.073   0.079   0.090   0.095   0.103
  0.108   0.117   0.127   0.141   0.142   0.151   0.164   0.178
  0.186   0.191   0.193   0.201   0.214   0.222   0.232   0.238
  0.248   0.255   0.259   0.264   0.284   0.297   0.302   0.346
  0.382   0.396   0.443   0.450   0.465   0.618   0.649   0.655
  0.677   0.688   0.697   0.718   0.728   0.738   0.758   0.762
  0.778   0.821   0.860   0.879   0.894   0.907   0.939   0.969
  0.977   1.008   1.012   1.017   1.040   1.077   1.088   1.141
  1.152   1.198   1.215   1.261   1.279   1.342   1.367   1.405
  1.431   1.457   1.515   1.563   1.584   1.661   1.711   1.740
  1.759   1.794   1.838   1.890   1.898   1.956   2.002   2.030
  2.039   2.076   2.114   2.176   2.210   2.260   2.277   2.346
  2.370   2.409   2.425   2.467   2.484   2.498   2.508   2.551
  2.569   2.583   2.605   2.625   2.672   2.688   2.704   2.727
  2.766   2.784   2.892   3.007   3.036   3.130   3.271   3.344
  3.402   3.467   3.608   3.678   4.142   4.333   4.343   4.419
  4.546   4.598   4.746
 --------------------------------------------------------------
 
          Ground-State Mulliken Net Atomic Charges

     Atom                 Charge (a.u.)    Spin (a.u.)
  --------------------------------------------------------
      1 C                    -0.123037       0.000400
      2 C                    -0.116604       0.024215
      3 C                    -0.121279       0.045614
      4 C                    -0.010210      -0.190978
      5 C                    -0.091870       0.032421
      6 N                    -0.185840       0.000567
      7 H                     0.134962       0.000109
      8 H                     0.140981       0.000086
      9 H                     0.164357      -0.004503
     10 H                     0.154527       0.041122
     11 H                     0.142351      -0.000530
     12 C                    -0.239961       1.045066
     13 H                     0.151623       0.006411
  --------------------------------------------------------
  Sum of atomic charges =    -0.000000
  Sum of spin   charges =     1.000000

 -----------------------------------------------------------------
                    Cartesian Multipole Moments
 -----------------------------------------------------------------
    Charge (ESU x 10^10)
                 0.0000
    Dipole Moment (Debye)
         X      -1.0403      Y      -1.8702      Z       0.1064
       Tot       2.1427
    Quadrupole Moments (Debye-Ang)
        XX     -39.9987     XY      -2.1031     YY     -44.3718
        XZ       4.5882     YZ       2.2917     ZZ     -45.4749
    Octopole Moments (Debye-Ang^2)
       XXX      -3.4356    XXY     -16.2382    XYY     -11.7226
       YYY     -25.7854    XXZ      -1.1005    XYZ       4.1862
       YYZ       5.5254    XZZ      -3.3482    YZZ      -5.6556
       ZZZ       3.9630
    Hexadecapole Moments (Debye-Ang^3)
      XXXX    -505.4513   XXXY     -27.6500   XXYY    -133.7141
      XYYY     -66.6125   YYYY    -232.6115   XXXZ     118.4450
      XXYZ      19.4215   XYYZ      52.7022   YYYZ      65.3043
      XXZZ    -155.7797   XYZZ     -25.1497   YYZZ     -86.6318
      XZZZ     132.0559   YZZZ      71.1053   ZZZZ    -269.2409
 -----------------------------------------------------------------
 Calculating analytic gradient of the SCF energy
 Gradient of SCF Energy
            1           2           3           4           5           6
    1  -0.0001425  -0.0002153  -0.0004161   0.0003073  -0.0000201   0.0001292
    2   0.0002350  -0.0002723  -0.0000723   0.0002056  -0.0003057   0.0004724
    3   0.0001453  -0.0001369  -0.0000838   0.0003551  -0.0001519   0.0002120
            7           8           9          10          11          12
    1   0.0004146   0.0000237  -0.0001707   0.0003216  -0.0001744  -0.0003178
    2   0.0003015  -0.0002833  -0.0003029  -0.0001920  -0.0000444  -0.0002683
    3   0.0006237  -0.0002206  -0.0004053  -0.0005318  -0.0001741  -0.0002827
           13
    1   0.0002605
    2   0.0005268
    3   0.0006509
 Max gradient component =       6.509E-04
 RMS gradient           =       3.063E-04
 Gradient time:  CPU 16.46 s  wall 4.94 s
 Geometry Optimization Parameters
   NAtoms,    NIC,     NZ,  NCons,   NDum,   NFix, NCnnct, MaxDiis
       13      87       0       0       0       0       0       0


** GEOMETRY OPTIMIZATION IN DELOCALIZED INTERNAL COORDINATES **
   Searching for a Minimum

   Optimization Cycle:   1

                       Coordinates (Angstroms)
     ATOM                X               Y               Z
      1  C         1.9381086319    0.2421515692   -0.4943317505
      2  C         1.1126372135   -0.7271466435   -0.0538879285
      3  C        -0.3009202521   -0.2428291021   -0.2667667980
      4  C        -1.0603105823   -0.0490476609    1.0516257632
      5  C        -0.0184269089    1.0929777895   -0.9283998087
      6  N         1.2375483550    1.3629581273   -1.0389285092
      7  H         3.0213608496    0.2651299074   -0.4774009689
      8  H         1.3796893522   -1.6715787123    0.4024854251
      9  H        -0.8786044785   -0.8968420050   -0.9348349616
     10  H        -0.5285813328    0.5579752751    1.7859554578
     11  H        -0.7911484074    1.7827354485   -1.2585611253
     12  C        -2.2450655187   -0.5402014963    1.3342427405
     13  H        -3.0123513195   -1.1493351183    0.8771785276
   Point Group: c1    Number of degrees of freedom:    33


   Energy is   -286.870319219


 Attempting to Generate Delocalized Internal Coordinates

 33 Hessian modes will be used to form the next step
  Hessian Eigenvalues:
     0.004715    0.010094    0.012011    0.012622    0.016140    0.020124
     0.025021    0.033876    0.053230    0.065465    0.072642    0.131193
     0.159863    0.159949    0.159999    0.160000    0.160000    0.201019
     0.220000    0.228239    0.290800    0.293357    0.306011    0.337947
     0.346883    0.351454    0.355595    0.357083    0.358672    0.392459
     0.522870    0.636316    0.669147

 Minimum Search - Taking Simple RFO Step
 Searching for Lamda that Minimizes Along All modes
 Value Taken    Lamda =  -0.00032647
 Step Taken.  Stepsize is  0.151376

                             Maximum     Tolerance    Cnvgd?
         Gradient           0.003258      0.000300      NO
         Displacement       0.061498      0.001200      NO
         Energy change     *********      0.000001      NO


 New Cartesian Coordinates Obtained by Inverse Iteration

 Displacement from previous Coordinates is:  0.263766
 ----------------------------------------------------------------
             Standard Nuclear Orientation (Angstroms)
    I     Atom           X                Y                Z
 ----------------------------------------------------------------
    1      C       1.9431117877     0.2271386962    -0.5213912967
    2      C       1.1148480347    -0.7146090464    -0.0304286270
    3      C      -0.2967193971    -0.2270103548    -0.2478131621
    4      C      -1.0766934750    -0.0416939633     1.0598699155
    5      C      -0.0102697011     1.1071173387    -0.9110700743
    6      N       1.2464449877     1.3513736665    -1.0635571736
    7      H       3.0258836849     0.2279335230    -0.5430557055
    8      H       1.3787804711    -1.6538230569     0.4378008380
    9      H      -0.8696231377    -0.8808830547    -0.9188009484
   10      H      -0.5723487269     0.5778704525     1.8036629924
   11      H      -0.7796774511     1.8040726787    -1.2330276987
   12      C      -2.2545816787    -0.5604729221     1.3208949571
   13      H      -2.9952197965    -1.1900665789     0.8452920467
 ----------------------------------------------------------------
 Nuclear Repulsion Energy =   257.6018962015 hartrees
 There are       25 alpha and       24 beta electrons
 Applying Cartesian multipole field
    Component          Value
    ---------          -----
     (2,0,0)        1.00000E-11
     (0,2,0)        2.00000E-11
     (0,0,2)       -3.00000E-11
 Nucleus-field energy     =     0.0000000019 hartrees
 Requested basis set is 6-31+G(d,p)
 There are 53 shells and 163 basis functions
 A cutoff of  1.0D-14 yielded   1372 shell pairs
 There are     13339 function pairs
 Smallest overlap matrix eigenvalue = 1.40E-05
 Guess MOs from SCF MO coefficient file
 Reading MOs from coefficient file
 Reading MOs from coefficient file
 An unrestricted hybrid HF-DFT SCF calculation will be
 performed using Pulay DIIS extrapolation
 Exchange:     0.2000 Hartree-Fock + 0.0800 Slater + 0.7200 B88
 Correlation:  0.1900 VWN1RPA + 0.8100 LYP
 Using SG-1 standard quadrature grid
 SCF converges when DIIS error is below 1.0E-08
 Geometry optimization detected.  Setting ReadMinima to 0
 Setting SaveMinima to 0
Using Q-Chem read-in guess as SCF_GUESS READ specified.

 using 4 threads for integral computing
 -------------------------------------------------------
 OpenMP Integral computing Module                
 Release: version 1.0, May 2013, Q-Chem Inc. Pittsburgh 
 -------------------------------------------------------
 -------------------------------------------------------
 OpenMP BLAS3 based DFT computing Module                
 Release: version 1.0, May 2013, Q-Chem Inc. Pittsburgh 
 -------------------------------------------------------
 ---------------------------------------
  Cycle       Energy         DIIS Error
 ---------------------------------------
    1    -286.8671630620      1.13E-03
    2    -286.8704050077      8.95E-05
    3    -286.8704521431      7.22E-05
    4    -286.8704684392      2.97E-05
    5    -286.8704714016      1.34E-05
    6    -286.8704720535      5.68E-06
    7    -286.8704721669      2.31E-06
    8    -286.8704721903      5.91E-07
    9    -286.8704721954      2.85E-07
   10    -286.8704721969      8.87E-08
   11    -286.8704721973      6.00E-08
   12    -286.8704721973      3.16E-08
   13    -286.8704721974      7.39E-09 Convergence criterion met
 ---------------------------------------
 <S^2> = 0.7602
 SCF time:  CPU 64.99 s  wall 32.12 s
 SCF   energy in the final basis set = -286.87047220
 Total energy in the final basis set = -286.87047220
 
 --------------------------------------------------------------
 
                    Orbital Energies (a.u.)
 --------------------------------------------------------------
 
 Alpha MOs
 -- Occupied --
-14.349 -10.242 -10.231 -10.228 -10.226 -10.223 -10.207  -0.965
 -0.822  -0.762  -0.724  -0.601  -0.577  -0.564  -0.524  -0.483
 -0.440  -0.423  -0.407  -0.394  -0.362  -0.304  -0.278  -0.255
 -0.248
 -- Virtual --
 -0.055  -0.017   0.005   0.019   0.028   0.030   0.041   0.044
  0.047   0.062   0.070   0.077   0.087   0.093   0.101   0.106
  0.117   0.127   0.140   0.141   0.150   0.159   0.176   0.186
  0.190   0.192   0.200   0.211   0.220   0.230   0.238   0.245
  0.254   0.258   0.264   0.283   0.296   0.302   0.342   0.379
  0.393   0.435   0.445   0.461   0.602   0.648   0.655   0.665
  0.680   0.690   0.705   0.722   0.735   0.746   0.760   0.763
  0.819   0.860   0.880   0.887   0.907   0.933   0.965   0.976
  1.005   1.007   1.013   1.036   1.076   1.083   1.138   1.151
  1.202   1.208   1.261   1.276   1.339   1.364   1.400   1.430
  1.461   1.510   1.545   1.560   1.636   1.674   1.719   1.758
  1.782   1.835   1.884   1.896   1.955   2.000   2.022   2.032
  2.069   2.111   2.169   2.207   2.258   2.276   2.335   2.370
  2.406   2.420   2.461   2.482   2.494   2.504   2.552   2.571
  2.580   2.602   2.625   2.658   2.685   2.701   2.724   2.759
  2.780   2.888   2.995   3.037   3.131   3.272   3.336   3.398
  3.467   3.590   3.678   4.141   4.323   4.334   4.402   4.537
  4.591   4.746
 
 Beta MOs
 -- Occupied --
-14.348 -10.242 -10.229 -10.226 -10.225 -10.213 -10.207  -0.965
 -0.815  -0.757  -0.714  -0.592  -0.568  -0.564  -0.521  -0.475
 -0.432  -0.419  -0.406  -0.391  -0.359  -0.299  -0.273  -0.252
 -- Virtual --
 -0.097  -0.053  -0.009   0.006   0.020   0.030   0.031   0.042
  0.045   0.047   0.063   0.073   0.078   0.090   0.095   0.104
  0.109   0.117   0.128   0.141   0.141   0.151   0.164   0.177
  0.186   0.191   0.193   0.201   0.214   0.222   0.232   0.238
  0.247   0.254   0.259   0.265   0.285   0.298   0.303   0.347
  0.382   0.396   0.444   0.449   0.464   0.616   0.649   0.655
  0.676   0.688   0.696   0.718   0.728   0.737   0.755   0.761
  0.779   0.820   0.861   0.881   0.894   0.907   0.939   0.969
  0.977   1.008   1.012   1.017   1.039   1.078   1.089   1.140
  1.152   1.203   1.214   1.263   1.278   1.340   1.366   1.405
  1.430   1.461   1.512   1.557   1.584   1.662   1.710   1.737
  1.760   1.793   1.837   1.891   1.899   1.956   2.002   2.029
  2.039   2.073   2.112   2.179   2.212   2.261   2.278   2.345
  2.370   2.407   2.424   2.465   2.485   2.497   2.505   2.556
  2.576   2.585   2.603   2.626   2.672   2.687   2.705   2.726
  2.762   2.785   2.891   3.008   3.037   3.132   3.272   3.343
  3.401   3.468   3.606   3.678   4.141   4.332   4.342   4.415
  4.543   4.594   4.748
 --------------------------------------------------------------
 
          Ground-State Mulliken Net Atomic Charges

     Atom                 Charge (a.u.)    Spin (a.u.)
  --------------------------------------------------------
      1 C                    -0.135597       0.001279
      2 C                    -0.096144       0.022764
      3 C                    -0.139632       0.045793
      4 C                    -0.014977      -0.190317
      5 C                    -0.085973       0.030827
      6 N                    -0.185343       0.000812
      7 H                     0.134997       0.000147
      8 H                     0.141215       0.000087
      9 H                     0.166605      -0.004401
     10 H                     0.153694       0.040565
     11 H                     0.142506      -0.000517
     12 C                    -0.232272       1.046095
     13 H                     0.150921       0.006865
  --------------------------------------------------------
  Sum of atomic charges =     0.000000
  Sum of spin   charges =     1.000000

 -----------------------------------------------------------------
                    Cartesian Multipole Moments
 -----------------------------------------------------------------
    Charge (ESU x 10^10)
                 0.0000
    Dipole Moment (Debye)
         X      -1.0130      Y      -1.8502      Z       0.1248
       Tot       2.1131
    Quadrupole Moments (Debye-Ang)
        XX     -40.2409     XY      -2.1711     YY     -44.2047
        XZ       4.5671     YZ       2.3938     ZZ     -45.5455
    Octopole Moments (Debye-Ang^2)
       XXX      -2.4782    XXY     -16.5435    XYY     -11.9478
       YYY     -25.3528    XXZ      -1.7833    XYZ       4.0784
       YYZ       5.6915    XZZ      -3.2873    YZZ      -5.7877
       ZZZ       4.4086
    Hexadecapole Moments (Debye-Ang^3)
      XXXX    -512.9196   XXXY     -29.1026   XXYY    -134.1090
      XYYY     -66.4205   YYYY    -231.5237   XXXZ     120.5494
      XXYZ      20.3667   XYYZ      53.5084   YYYZ      66.0905
      XXZZ    -156.7549   XYZZ     -25.9991   YYZZ     -86.9914
      XZZZ     133.9555   YZZZ      72.8619   ZZZZ    -270.1179
 -----------------------------------------------------------------
 Calculating analytic gradient of the SCF energy
 Gradient of SCF Energy
            1           2           3           4           5           6
    1   0.0000602   0.0001559   0.0000043  -0.0001617  -0.0001710   0.0000056
    2  -0.0004624   0.0010490  -0.0023208   0.0002427   0.0014771  -0.0000575
    3  -0.0007035   0.0024851  -0.0047624   0.0004517   0.0026682  -0.0003803
            7           8           9          10          11          12
    1  -0.0000208   0.0000222  -0.0004910   0.0002823  -0.0000323   0.0004892
    2   0.0000244  -0.0000219  -0.0000123   0.0000242  -0.0001543   0.0001475
    3   0.0000760  -0.0000738   0.0007002  -0.0001070  -0.0002847  -0.0003866
           13
    1  -0.0001429
    2   0.0000643
    3   0.0003170
 Max gradient component =       4.762E-03
 RMS gradient           =       1.102E-03
 Gradient time:  CPU 15.98 s  wall 4.21 s
 Geometry Optimization Parameters
   NAtoms,    NIC,     NZ,  NCons,   NDum,   NFix, NCnnct, MaxDiis
       13      87       0       0       0       0       0       0

 Cartesian Hessian Update
 Hessian Updated using BFGS Update


** GEOMETRY OPTIMIZATION IN DELOCALIZED INTERNAL COORDINATES **
   Searching for a Minimum

   Optimization Cycle:   2

                       Coordinates (Angstroms)
     ATOM                X               Y               Z
      1  C         1.9431117877    0.2271386962   -0.5213912967
      2  C         1.1148480347   -0.7146090464   -0.0304286270
      3  C        -0.2967193971   -0.2270103548   -0.2478131621
      4  C        -1.0766934750   -0.0416939633    1.0598699155
      5  C        -0.0102697011    1.1071173387   -0.9110700743
      6  N         1.2464449877    1.3513736665   -1.0635571736
      7  H         3.0258836849    0.2279335230   -0.5430557055
      8  H         1.3787804711   -1.6538230569    0.4378008380
      9  H        -0.8696231377   -0.8808830547   -0.9188009484
     10  H        -0.5723487269    0.5778704525    1.8036629924
     11  H        -0.7796774511    1.8040726787   -1.2330276987
     12  C        -2.2545816787   -0.5604729221    1.3208949571
     13  H        -2.9952197965   -1.1900665789    0.8452920467
   Point Group: c1    Number of degrees of freedom:    33


   Energy is   -286.870472197

 Hessian Updated using BFGS Update

 33 Hessian modes will be used to form the next step
  Hessian Eigenvalues:
     0.004483    0.009584    0.012620    0.013004    0.017941    0.019984
     0.024376    0.033862    0.053168    0.062863    0.084212    0.131442
     0.155359    0.159873    0.159951    0.159999    0.160137    0.196747
     0.214141    0.228317    0.290843    0.293234    0.306018    0.338588
     0.347069    0.351453    0.355695    0.357095    0.358393    0.392117
     0.522832    0.636919    0.668944

 Minimum Search - Taking Simple RFO Step
 Searching for Lamda that Minimizes Along All modes
 Value Taken    Lamda =  -0.00019122
 Step Taken.  Stepsize is  0.085385

                             Maximum     Tolerance    Cnvgd?
         Gradient           0.001532      0.000300      NO
         Displacement       0.039156      0.001200      NO
         Energy change     -0.000153      0.000001      NO


 New Cartesian Coordinates Obtained by Inverse Iteration

 Displacement from previous Coordinates is:  0.154722
 ----------------------------------------------------------------
             Standard Nuclear Orientation (Angstroms)
    I     Atom           X                Y                Z
 ----------------------------------------------------------------
    1      C       1.9452976490     0.2197262581    -0.5308194683
    2      C       1.1142162923    -0.7125144815    -0.0272668496
    3      C      -0.2949385003    -0.2131529898    -0.2310375522
    4      C      -1.0869970173    -0.0320149252     1.0698905534
    5      C      -0.0044833120     1.1105982842    -0.9128262950
    6      N       1.2527725250     1.3460729064    -1.0730615996
    7      H       3.0271087438     0.2072893824    -0.5714521427
    8      H       1.3748420348    -1.6519524293     0.4420531662
    9      H      -0.8662816555    -0.8666046368    -0.9033853188
   10      H      -0.6044380683     0.5990470713     1.8186867177
   11      H      -0.7704322247     1.8148446138    -1.2265945158
   12      C      -2.2578810830    -0.5736829758     1.3171185156
   13      H      -2.9748497818    -1.2207086993     0.8270708526
 ----------------------------------------------------------------
 Nuclear Repulsion Energy =   257.4382264617 hartrees
 There are       25 alpha and       24 beta electrons
 Applying Cartesian multipole field
    Component          Value
    ---------          -----
     (2,0,0)        1.00000E-11
     (0,2,0)        2.00000E-11
     (0,0,2)       -3.00000E-11
 Nucleus-field energy     =     0.0000000019 hartrees
 Requested basis set is 6-31+G(d,p)
 There are 53 shells and 163 basis functions
 A cutoff of  1.0D-14 yielded   1372 shell pairs
 There are     13339 function pairs
 Smallest overlap matrix eigenvalue = 1.39E-05
 Guess MOs from SCF MO coefficient file
 Reading MOs from coefficient file
 Reading MOs from coefficient file
 An unrestricted hybrid HF-DFT SCF calculation will be
 performed using Pulay DIIS extrapolation
 Exchange:     0.2000 Hartree-Fock + 0.0800 Slater + 0.7200 B88
 Correlation:  0.1900 VWN1RPA + 0.8100 LYP
 Using SG-1 standard quadrature grid
 SCF converges when DIIS error is below 1.0E-08
 Geometry optimization detected.  Setting ReadMinima to 0
 Setting SaveMinima to 0
Using Q-Chem read-in guess as SCF_GUESS READ specified.

 using 4 threads for integral computing
 -------------------------------------------------------
 OpenMP Integral computing Module                
 Release: version 1.0, May 2013, Q-Chem Inc. Pittsburgh 
 -------------------------------------------------------
 -------------------------------------------------------
 OpenMP BLAS3 based DFT computing Module                
 Release: version 1.0, May 2013, Q-Chem Inc. Pittsburgh 
 -------------------------------------------------------
 ---------------------------------------
  Cycle       Energy         DIIS Error
 ---------------------------------------
    1    -286.8715296374      5.28E-04
    2    -286.8705681798      3.81E-05
    3    -286.8705812875      2.51E-05
    4    -286.8705829640      1.66E-05
    5    -286.8705838163      7.19E-06
    6    -286.8705840135      2.24E-06
    7    -286.8705840433      7.43E-07
    8    -286.8705840480      4.19E-07
    9    -286.8705840501      1.43E-07
   10    -286.8705840505      5.21E-08
   11    -286.8705840506      2.55E-08
   12    -286.8705840506      1.40E-08
   13    -286.8705840506      5.11E-09 Convergence criterion met
 ---------------------------------------
 <S^2> = 0.7602
 SCF time:  CPU 65.08 s  wall 28.83 s
 SCF   energy in the final basis set = -286.87058405
 Total energy in the final basis set = -286.87058405
 
 --------------------------------------------------------------
 
                    Orbital Energies (a.u.)
 --------------------------------------------------------------
 
 Alpha MOs
 -- Occupied --
-14.348 -10.242 -10.231 -10.228 -10.226 -10.224 -10.207  -0.965
 -0.822  -0.762  -0.724  -0.602  -0.577  -0.564  -0.523  -0.482
 -0.441  -0.423  -0.407  -0.395  -0.361  -0.304  -0.279  -0.255
 -0.249
 -- Virtual --
 -0.055  -0.018   0.005   0.019   0.028   0.030   0.041   0.044
  0.047   0.062   0.070   0.077   0.087   0.092   0.101   0.106
  0.117   0.128   0.140   0.141   0.150   0.159   0.176   0.186
  0.190   0.192   0.200   0.211   0.220   0.230   0.238   0.245
  0.253   0.257   0.265   0.283   0.296   0.303   0.343   0.379
  0.393   0.434   0.446   0.460   0.601   0.648   0.655   0.664
  0.680   0.690   0.705   0.721   0.734   0.746   0.760   0.763
  0.819   0.861   0.881   0.886   0.907   0.933   0.963   0.976
  1.005   1.007   1.012   1.036   1.076   1.085   1.138   1.151
  1.202   1.209   1.258   1.273   1.341   1.364   1.400   1.426
  1.462   1.509   1.545   1.559   1.637   1.673   1.716   1.760
  1.780   1.835   1.882   1.899   1.955   1.999   2.023   2.031
  2.067   2.110   2.169   2.207   2.258   2.273   2.333   2.369
  2.406   2.420   2.461   2.484   2.497   2.505   2.552   2.572
  2.579   2.603   2.625   2.657   2.685   2.700   2.726   2.758
  2.781   2.887   2.993   3.037   3.132   3.272   3.335   3.398
  3.469   3.586   3.678   4.141   4.321   4.333   4.395   4.535
  4.589   4.746
 
 Beta MOs
 -- Occupied --
-14.348 -10.242 -10.229 -10.226 -10.225 -10.213 -10.207  -0.965
 -0.815  -0.757  -0.714  -0.592  -0.568  -0.564  -0.521  -0.475
 -0.432  -0.419  -0.406  -0.392  -0.358  -0.299  -0.273  -0.252
 -- Virtual --
 -0.098  -0.053  -0.010   0.006   0.020   0.030   0.031   0.042
  0.044   0.047   0.063   0.073   0.078   0.090   0.094   0.104
  0.109   0.117   0.128   0.140   0.142   0.151   0.164   0.176
  0.186   0.191   0.193   0.201   0.213   0.222   0.232   0.238
  0.247   0.254   0.259   0.266   0.285   0.298   0.303   0.347
  0.382   0.396   0.444   0.449   0.463   0.614   0.648   0.655
  0.676   0.688   0.696   0.717   0.728   0.737   0.754   0.761
  0.779   0.820   0.862   0.881   0.894   0.907   0.938   0.968
  0.977   1.008   1.013   1.016   1.039   1.078   1.090   1.141
  1.152   1.204   1.214   1.261   1.275   1.342   1.366   1.404
  1.426   1.463   1.510   1.557   1.583   1.663   1.710   1.734
  1.762   1.790   1.838   1.890   1.901   1.956   2.001   2.030
  2.037   2.071   2.111   2.179   2.212   2.261   2.275   2.344
  2.370   2.407   2.424   2.464   2.487   2.499   2.506   2.555
  2.577   2.585   2.604   2.627   2.670   2.687   2.705   2.728
  2.760   2.786   2.890   3.006   3.038   3.132   3.272   3.342
  3.401   3.470   3.601   3.679   4.141   4.331   4.340   4.408
  4.541   4.591   4.748
 --------------------------------------------------------------
 
          Ground-State Mulliken Net Atomic Charges

     Atom                 Charge (a.u.)    Spin (a.u.)
  --------------------------------------------------------
      1 C                    -0.141815       0.000945
      2 C                    -0.086676       0.023487
      3 C                    -0.151365       0.042802
      4 C                    -0.007454      -0.189901
      5 C                    -0.081020       0.031883
      6 N                    -0.185722       0.001006
      7 H                     0.134898       0.000153
      8 H                     0.140956       0.000090
      9 H                     0.166825      -0.004258
     10 H                     0.153281       0.039868
     11 H                     0.142194      -0.000519
     12 C                    -0.234745       1.046994
     13 H                     0.150645       0.007450
  --------------------------------------------------------
  Sum of atomic charges =     0.000000
  Sum of spin   charges =     1.000000

 -----------------------------------------------------------------
                    Cartesian Multipole Moments
 -----------------------------------------------------------------
    Charge (ESU x 10^10)
                 0.0000
    Dipole Moment (Debye)
         X      -1.0166      Y      -1.8391      Z       0.1532
       Tot       2.1069
    Quadrupole Moments (Debye-Ang)
        XX     -40.4103     XY      -2.2121     YY     -44.0862
        XZ       4.5208     YZ       2.4543     ZZ     -45.5632
    Octopole Moments (Debye-Ang^2)
       XXX      -1.9040    XXY     -16.7124    XYY     -12.1089
       YYY     -25.2227    XXZ      -2.0631    XYZ       4.0576
       YYZ       5.7887    XZZ      -3.3589    YZZ      -5.7659
       ZZZ       4.6762
    Hexadecapole Moments (Debye-Ang^3)
      XXXX    -517.4201   XXXY     -30.0400   XXYY    -134.1533
      XYYY     -66.2572   YYYY    -231.0536   XXXZ     122.1323
      XXYZ      20.9927   XYYZ      53.8931   YYYZ      66.3804
      XXZZ    -157.3465   XYZZ     -26.4622   YYZZ     -87.2955
      XZZZ     135.0430   YZZZ      73.7144   ZZZZ    -271.3223
 -----------------------------------------------------------------
 Calculating analytic gradient of the SCF energy
 Gradient of SCF Energy
            1           2           3           4           5           6
    1   0.0000700   0.0002371   0.0004433  -0.0007676  -0.0000628  -0.0000904
    2  -0.0001987   0.0004185  -0.0012795   0.0000118   0.0001765   0.0001332
    3  -0.0000478   0.0006969  -0.0026587   0.0006946  -0.0002235   0.0005596
            7           8           9          10          11          12
    1  -0.0002737   0.0000009  -0.0000513   0.0000768   0.0000932   0.0005833
    2  -0.0000864   0.0000791   0.0004609   0.0001407   0.0000186   0.0003636
    3  -0.0001743  -0.0000900   0.0009764   0.0002347   0.0001760  -0.0001274
           13
    1  -0.0002589
    2  -0.0002381
    3  -0.0000165
 Max gradient component =       2.659E-03
 RMS gradient           =       5.816E-04
 Gradient time:  CPU 16.11 s  wall 4.95 s
 Geometry Optimization Parameters
   NAtoms,    NIC,     NZ,  NCons,   NDum,   NFix, NCnnct, MaxDiis
       13      87       0       0       0       0       0       0

 Cartesian Hessian Update
 Hessian Updated using BFGS Update


** GEOMETRY OPTIMIZATION IN DELOCALIZED INTERNAL COORDINATES **
   Searching for a Minimum

   Optimization Cycle:   3

                       Coordinates (Angstroms)
     ATOM                X               Y               Z
      1  C         1.9452976490    0.2197262581   -0.5308194683
      2  C         1.1142162923   -0.7125144815   -0.0272668496
      3  C        -0.2949385003   -0.2131529898   -0.2310375522
      4  C        -1.0869970173   -0.0320149252    1.0698905534
      5  C        -0.0044833120    1.1105982842   -0.9128262950
      6  N         1.2527725250    1.3460729064   -1.0730615996
      7  H         3.0271087438    0.2072893824   -0.5714521427
      8  H         1.3748420348   -1.6519524293    0.4420531662
      9  H        -0.8662816555   -0.8666046368   -0.9033853188
     10  H        -0.6044380683    0.5990470713    1.8186867177
     11  H        -0.7704322247    1.8148446138   -1.2265945158
     12  C        -2.2578810830   -0.5736829758    1.3171185156
     13  H        -2.9748497818   -1.2207086993    0.8270708526
   Point Group: c1    Number of degrees of freedom:    33


   Energy is   -286.870584051

 Hessian Updated using BFGS Update

 33 Hessian modes will be used to form the next step
  Hessian Eigenvalues:
     0.004476    0.008874    0.012620    0.013818    0.017783    0.020701
     0.024810    0.033897    0.052754    0.056606    0.074272    0.131337
     0.154879    0.159869    0.159951    0.160000    0.160287    0.196069
     0.214522    0.228270    0.293047    0.296031    0.306016    0.341347
     0.347391    0.351548    0.355986    0.357151    0.359727    0.392424
     0.523186    0.636058    0.669458

 Minimum Search - Taking Simple RFO Step
 Searching for Lamda that Minimizes Along All modes
 Value Taken    Lamda =  -0.00005291
 Step Taken.  Stepsize is  0.055041

                             Maximum     Tolerance    Cnvgd?
         Gradient           0.000867      0.000300      NO
         Displacement       0.027501      0.001200      NO
         Energy change     -0.000112      0.000001      NO


 New Cartesian Coordinates Obtained by Inverse Iteration

 Displacement from previous Coordinates is:  0.074037
 ----------------------------------------------------------------
             Standard Nuclear Orientation (Angstroms)
    I     Atom           X                Y                Z
 ----------------------------------------------------------------
    1      C       1.9459346250     0.2167246345    -0.5368402724
    2      C       1.1138817247    -0.7105522523    -0.0252802806
    3      C      -0.2942947949    -0.2052182482    -0.2199059882
    4      C      -1.0906581817    -0.0307132057     1.0769734463
    5      C      -0.0024454509     1.1143410679    -0.9088526442
    6      N       1.2543033093     1.3395910321    -1.0871289493
    7      H       3.0277798984     0.2001514404    -0.5831512120
    8      H       1.3735066537    -1.6483808916     0.4480893936
    9      H      -0.8621673222    -0.8579346711    -0.8982525810
   10      H      -0.6156102596     0.5998150395     1.8303925682
   11      H      -0.7678192667     1.8174078197    -1.2270971236
   12      C      -2.2604078990    -0.5798969579     1.3152155052
   13      H      -2.9680674340    -1.2283874287     0.8142142017
 ----------------------------------------------------------------
 Nuclear Repulsion Energy =   257.3613136445 hartrees
 There are       25 alpha and       24 beta electrons
 Applying Cartesian multipole field
    Component          Value
    ---------          -----
     (2,0,0)        1.00000E-11
     (0,2,0)        2.00000E-11
     (0,0,2)       -3.00000E-11
 Nucleus-field energy     =     0.0000000018 hartrees
 Requested basis set is 6-31+G(d,p)
 There are 53 shells and 163 basis functions
 A cutoff of  1.0D-14 yielded   1372 shell pairs
 There are     13339 function pairs
 Smallest overlap matrix eigenvalue = 1.38E-05
 Guess MOs from SCF MO coefficient file
 Reading MOs from coefficient file
 Reading MOs from coefficient file
 An unrestricted hybrid HF-DFT SCF calculation will be
 performed using Pulay DIIS extrapolation
 Exchange:     0.2000 Hartree-Fock + 0.0800 Slater + 0.7200 B88
 Correlation:  0.1900 VWN1RPA + 0.8100 LYP
 Using SG-1 standard quadrature grid
 SCF converges when DIIS error is below 1.0E-08
 Geometry optimization detected.  Setting ReadMinima to 0
 Setting SaveMinima to 0
Using Q-Chem read-in guess as SCF_GUESS READ specified.

 using 4 threads for integral computing
 -------------------------------------------------------
 OpenMP Integral computing Module                
 Release: version 1.0, May 2013, Q-Chem Inc. Pittsburgh 
 -------------------------------------------------------
 -------------------------------------------------------
 OpenMP BLAS3 based DFT computing Module                
 Release: version 1.0, May 2013, Q-Chem Inc. Pittsburgh 
 -------------------------------------------------------
 ---------------------------------------
  Cycle       Energy         DIIS Error
 ---------------------------------------
    1    -286.8710042126      3.86E-04
    2    -286.8706011174      2.75E-05
    3    -286.8706078856      1.95E-05
    4    -286.8706091347      8.42E-06
    5    -286.8706093672      4.58E-06
    6    -286.8706094357      2.46E-06
    7    -286.8706094576      5.23E-07
    8    -286.8706094586      2.60E-07
    9    -286.8706094590      6.19E-08
   10    -286.8706094590      1.66E-08
   11    -286.8706094590      8.30E-09 Convergence criterion met
 ---------------------------------------
 <S^2> = 0.7602
 SCF time:  CPU 55.14 s  wall 26.00 s
 SCF   energy in the final basis set = -286.87060946
 Total energy in the final basis set = -286.87060946
 
 --------------------------------------------------------------
 
                    Orbital Energies (a.u.)
 --------------------------------------------------------------
 
 Alpha MOs
 -- Occupied --
-14.348 -10.242 -10.231 -10.229 -10.226 -10.224 -10.207  -0.965
 -0.822  -0.762  -0.724  -0.602  -0.577  -0.564  -0.523  -0.482
 -0.441  -0.423  -0.407  -0.395  -0.361  -0.304  -0.279  -0.255
 -0.249
 -- Virtual --
 -0.055  -0.018   0.005   0.019   0.028   0.030   0.041   0.044
  0.046   0.062   0.070   0.077   0.087   0.092   0.101   0.106
  0.117   0.128   0.140   0.141   0.150   0.159   0.175   0.186
  0.190   0.192   0.200   0.211   0.220   0.230   0.238   0.245
  0.253   0.257   0.265   0.283   0.297   0.303   0.343   0.379
  0.393   0.434   0.446   0.460   0.601   0.648   0.655   0.663
  0.680   0.689   0.706   0.720   0.734   0.746   0.760   0.763
  0.819   0.861   0.881   0.886   0.907   0.933   0.963   0.977
  1.005   1.007   1.012   1.036   1.076   1.085   1.139   1.151
  1.201   1.209   1.259   1.271   1.342   1.362   1.399   1.427
  1.462   1.507   1.545   1.559   1.637   1.673   1.713   1.761
  1.781   1.835   1.881   1.900   1.955   1.999   2.022   2.029
  2.065   2.110   2.170   2.208   2.257   2.274   2.332   2.370
  2.406   2.418   2.459   2.485   2.500   2.505   2.552   2.572
  2.580   2.602   2.625   2.657   2.684   2.701   2.727   2.756
  2.783   2.886   2.992   3.037   3.131   3.271   3.336   3.396
  3.469   3.585   3.677   4.140   4.320   4.333   4.392   4.534
  4.587   4.747
 
 Beta MOs
 -- Occupied --
-14.348 -10.242 -10.229 -10.226 -10.225 -10.214 -10.207  -0.965
 -0.816  -0.757  -0.714  -0.592  -0.568  -0.564  -0.521  -0.475
 -0.432  -0.419  -0.406  -0.392  -0.358  -0.299  -0.273  -0.252
 -- Virtual --
 -0.098  -0.053  -0.010   0.006   0.021   0.030   0.031   0.042
  0.044   0.047   0.063   0.073   0.077   0.090   0.094   0.104
  0.109   0.117   0.128   0.140   0.142   0.151   0.164   0.176
  0.186   0.191   0.193   0.201   0.213   0.222   0.232   0.238
  0.247   0.254   0.259   0.266   0.285   0.299   0.304   0.348
  0.382   0.396   0.444   0.449   0.463   0.614   0.648   0.655
  0.675   0.687   0.696   0.716   0.728   0.736   0.754   0.761
  0.780   0.819   0.863   0.881   0.894   0.908   0.937   0.967
  0.977   1.008   1.013   1.015   1.039   1.078   1.090   1.141
  1.152   1.203   1.214   1.262   1.273   1.343   1.363   1.404
  1.427   1.463   1.509   1.557   1.583   1.663   1.710   1.731
  1.763   1.790   1.838   1.889   1.903   1.956   2.001   2.029
  2.036   2.070   2.111   2.179   2.213   2.260   2.276   2.342
  2.370   2.407   2.422   2.463   2.488   2.501   2.506   2.556
  2.576   2.587   2.603   2.627   2.670   2.687   2.705   2.729
  2.759   2.789   2.889   3.005   3.037   3.132   3.271   3.342
  3.399   3.470   3.600   3.678   4.140   4.331   4.338   4.405
  4.540   4.589   4.748
 --------------------------------------------------------------
 
          Ground-State Mulliken Net Atomic Charges

     Atom                 Charge (a.u.)    Spin (a.u.)
  --------------------------------------------------------
      1 C                    -0.146450       0.000533
      2 C                    -0.079732       0.024129
      3 C                    -0.163534       0.041275
      4 C                    -0.001331      -0.189493
      5 C                    -0.076840       0.031436
      6 N                    -0.185516       0.001273
      7 H                     0.134909       0.000162
      8 H                     0.140935       0.000083
      9 H                     0.167593      -0.004176
     10 H                     0.152967       0.039468
     11 H                     0.142100      -0.000514
     12 C                    -0.235507       1.048080
     13 H                     0.150407       0.007744
  --------------------------------------------------------
  Sum of atomic charges =    -0.000000
  Sum of spin   charges =     1.000000

 -----------------------------------------------------------------
                    Cartesian Multipole Moments
 -----------------------------------------------------------------
    Charge (ESU x 10^10)
                -0.0000
    Dipole Moment (Debye)
         X      -1.0137      Y      -1.8209      Z       0.1786
       Tot       2.0917
    Quadrupole Moments (Debye-Ang)
        XX     -40.4793     XY      -2.2232     YY     -44.0399
        XZ       4.5552     YZ       2.5036     ZZ     -45.6071
    Octopole Moments (Debye-Ang^2)
       XXX      -1.6439    XXY     -16.6603    XYY     -12.0549
       YYY     -25.0089    XXZ      -2.1766    XYZ       4.0404
       YYZ       5.8181    XZZ      -3.4341    YZZ      -5.8099
       ZZZ       4.9287
    Hexadecapole Moments (Debye-Ang^3)
      XXXX    -519.2038   XXXY     -30.4392   XXYY    -134.1460
      XYYY     -66.0238   YYYY    -230.3592   XXXZ     123.2866
      XXYZ      21.4459   XYYZ      54.2667   YYYZ      66.7684
      XXZZ    -157.9149   XYZZ     -26.8199   YYZZ     -87.6297
      XZZZ     135.9841   YZZZ      74.4613   ZZZZ    -272.7217
 -----------------------------------------------------------------
 Calculating analytic gradient of the SCF energy
 Gradient of SCF Energy
            1           2           3           4           5           6
    1  -0.0000159  -0.0001175   0.0003892  -0.0003620   0.0000958  -0.0000266
    2   0.0003881  -0.0001110  -0.0003987   0.0003294   0.0002299  -0.0003029
    3   0.0007132  -0.0004785  -0.0010233   0.0004967   0.0005488  -0.0005093
            7           8           9          10          11          12
    1  -0.0000467   0.0000023  -0.0000104  -0.0000526   0.0000383   0.0001229
    2  -0.0000222  -0.0000119  -0.0000617   0.0000044  -0.0000014   0.0000395
    3  -0.0000752  -0.0000912   0.0004949   0.0000783  -0.0000003  -0.0001448
           13
    1  -0.0000169
    2  -0.0000816
    3  -0.0000093
 Max gradient component =       1.023E-03
 RMS gradient           =       3.119E-04
 Gradient time:  CPU 15.83 s  wall 4.31 s
 Geometry Optimization Parameters
   NAtoms,    NIC,     NZ,  NCons,   NDum,   NFix, NCnnct, MaxDiis
       13      87       0       0       0       0       0       0

 Cartesian Hessian Update
 Hessian Updated using BFGS Update


** GEOMETRY OPTIMIZATION IN DELOCALIZED INTERNAL COORDINATES **
   Searching for a Minimum

   Optimization Cycle:   4

                       Coordinates (Angstroms)
     ATOM                X               Y               Z
      1  C         1.9459346250    0.2167246345   -0.5368402724
      2  C         1.1138817247   -0.7105522523   -0.0252802806
      3  C        -0.2942947949   -0.2052182482   -0.2199059882
      4  C        -1.0906581817   -0.0307132057    1.0769734463
      5  C        -0.0024454509    1.1143410679   -0.9088526442
      6  N         1.2543033093    1.3395910321   -1.0871289493
      7  H         3.0277798984    0.2001514404   -0.5831512120
      8  H         1.3735066537   -1.6483808916    0.4480893936
      9  H        -0.8621673222   -0.8579346711   -0.8982525810
     10  H        -0.6156102596    0.5998150395    1.8303925682
     11  H        -0.7678192667    1.8174078197   -1.2270971236
     12  C        -2.2604078990   -0.5798969579    1.3152155052
     13  H        -2.9680674340   -1.2283874287    0.8142142017
   Point Group: c1    Number of degrees of freedom:    33


   Energy is   -286.870609459

 Hessian Updated using BFGS Update

 33 Hessian modes will be used to form the next step
  Hessian Eigenvalues:
     0.004553    0.007179    0.012614    0.013401    0.017597    0.024138
     0.031446    0.033794    0.053366    0.054982    0.070211    0.132479
     0.155708    0.159631    0.159890    0.159960    0.160006    0.198478
     0.215407    0.228444    0.283905    0.293475    0.306372    0.335377
     0.346988    0.351435    0.355649    0.357062    0.358584    0.392504
     0.522947    0.634845    0.669050

 Minimum Search - Taking Simple RFO Step
 Searching for Lamda that Minimizes Along All modes
 Value Taken    Lamda =  -0.00001945
 Step Taken.  Stepsize is  0.033115

                             Maximum     Tolerance    Cnvgd?
         Gradient           0.000535      0.000300      NO
         Displacement       0.015863      0.001200      NO
         Energy change     -0.000025      0.000001      NO


 New Cartesian Coordinates Obtained by Inverse Iteration

 Displacement from previous Coordinates is:  0.039430
 ----------------------------------------------------------------
             Standard Nuclear Orientation (Angstroms)
    I     Atom           X                Y                Z
 ----------------------------------------------------------------
    1      C       1.9460979361     0.2144503032    -0.5430108904
    2      C       1.1148994563    -0.7082398896    -0.0215887614
    3      C      -0.2936333264    -0.2027981368    -0.2147685807
    4      C      -1.0916234705    -0.0325691609     1.0796599049
    5      C      -0.0026157785     1.1145858239    -0.9081417761
    6      N       1.2539253697     1.3389431003    -1.0894716245
    7      H       3.0279874918     0.1969599018    -0.5921197017
    8      H       1.3751026006    -1.6439806884     0.4557786284
    9      H      -0.8579226375    -0.8551455920    -0.8979747673
   10      H      -0.6176825265     0.5951369741     1.8358213748
   11      H      -0.7685176799     1.8171949388    -1.2264432506
   12      C      -2.2627757829    -0.5812332199     1.3135807071
   13      H      -2.9693060502    -1.2263569760     0.8070548010
 ----------------------------------------------------------------
 Nuclear Repulsion Energy =   257.3351335262 hartrees
 There are       25 alpha and       24 beta electrons
 Applying Cartesian multipole field
    Component          Value
    ---------          -----
     (2,0,0)        1.00000E-11
     (0,2,0)        2.00000E-11
     (0,0,2)       -3.00000E-11
 Nucleus-field energy     =     0.0000000018 hartrees
 Requested basis set is 6-31+G(d,p)
 There are 53 shells and 163 basis functions
 A cutoff of  1.0D-14 yielded   1372 shell pairs
 There are     13339 function pairs
 Smallest overlap matrix eigenvalue = 1.36E-05
 Guess MOs from SCF MO coefficient file
 Reading MOs from coefficient file
 Reading MOs from coefficient file
 An unrestricted hybrid HF-DFT SCF calculation will be
 performed using Pulay DIIS extrapolation
 Exchange:     0.2000 Hartree-Fock + 0.0800 Slater + 0.7200 B88
 Correlation:  0.1900 VWN1RPA + 0.8100 LYP
 Using SG-1 standard quadrature grid
 SCF converges when DIIS error is below 1.0E-08
 Geometry optimization detected.  Setting ReadMinima to 0
 Setting SaveMinima to 0
Using Q-Chem read-in guess as SCF_GUESS READ specified.

 using 4 threads for integral computing
 -------------------------------------------------------
 OpenMP Integral computing Module                
 Release: version 1.0, May 2013, Q-Chem Inc. Pittsburgh 
 -------------------------------------------------------
 -------------------------------------------------------
 OpenMP BLAS3 based DFT computing Module                
 Release: version 1.0, May 2013, Q-Chem Inc. Pittsburgh 
 -------------------------------------------------------
 ---------------------------------------
  Cycle       Energy         DIIS Error
 ---------------------------------------
    1    -286.8707107826      1.74E-04
    2    -286.8706154199      1.59E-05
    3    -286.8706162484      1.67E-05
    4    -286.8706171240      6.29E-06
    5    -286.8706172419      2.92E-06
    6    -286.8706172713      8.64E-07
    7    -286.8706172747      3.47E-07
    8    -286.8706172754      1.21E-07
    9    -286.8706172756      4.34E-08
   10    -286.8706172757      1.84E-08
   11    -286.8706172757      1.02E-08
   12    -286.8706172757      5.02E-09 Convergence criterion met
 ---------------------------------------
 <S^2> = 0.7602
 SCF time:  CPU 60.13 s  wall 27.67 s
 SCF   energy in the final basis set = -286.87061728
 Total energy in the final basis set = -286.87061728
 
 --------------------------------------------------------------
 
                    Orbital Energies (a.u.)
 --------------------------------------------------------------
 
 Alpha MOs
 -- Occupied --
-14.348 -10.242 -10.231 -10.229 -10.226 -10.224 -10.207  -0.965
 -0.823  -0.762  -0.724  -0.602  -0.577  -0.564  -0.523  -0.482
 -0.441  -0.423  -0.407  -0.395  -0.360  -0.304  -0.278  -0.255
 -0.249
 -- Virtual --
 -0.055  -0.018   0.005   0.019   0.028   0.030   0.041   0.044
  0.046   0.062   0.070   0.076   0.087   0.092   0.101   0.106
  0.117   0.128   0.140   0.141   0.150   0.159   0.175   0.186
  0.190   0.192   0.200   0.211   0.220   0.230   0.238   0.245
  0.253   0.258   0.265   0.283   0.297   0.303   0.344   0.379
  0.393   0.434   0.446   0.460   0.601   0.648   0.655   0.662
  0.680   0.689   0.706   0.720   0.734   0.746   0.760   0.763
  0.818   0.861   0.881   0.886   0.907   0.933   0.963   0.977
  1.004   1.007   1.012   1.036   1.077   1.085   1.138   1.151
  1.202   1.209   1.258   1.271   1.340   1.362   1.399   1.427
  1.463   1.506   1.545   1.560   1.637   1.673   1.712   1.762
  1.782   1.836   1.881   1.901   1.956   1.999   2.023   2.029
  2.065   2.109   2.169   2.208   2.256   2.274   2.331   2.369
  2.406   2.417   2.459   2.485   2.500   2.504   2.553   2.572
  2.580   2.601   2.626   2.657   2.684   2.701   2.727   2.756
  2.785   2.885   2.992   3.037   3.131   3.271   3.336   3.395
  3.470   3.584   3.677   4.140   4.319   4.333   4.391   4.534
  4.586   4.747
 
 Beta MOs
 -- Occupied --
-14.348 -10.242 -10.229 -10.226 -10.225 -10.214 -10.207  -0.965
 -0.816  -0.757  -0.714  -0.592  -0.568  -0.564  -0.520  -0.475
 -0.432  -0.419  -0.406  -0.392  -0.358  -0.299  -0.273  -0.252
 -- Virtual --
 -0.098  -0.053  -0.010   0.006   0.021   0.030   0.031   0.042
  0.044   0.047   0.063   0.073   0.077   0.090   0.094   0.104
  0.109   0.117   0.128   0.140   0.142   0.151   0.164   0.176
  0.186   0.191   0.193   0.201   0.213   0.222   0.232   0.238
  0.247   0.254   0.259   0.266   0.285   0.299   0.304   0.348
  0.382   0.396   0.444   0.449   0.463   0.613   0.648   0.656
  0.674   0.687   0.696   0.716   0.728   0.736   0.754   0.761
  0.780   0.819   0.863   0.881   0.894   0.908   0.937   0.967
  0.977   1.007   1.013   1.015   1.039   1.078   1.090   1.141
  1.152   1.203   1.214   1.261   1.273   1.341   1.364   1.404
  1.428   1.464   1.508   1.558   1.583   1.662   1.710   1.730
  1.764   1.791   1.839   1.889   1.903   1.956   2.001   2.029
  2.035   2.069   2.111   2.179   2.213   2.259   2.276   2.341
  2.369   2.407   2.422   2.463   2.489   2.502   2.506   2.556
  2.576   2.587   2.603   2.628   2.670   2.686   2.705   2.729
  2.758   2.790   2.888   3.005   3.037   3.131   3.271   3.343
  3.398   3.471   3.600   3.677   4.140   4.331   4.338   4.404
  4.540   4.589   4.749
 --------------------------------------------------------------
 
          Ground-State Mulliken Net Atomic Charges

     Atom                 Charge (a.u.)    Spin (a.u.)
  --------------------------------------------------------
      1 C                    -0.147796       0.000472
      2 C                    -0.078384       0.024208
      3 C                    -0.166912       0.041021
      4 C                    -0.000291      -0.189406
      5 C                    -0.075111       0.030869
      6 N                    -0.185481       0.001306
      7 H                     0.134966       0.000192
      8 H                     0.141010       0.000074
      9 H                     0.168019      -0.004146
     10 H                     0.152816       0.039376
     11 H                     0.142059      -0.000507
     12 C                    -0.235238       1.048667
     13 H                     0.150343       0.007874
  --------------------------------------------------------
  Sum of atomic charges =     0.000000
  Sum of spin   charges =     1.000000

 -----------------------------------------------------------------
                    Cartesian Multipole Moments
 -----------------------------------------------------------------
    Charge (ESU x 10^10)
                -0.0000
    Dipole Moment (Debye)
         X      -1.0114      Y      -1.8151      Z       0.1826
       Tot       2.0858
    Quadrupole Moments (Debye-Ang)
        XX     -40.4841     XY      -2.2409     YY     -44.0642
        XZ       4.5642     YZ       2.5127     ZZ     -45.5988
    Octopole Moments (Debye-Ang^2)
       XXX      -1.5899    XXY     -16.6194    XYY     -12.0113
       YYY     -24.9058    XXZ      -2.2738    XYZ       4.0048
       YYZ       5.8159    XZZ      -3.4082    YZZ      -5.8288
       ZZZ       4.9971
    Hexadecapole Moments (Debye-Ang^3)
      XXXX    -519.7640   XXXY     -30.5975   XXYY    -134.2603
      XYYY     -65.9969   YYYY    -230.1450   XXXZ     123.5825
      XXYZ      21.6033   XYYZ      54.4482   YYYZ      66.9656
      XXZZ    -158.0960   XYZZ     -26.9250   YYZZ     -87.7317
      XZZZ     136.2697   YZZZ      74.7138   ZZZZ    -273.0827
 -----------------------------------------------------------------
 Calculating analytic gradient of the SCF energy
 Gradient of SCF Energy
            1           2           3           4           5           6
    1  -0.0000322  -0.0001736   0.0001972   0.0001317  -0.0000270   0.0000372
    2  -0.0001163  -0.0000067   0.0001855   0.0001938  -0.0001963   0.0001711
    3  -0.0003277  -0.0001056   0.0001232   0.0003076  -0.0000855   0.0003037
            7           8           9          10          11          12
    1   0.0000897   0.0000208  -0.0000840  -0.0000778  -0.0000172  -0.0001677
    2   0.0000333  -0.0000042  -0.0001157  -0.0000533  -0.0000041  -0.0001340
    3   0.0000513   0.0000425  -0.0000446  -0.0000811  -0.0000762  -0.0001166
           13
    1   0.0001028
    2   0.0000468
    3   0.0000091
 Max gradient component =       3.277E-04
 RMS gradient           =       1.341E-04
 Gradient time:  CPU 15.99 s  wall 4.43 s
 Geometry Optimization Parameters
   NAtoms,    NIC,     NZ,  NCons,   NDum,   NFix, NCnnct, MaxDiis
       13      87       0       0       0       0       0       0

 Cartesian Hessian Update
 Hessian Updated using BFGS Update


** GEOMETRY OPTIMIZATION IN DELOCALIZED INTERNAL COORDINATES **
   Searching for a Minimum

   Optimization Cycle:   5

                       Coordinates (Angstroms)
     ATOM                X               Y               Z
      1  C         1.9460979361    0.2144503032   -0.5430108904
      2  C         1.1148994563   -0.7082398896   -0.0215887614
      3  C        -0.2936333264   -0.2027981368   -0.2147685807
      4  C        -1.0916234705   -0.0325691609    1.0796599049
      5  C        -0.0026157785    1.1145858239   -0.9081417761
      6  N         1.2539253697    1.3389431003   -1.0894716245
      7  H         3.0279874918    0.1969599018   -0.5921197017
      8  H         1.3751026006   -1.6439806884    0.4557786284
      9  H        -0.8579226375   -0.8551455920   -0.8979747673
     10  H        -0.6176825265    0.5951369741    1.8358213748
     11  H        -0.7685176799    1.8171949388   -1.2264432506
     12  C        -2.2627757829   -0.5812332199    1.3135807071
     13  H        -2.9693060502   -1.2263569760    0.8070548010
   Point Group: c1    Number of degrees of freedom:    33


   Energy is   -286.870617276

 Hessian Updated using BFGS Update

 33 Hessian modes will be used to form the next step
  Hessian Eigenvalues:
     0.004500    0.006873    0.012642    0.013836    0.017616    0.024148
     0.033732    0.042965    0.052666    0.057192    0.067745    0.125739
     0.155019    0.159573    0.159932    0.160003    0.160095    0.195392
     0.210081    0.228529    0.277402    0.293873    0.305975    0.338234
     0.347830    0.351540    0.356102    0.357148    0.360072    0.392075
     0.523180    0.635607    0.669318

 Minimum Search - Taking Simple RFO Step
 Searching for Lamda that Minimizes Along All modes
 Value Taken    Lamda =  -0.00000345
 Step Taken.  Stepsize is  0.009766

                             Maximum     Tolerance    Cnvgd?
         Gradient           0.000352      0.000300      NO
         Displacement       0.004759      0.001200      NO
         Energy change     -0.000008      0.000001      NO


 New Cartesian Coordinates Obtained by Inverse Iteration

 Displacement from previous Coordinates is:  0.014204
 ----------------------------------------------------------------
             Standard Nuclear Orientation (Angstroms)
    I     Atom           X                Y                Z
 ----------------------------------------------------------------
    1      C       1.9461108673     0.2154841615    -0.5417951909
    2      C       1.1153642980    -0.7078914852    -0.0209826795
    3      C      -0.2935973614    -0.2037490288    -0.2157755584
    4      C      -1.0912237842    -0.0338137316     1.0786676156
    5      C      -0.0030381431     1.1141123567    -0.9086843208
    6      N       1.2533834812     1.3385088912    -1.0906623183
    7      H       3.0279038260     0.1984611795    -0.5908586713
    8      H       1.3758934887    -1.6435509939     0.4562909081
    9      H      -0.8571563104    -0.8558167946    -0.8995511289
   10      H      -0.6151234138     0.5920665846     1.8352140996
   11      H      -0.7691823756     1.8169103861    -1.2258617925
   12      C      -2.2630838924    -0.5802742351     1.3138860663
   13      H      -2.9723150783    -1.2234999118     0.8084890344
 ----------------------------------------------------------------
 Nuclear Repulsion Energy =   257.3378683464 hartrees
 There are       25 alpha and       24 beta electrons
 Applying Cartesian multipole field
    Component          Value
    ---------          -----
     (2,0,0)        1.00000E-11
     (0,2,0)        2.00000E-11
     (0,0,2)       -3.00000E-11
 Nucleus-field energy     =     0.0000000018 hartrees
 Requested basis set is 6-31+G(d,p)
 There are 53 shells and 163 basis functions
 A cutoff of  1.0D-14 yielded   1372 shell pairs
 There are     13339 function pairs
 Smallest overlap matrix eigenvalue = 1.36E-05
 Guess MOs from SCF MO coefficient file
 Reading MOs from coefficient file
 Reading MOs from coefficient file
 An unrestricted hybrid HF-DFT SCF calculation will be
 performed using Pulay DIIS extrapolation
 Exchange:     0.2000 Hartree-Fock + 0.0800 Slater + 0.7200 B88
 Correlation:  0.1900 VWN1RPA + 0.8100 LYP
 Using SG-1 standard quadrature grid
 SCF converges when DIIS error is below 1.0E-08
 Geometry optimization detected.  Setting ReadMinima to 0
 Setting SaveMinima to 0
Using Q-Chem read-in guess as SCF_GUESS READ specified.

 using 4 threads for integral computing
 -------------------------------------------------------
 OpenMP Integral computing Module                
 Release: version 1.0, May 2013, Q-Chem Inc. Pittsburgh 
 -------------------------------------------------------
 -------------------------------------------------------
 OpenMP BLAS3 based DFT computing Module                
 Release: version 1.0, May 2013, Q-Chem Inc. Pittsburgh 
 -------------------------------------------------------
 ---------------------------------------
  Cycle       Energy         DIIS Error
 ---------------------------------------
    1    -286.8705709002      5.21E-05
    2    -286.8706190143      4.04E-06
    3    -286.8706191410      3.34E-06
    4    -286.8706191789      1.58E-06
    5    -286.8706191887      6.08E-07
    6    -286.8706191907      2.53E-07
    7    -286.8706191910      1.43E-07
    8    -286.8706191912      4.64E-08
    9    -286.8706191912      1.58E-08
   10    -286.8706191912      4.96E-09 Convergence criterion met
 ---------------------------------------
 <S^2> = 0.7602
 SCF time:  CPU 49.79 s  wall 26.63 s
 SCF   energy in the final basis set = -286.87061919
 Total energy in the final basis set = -286.87061919
 
 --------------------------------------------------------------
 
                    Orbital Energies (a.u.)
 --------------------------------------------------------------
 
 Alpha MOs
 -- Occupied --
-14.348 -10.242 -10.231 -10.229 -10.226 -10.223 -10.207  -0.965
 -0.823  -0.762  -0.724  -0.602  -0.577  -0.564  -0.523  -0.483
 -0.441  -0.423  -0.407  -0.395  -0.360  -0.304  -0.278  -0.255
 -0.249
 -- Virtual --
 -0.055  -0.018   0.005   0.019   0.028   0.030   0.041   0.044
  0.046   0.062   0.070   0.076   0.087   0.092   0.101   0.106
  0.117   0.128   0.140   0.141   0.150   0.159   0.175   0.186
  0.190   0.192   0.200   0.211   0.220   0.230   0.238   0.245
  0.253   0.258   0.265   0.283   0.297   0.303   0.344   0.379
  0.393   0.434   0.446   0.460   0.601   0.648   0.655   0.662
  0.680   0.689   0.706   0.720   0.734   0.746   0.759   0.763
  0.818   0.861   0.881   0.886   0.907   0.933   0.963   0.977
  1.004   1.007   1.012   1.036   1.077   1.085   1.138   1.151
  1.202   1.209   1.258   1.272   1.341   1.362   1.399   1.427
  1.463   1.506   1.545   1.560   1.637   1.673   1.712   1.762
  1.782   1.836   1.881   1.901   1.956   1.999   2.023   2.029
  2.064   2.109   2.169   2.208   2.257   2.274   2.331   2.369
  2.406   2.417   2.459   2.485   2.500   2.504   2.552   2.572
  2.580   2.601   2.626   2.657   2.684   2.701   2.727   2.756
  2.785   2.885   2.992   3.037   3.131   3.271   3.336   3.395
  3.470   3.584   3.677   4.140   4.319   4.333   4.391   4.534
  4.587   4.747
 
 Beta MOs
 -- Occupied --
-14.348 -10.242 -10.229 -10.226 -10.225 -10.214 -10.207  -0.965
 -0.816  -0.757  -0.714  -0.592  -0.568  -0.564  -0.520  -0.475
 -0.432  -0.419  -0.406  -0.392  -0.358  -0.299  -0.273  -0.252
 -- Virtual --
 -0.098  -0.053  -0.010   0.006   0.021   0.030   0.031   0.042
  0.044   0.047   0.063   0.074   0.077   0.090   0.094   0.104
  0.109   0.117   0.128   0.140   0.142   0.151   0.164   0.176
  0.186   0.191   0.193   0.201   0.213   0.222   0.232   0.238
  0.247   0.254   0.259   0.266   0.285   0.299   0.304   0.348
  0.382   0.396   0.444   0.449   0.463   0.614   0.647   0.656
  0.674   0.687   0.696   0.716   0.728   0.736   0.754   0.761
  0.780   0.819   0.863   0.881   0.894   0.908   0.938   0.967
  0.977   1.007   1.013   1.015   1.039   1.078   1.090   1.141
  1.152   1.203   1.214   1.261   1.274   1.342   1.363   1.404
  1.428   1.464   1.508   1.558   1.583   1.662   1.710   1.730
  1.764   1.791   1.839   1.889   1.903   1.956   2.001   2.029
  2.036   2.069   2.111   2.178   2.213   2.259   2.276   2.341
  2.370   2.407   2.422   2.463   2.489   2.502   2.505   2.556
  2.576   2.587   2.603   2.628   2.670   2.686   2.705   2.729
  2.758   2.790   2.888   3.005   3.037   3.131   3.271   3.343
  3.398   3.471   3.600   3.677   4.140   4.331   4.338   4.404
  4.540   4.589   4.749
 --------------------------------------------------------------
 
          Ground-State Mulliken Net Atomic Charges

     Atom                 Charge (a.u.)    Spin (a.u.)
  --------------------------------------------------------
      1 C                    -0.147571       0.000413
      2 C                    -0.079014       0.024274
      3 C                    -0.166572       0.041208
      4 C                    -0.000931      -0.189441
      5 C                    -0.074877       0.030664
      6 N                    -0.185458       0.001338
      7 H                     0.134958       0.000190
      8 H                     0.141037       0.000071
      9 H                     0.168074      -0.004159
     10 H                     0.152814       0.039507
     11 H                     0.142095      -0.000503
     12 C                    -0.234943       1.048574
     13 H                     0.150390       0.007863
  --------------------------------------------------------
  Sum of atomic charges =    -0.000000
  Sum of spin   charges =     1.000000

 -----------------------------------------------------------------
                    Cartesian Multipole Moments
 -----------------------------------------------------------------
    Charge (ESU x 10^10)
                -0.0000
    Dipole Moment (Debye)
         X      -1.0102      Y      -1.8148      Z       0.1820
       Tot       2.0850
    Quadrupole Moments (Debye-Ang)
        XX     -40.4679     XY      -2.2385     YY     -44.0681
        XZ       4.5687     YZ       2.5120     ZZ     -45.6060
    Octopole Moments (Debye-Ang^2)
       XXX      -1.6452    XXY     -16.6062    XYY     -11.9841
       YYY     -24.8810    XXZ      -2.2493    XYZ       4.0117
       YYZ       5.8138    XZZ      -3.4041    YZZ      -5.8525
       ZZZ       5.0154
    Hexadecapole Moments (Debye-Ang^3)
      XXXX    -519.5175   XXXY     -30.5272   XXYY    -134.2572
      XYYY     -66.0160   YYYY    -229.9986   XXXZ     123.4685
      XXYZ      21.5823   XYYZ      54.4410   YYYZ      67.0156
      XXZZ    -158.1274   XYZZ     -26.9149   YYZZ     -87.7423
      XZZZ     136.2450   YZZZ      74.7538   ZZZZ    -273.1873
 -----------------------------------------------------------------
 Calculating analytic gradient of the SCF energy
 Gradient of SCF Energy
            1           2           3           4           5           6
    1   0.0000234  -0.0000440   0.0000666   0.0000688  -0.0000653   0.0000035
    2   0.0000014  -0.0000140   0.0000211   0.0001131  -0.0000640   0.0000214
    3  -0.0000145   0.0000239  -0.0000527   0.0001263  -0.0000299   0.0000162
            7           8           9          10          11          12
    1   0.0000109   0.0000123  -0.0000391  -0.0000079  -0.0000006  -0.0000585
    2   0.0000040  -0.0000035  -0.0000128  -0.0000331   0.0000236  -0.0000573
    3   0.0000049   0.0000023  -0.0000199  -0.0000363   0.0000256  -0.0000288
           13
    1   0.0000297
    2   0.0000002
    3  -0.0000170
 Max gradient component =       1.263E-04
 RMS gradient           =       4.217E-05
 Gradient time:  CPU 16.38 s  wall 5.02 s
 Geometry Optimization Parameters
   NAtoms,    NIC,     NZ,  NCons,   NDum,   NFix, NCnnct, MaxDiis
       13      87       0       0       0       0       0       0

 Cartesian Hessian Update
 Hessian Updated using BFGS Update


** GEOMETRY OPTIMIZATION IN DELOCALIZED INTERNAL COORDINATES **
   Searching for a Minimum

   Optimization Cycle:   6

                       Coordinates (Angstroms)
     ATOM                X               Y               Z
      1  C         1.9461108673    0.2154841615   -0.5417951909
      2  C         1.1153642980   -0.7078914852   -0.0209826795
      3  C        -0.2935973614   -0.2037490288   -0.2157755584
      4  C        -1.0912237842   -0.0338137316    1.0786676156
      5  C        -0.0030381431    1.1141123567   -0.9086843208
      6  N         1.2533834812    1.3385088912   -1.0906623183
      7  H         3.0279038260    0.1984611795   -0.5908586713
      8  H         1.3758934887   -1.6435509939    0.4562909081
      9  H        -0.8571563104   -0.8558167946   -0.8995511289
     10  H        -0.6151234138    0.5920665846    1.8352140996
     11  H        -0.7691823756    1.8169103861   -1.2258617925
     12  C        -2.2630838924   -0.5802742351    1.3138860663
     13  H        -2.9723150783   -1.2234999118    0.8084890344
   Point Group: c1    Number of degrees of freedom:    33


   Energy is   -286.870619191

 Hessian Updated using BFGS Update

 33 Hessian modes will be used to form the next step
  Hessian Eigenvalues:
     0.004423    0.006904    0.012682    0.014507    0.017652    0.024146
     0.033705    0.043408    0.053055    0.055830    0.066709    0.125566
     0.150502    0.159632    0.159887    0.159958    0.160038    0.185611
     0.203962    0.228478    0.277337    0.292746    0.306281    0.335758
     0.345801    0.351456    0.355888    0.357046    0.359044    0.392580
     0.522885    0.634465    0.668951

 Minimum Search - Taking Simple RFO Step
 Searching for Lamda that Minimizes Along All modes
 Value Taken    Lamda =   0.00000000
 Step Taken.  Stepsize is  0.003102

                             Maximum     Tolerance    Cnvgd?
         Gradient           0.000130      0.000300     YES
         Displacement       0.001363      0.001200      NO
         Energy change     -0.000002      0.000001      NO


 New Cartesian Coordinates Obtained by Inverse Iteration

 Displacement from previous Coordinates is:  0.005373
 ----------------------------------------------------------------
             Standard Nuclear Orientation (Angstroms)
    I     Atom           X                Y                Z
[...]
    8      H       1.3762444101    -1.6435117186     0.4560349969
    9      H      -0.8565751091    -0.8559940156    -0.9000240093
   10      H      -0.6147164165     0.5910882150     1.8351254786
   11      H      -0.7692997024     1.8164044525    -1.2264628714
   12      C      -2.2633973337    -0.5799497400     1.3141215880
   13      H      -2.9737839258    -1.2224615147     0.8093816068
 ----------------------------------------------------------------
 Nuclear Repulsion Energy =   257.3341709548 hartrees
 There are       25 alpha and       24 beta electrons
 Applying Cartesian multipole field
    Component          Value
    ---------          -----
     (2,0,0)        1.00000E-11
     (0,2,0)        2.00000E-11
     (0,0,2)       -3.00000E-11
 Nucleus-field energy     =     0.0000000018 hartrees
 Requested basis set is 6-31+G(d,p)
 There are 53 shells and 163 basis functions
 A cutoff of  1.0D-14 yielded   1372 shell pairs
 There are     13339 function pairs
 Smallest overlap matrix eigenvalue = 1.36E-05
 Guess MOs from SCF MO coefficient file
 Reading MOs from coefficient file
 Reading MOs from coefficient file
 An unrestricted hybrid HF-DFT SCF calculation will be
 performed using Pulay DIIS extrapolation
 Exchange:     0.2000 Hartree-Fock + 0.0800 Slater + 0.7200 B88
 Correlation:  0.1900 VWN1RPA + 0.8100 LYP
 Using SG-1 standard quadrature grid
 SCF converges when DIIS error is below 1.0E-08
 Geometry optimization detected.  Setting ReadMinima to 0
 Setting SaveMinima to 0
Using Q-Chem read-in guess as SCF_GUESS READ specified.

 using 4 threads for integral computing
 -------------------------------------------------------
 OpenMP Integral computing Module                
 Release: version 1.0, May 2013, Q-Chem Inc. Pittsburgh 
 -------------------------------------------------------
 -------------------------------------------------------
 OpenMP BLAS3 based DFT computing Module                
 Release: version 1.0, May 2013, Q-Chem Inc. Pittsburgh 
 -------------------------------------------------------
 ---------------------------------------
  Cycle       Energy         DIIS Error
 ---------------------------------------
    1    -286.8706454598      1.81E-05
    2    -286.8706193463      1.60E-06
    3    -286.8706193588      1.99E-06
    4    -286.8706193718      5.83E-07
    5    -286.8706193732      2.25E-07
    6    -286.8706193734      1.44E-07
    7    -286.8706193735      5.30E-08
    8    -286.8706193735      1.06E-08
    9    -286.8706193735      6.48E-09 Convergence criterion met
 ---------------------------------------
 <S^2> = 0.7602
 SCF time:  CPU 45.02 s  wall 21.47 s
 SCF   energy in the final basis set = -286.87061937
 Total energy in the final basis set = -286.87061937
 
 --------------------------------------------------------------
 
                    Orbital Energies (a.u.)
 --------------------------------------------------------------
 
 Alpha MOs
 -- Occupied --
-14.348 -10.242 -10.231 -10.229 -10.226 -10.223 -10.207  -0.965
 -0.823  -0.762  -0.724  -0.602  -0.577  -0.564  -0.523  -0.483
 -0.441  -0.423  -0.407  -0.395  -0.360  -0.304  -0.278  -0.255
 -0.249
 -- Virtual --
 -0.055  -0.018   0.005   0.019   0.028   0.030   0.041   0.044
  0.046   0.062   0.070   0.076   0.087   0.092   0.101   0.106
  0.117   0.128   0.140   0.141   0.150   0.159   0.175   0.186
  0.190   0.192   0.200   0.211   0.220   0.230   0.238   0.245
  0.253   0.258   0.265   0.283   0.297   0.303   0.344   0.379
  0.393   0.434   0.446   0.460   0.601   0.648   0.655   0.662
  0.680   0.689   0.706   0.720   0.734   0.746   0.759   0.763
  0.818   0.861   0.881   0.886   0.907   0.933   0.963   0.977
  1.004   1.007   1.012   1.036   1.077   1.085   1.138   1.151
  1.202   1.209   1.258   1.272   1.341   1.362   1.399   1.427
  1.463   1.506   1.545   1.560   1.637   1.673   1.712   1.762
  1.782   1.835   1.881   1.901   1.956   1.999   2.023   2.029
  2.064   2.109   2.169   2.208   2.256   2.274   2.331   2.369
  2.406   2.418   2.459   2.485   2.501   2.504   2.552   2.572
  2.580   2.601   2.626   2.657   2.684   2.702   2.727   2.756
  2.786   2.885   2.992   3.037   3.131   3.271   3.336   3.395
  3.470   3.584   3.677   4.140   4.319   4.333   4.391   4.534
  4.587   4.747
 
 Beta MOs
 -- Occupied --
-14.348 -10.242 -10.229 -10.226 -10.225 -10.214 -10.207  -0.965
 -0.816  -0.757  -0.714  -0.592  -0.568  -0.564  -0.520  -0.475
 -0.432  -0.419  -0.406  -0.392  -0.358  -0.299  -0.273  -0.252
 -- Virtual --
 -0.098  -0.053  -0.010   0.006   0.021   0.030   0.031   0.042
  0.044   0.047   0.063   0.074   0.077   0.090   0.094   0.104
  0.109   0.117   0.128   0.140   0.142   0.151   0.164   0.176
  0.186   0.191   0.193   0.201   0.213   0.222   0.232   0.238
  0.247   0.254   0.259   0.266   0.285   0.299   0.304   0.348
  0.382   0.396   0.444   0.449   0.464   0.614   0.647   0.656
  0.675   0.687   0.696   0.716   0.728   0.736   0.754   0.761
  0.779   0.819   0.863   0.881   0.894   0.908   0.938   0.967
  0.977   1.007   1.013   1.015   1.039   1.078   1.090   1.141
  1.152   1.203   1.214   1.261   1.274   1.342   1.363   1.404
  1.428   1.464   1.508   1.558   1.583   1.662   1.710   1.730
  1.764   1.791   1.839   1.889   1.903   1.956   2.001   2.029
  2.036   2.069   2.111   2.178   2.213   2.259   2.276   2.341
  2.370   2.407   2.422   2.463   2.489   2.502   2.505   2.556
  2.576   2.587   2.603   2.628   2.670   2.686   2.706   2.729
  2.758   2.791   2.888   3.005   3.037   3.131   3.271   3.343
  3.398   3.471   3.600   3.677   4.140   4.331   4.338   4.404
  4.540   4.589   4.749
 --------------------------------------------------------------
 
          Ground-State Mulliken Net Atomic Charges

     Atom                 Charge (a.u.)    Spin (a.u.)
  --------------------------------------------------------
      1 C                    -0.147533       0.000383
      2 C                    -0.079102       0.024302
      3 C                    -0.166606       0.041255
      4 C                    -0.000954      -0.189473
      5 C                    -0.074884       0.030614
      6 N                    -0.185424       0.001336
      7 H                     0.134950       0.000189
      8 H                     0.141035       0.000071
      9 H                     0.168102      -0.004165
     10 H                     0.152805       0.039584
     11 H                     0.142088      -0.000502
     12 C                    -0.234902       1.048549
     13 H                     0.150422       0.007855
  --------------------------------------------------------
  Sum of atomic charges =     0.000000
  Sum of spin   charges =     1.000000

 -----------------------------------------------------------------
                    Cartesian Multipole Moments
 -----------------------------------------------------------------
    Charge (ESU x 10^10)
                 0.0000
    Dipole Moment (Debye)
         X      -1.0107      Y      -1.8152      Z       0.1808
       Tot       2.0854
    Quadrupole Moments (Debye-Ang)
        XX     -40.4606     XY      -2.2376     YY     -44.0722
        XZ       4.5676     YZ       2.5104     ZZ     -45.6053
    Octopole Moments (Debye-Ang^2)
       XXX      -1.6805    XXY     -16.6062    XYY     -11.9770
       YYY     -24.8860    XXZ      -2.2431    XYZ       4.0154
       YYZ       5.8080    XZZ      -3.4056    YZZ      -5.8554
       ZZZ       5.0006
    Hexadecapole Moments (Debye-Ang^3)
      XXXX    -519.4744   XXXY     -30.5121   XXYY    -134.2782
      XYYY     -66.0450   YYYY    -230.0110   XXXZ     123.4379
      XXYZ      21.5690   XYYZ      54.4447   YYYZ      67.0336
      XXZZ    -158.1408   XYZZ     -26.9151   YYZZ     -87.7419
      XZZZ     136.2631   YZZZ      74.7536   ZZZZ    -273.1907
 -----------------------------------------------------------------
 Calculating analytic gradient of the SCF energy
 Gradient of SCF Energy
            1           2           3           4           5           6
    1   0.0000005  -0.0000065  -0.0000136   0.0000212  -0.0000101   0.0000161
    2   0.0000141   0.0000027  -0.0000208   0.0000077  -0.0000061   0.0000092
    3   0.0000085   0.0000193  -0.0000546   0.0000467   0.0000343  -0.0000177
            7           8           9          10          11          12
    1  -0.0000081   0.0000023   0.0000006   0.0000046   0.0000018  -0.0000114
    2   0.0000045   0.0000010   0.0000088  -0.0000009  -0.0000029  -0.0000073
    3  -0.0000041  -0.0000108   0.0000031  -0.0000123  -0.0000030   0.0000115
           13
    1   0.0000028
    2  -0.0000100
    3  -0.0000207
 Max gradient component =       5.464E-05
 RMS gradient           =       1.626E-05
 Gradient time:  CPU 16.55 s  wall 5.01 s
 Geometry Optimization Parameters
   NAtoms,    NIC,     NZ,  NCons,   NDum,   NFix, NCnnct, MaxDiis
       13      87       0       0       0       0       0       0

 Cartesian Hessian Update
 Hessian Updated using BFGS Update


** GEOMETRY OPTIMIZATION IN DELOCALIZED INTERNAL COORDINATES **
   Searching for a Minimum

   Optimization Cycle:   7

                       Coordinates (Angstroms)
     ATOM                X               Y               Z
      1  C         1.9462057397    0.2158415527   -0.5415644060
      2  C         1.1156165419   -0.7077801064   -0.0210069708
      3  C        -0.2935096451   -0.2039916055   -0.2159042906
      4  C        -1.0912016908   -0.0345017619    1.0784501436
      5  C        -0.0029933082    1.1141398508   -0.9085396238
      6  N         1.2533707002    1.3386865708   -1.0905850402
      7  H         3.0279753418    0.1989771996   -0.5906505382
      8  H         1.3762444101   -1.6435117186    0.4560349969
      9  H        -0.8565751091   -0.8559940156   -0.9000240093
     10  H        -0.6147164165    0.5910882150    1.8351254786
     11  H        -0.7692997024    1.8164044525   -1.2264628714
     12  C        -2.2633973337   -0.5799497400    1.3141215880
     13  H        -2.9737839258   -1.2224615147    0.8093816068
   Point Group: c1    Number of degrees of freedom:    33


   Energy is   -286.870619373

 Hessian Updated using BFGS Update

 33 Hessian modes will be used to form the next step
  Hessian Eigenvalues:
     0.004422    0.006980    0.012819    0.014967    0.019230    0.024154
     0.033797    0.043918    0.053063    0.058338    0.065867    0.116499
     0.128438    0.157995    0.159751    0.159935    0.160136    0.178817
     0.201302    0.231504    0.277591    0.291935    0.306605    0.337968
     0.345425    0.351627    0.356180    0.357204    0.361723    0.393008
     0.522680    0.632538    0.667810

 Minimum Search - Taking Simple RFO Step
 Searching for Lamda that Minimizes Along All modes
 Value Taken    Lamda =   0.00000000
 Step Taken.  Stepsize is  0.001253

                             Maximum     Tolerance    Cnvgd?
         Gradient           0.000032      0.000300     YES
         Displacement       0.000502      0.001200     YES
         Energy change     -0.000000      0.000001     YES


                       Distance Matrix (Angstroms)
             C (  1)   C (  2)   C (  3)   C (  4)   C (  5)   N (  6)
   C (  2)  1.346824
   C (  3)  2.301877  1.509114
   C (  4)  3.451516  2.555808  1.529834
   C (  5)  2.177381  2.314821  1.517107  2.540020
   N (  6)  1.429064  2.313223  2.353245  3.476691  1.289191
   H (  7)  1.083014  2.191762  3.366761  4.450621  3.182035  2.167509
   H (  8)  2.185693  1.082169  2.304734  3.010748  3.371795  3.361642
   H (  9)  3.022070  2.164296  1.100077  2.155054  2.147115  3.050378
   H ( 10)  3.513942  2.850673  2.223072  1.091310  2.859281  3.550836
   H ( 11)  3.225656  3.373061  2.308594  2.973567  1.086957  2.082756
   C ( 12)  4.668791  3.635470  2.522455  1.314191  3.594383  4.672412
   H ( 13)  5.300950  4.204478  3.045055  2.242267  4.151693  5.295110
             H (  7)   H (  8)   H (  9)   H ( 10)   H ( 11)   C ( 12)
   H (  8)  2.686732
   H (  9)  4.037129  2.728473
   H ( 10)  4.394012  3.295338  3.103802
   H ( 11)  4.176078  4.405131  2.693676  3.301306
   C ( 12)  5.677456  3.887733  2.637762  2.088282  3.798606
   H ( 13)  6.324689  4.384619  2.745713  3.147430  4.270728  1.082697

 
 Final energy is   -286.870619373480     


 ******************************
 **  OPTIMIZATION CONVERGED  **
 ******************************

                       Coordinates (Angstroms)
     ATOM                X               Y               Z
      1  C         1.9462057397    0.2158415527   -0.5415644060
      2  C         1.1156165419   -0.7077801064   -0.0210069708
      3  C        -0.2935096451   -0.2039916055   -0.2159042906
      4  C        -1.0912016908   -0.0345017619    1.0784501436
      5  C        -0.0029933082    1.1141398508   -0.9085396238
      6  N         1.2533707002    1.3386865708   -1.0905850402
      7  H         3.0279753418    0.1989771996   -0.5906505382
      8  H         1.3762444101   -1.6435117186    0.4560349969
      9  H        -0.8565751091   -0.8559940156   -0.9000240093
     10  H        -0.6147164165    0.5910882150    1.8351254786
     11  H        -0.7692997024    1.8164044525   -1.2264628714
     12  C        -2.2633973337   -0.5799497400    1.3141215880
     13  H        -2.9737839258   -1.2224615147    0.8093816068

Z-matrix Print:
$molecule
0 2
C 
H  1 1.100077
C  1 1.509114 2 111.123915
H  3 1.082169 1 124.782959 2 -65.256727 0
C  3 1.346824 1 107.277033 2 114.877917 0
H  5 1.083014 3 128.523284 1 -179.632010 0
N  5 1.429064 3 112.850669 1 0.092945 0
C  7 1.289191 5 106.341890 3 0.146956 0
H  8 1.086957 7 122.222962 5 179.547058 0
C  1 1.529834 2 108.961768 3 -127.063792 0
H  10 1.091310 1 114.991568 2 179.443320 0
C  10 1.314191 1 124.807964 2 -0.436211 0
H  12 1.082697 10 138.411904 1 0.205375 0
$end

 
 --------------------------------------------------------------
 
                    Orbital Energies (a.u.)
 --------------------------------------------------------------
 
 Alpha MOs
 -- Occupied --
-14.348 -10.242 -10.231 -10.229 -10.226 -10.223 -10.207  -0.965
 -0.823  -0.762  -0.724  -0.602  -0.577  -0.564  -0.523  -0.483
 -0.441  -0.423  -0.407  -0.395  -0.360  -0.304  -0.278  -0.255
 -0.249
 -- Virtual --
 -0.055  -0.018   0.005   0.019   0.028   0.030   0.041   0.044
  0.046   0.062   0.070   0.076   0.087   0.092   0.101   0.106
  0.117   0.128   0.140   0.141   0.150   0.159   0.175   0.186
  0.190   0.192   0.200   0.211   0.220   0.230   0.238   0.245
  0.253   0.258   0.265   0.283   0.297   0.303   0.344   0.379
  0.393   0.434   0.446   0.460   0.601   0.648   0.655   0.662
  0.680   0.689   0.706   0.720   0.734   0.746   0.759   0.763
  0.818   0.861   0.881   0.886   0.907   0.933   0.963   0.977
  1.004   1.007   1.012   1.036   1.077   1.085   1.138   1.151
  1.202   1.209   1.258   1.272   1.341   1.362   1.399   1.427
  1.463   1.506   1.545   1.560   1.637   1.673   1.712   1.762
  1.782   1.835   1.881   1.901   1.956   1.999   2.023   2.029
  2.064   2.109   2.169   2.208   2.256   2.274   2.331   2.369
  2.406   2.418   2.459   2.485   2.501   2.504   2.552   2.572
  2.580   2.601   2.626   2.657   2.684   2.702   2.727   2.756
  2.786   2.885   2.992   3.037   3.131   3.271   3.336   3.395
  3.470   3.584   3.677   4.140   4.319   4.333   4.391   4.534
  4.587   4.747
 
 Beta MOs
 -- Occupied --
-14.348 -10.242 -10.229 -10.226 -10.225 -10.214 -10.207  -0.965
 -0.816  -0.757  -0.714  -0.592  -0.568  -0.564  -0.520  -0.475
 -0.432  -0.419  -0.406  -0.392  -0.358  -0.299  -0.273  -0.252
 -- Virtual --
 -0.098  -0.053  -0.010   0.006   0.021   0.030   0.031   0.042
  0.044   0.047   0.063   0.074   0.077   0.090   0.094   0.104
  0.109   0.117   0.128   0.140   0.142   0.151   0.164   0.176
  0.186   0.191   0.193   0.201   0.213   0.222   0.232   0.238
  0.247   0.254   0.259   0.266   0.285   0.299   0.304   0.348
  0.382   0.396   0.444   0.449   0.464   0.614   0.647   0.656
  0.675   0.687   0.696   0.716   0.728   0.736   0.754   0.761
  0.779   0.819   0.863   0.881   0.894   0.908   0.938   0.967
  0.977   1.007   1.013   1.015   1.039   1.078   1.090   1.141
  1.152   1.203   1.214   1.261   1.274   1.342   1.363   1.404
  1.428   1.464   1.508   1.558   1.583   1.662   1.710   1.730
  1.764   1.791   1.839   1.889   1.903   1.956   2.001   2.029
  2.036   2.069   2.111   2.178   2.213   2.259   2.276   2.341
  2.370   2.407   2.422   2.463   2.489   2.502   2.505   2.556
  2.576   2.587   2.603   2.628   2.670   2.686   2.706   2.729
  2.758   2.791   2.888   3.005   3.037   3.131   3.271   3.343
  3.398   3.471   3.600   3.677   4.140   4.331   4.338   4.404
  4.540   4.589   4.749
 --------------------------------------------------------------
 
          Ground-State Mulliken Net Atomic Charges

     Atom                 Charge (a.u.)    Spin (a.u.)
  --------------------------------------------------------
      1 C                    -0.147533       0.000383
      2 C                    -0.079102       0.024302
      3 C                    -0.166606       0.041255
      4 C                    -0.000954      -0.189473
      5 C                    -0.074884       0.030614
      6 N                    -0.185424       0.001336
      7 H                     0.134950       0.000189
      8 H                     0.141035       0.000071
      9 H                     0.168102      -0.004165
     10 H                     0.152805       0.039584
     11 H                     0.142088      -0.000502
     12 C                    -0.234902       1.048549
     13 H                     0.150422       0.007855
  --------------------------------------------------------
  Sum of atomic charges =     0.000000
  Sum of spin   charges =     1.000000

 -----------------------------------------------------------------
                    Cartesian Multipole Moments
 -----------------------------------------------------------------
    Charge (ESU x 10^10)
                 0.0000
    Dipole Moment (Debye)
         X      -1.0107      Y      -1.8152      Z       0.1808
       Tot       2.0854
    Quadrupole Moments (Debye-Ang)
        XX     -40.4606     XY      -2.2376     YY     -44.0722
        XZ       4.5676     YZ       2.5104     ZZ     -45.6053
    Octopole Moments (Debye-Ang^2)
       XXX      -1.6805    XXY     -16.6062    XYY     -11.9770
       YYY     -24.8860    XXZ      -2.2431    XYZ       4.0154
       YYZ       5.8080    XZZ      -3.4056    YZZ      -5.8554
       ZZZ       5.0006
    Hexadecapole Moments (Debye-Ang^3)
      XXXX    -519.4744   XXXY     -30.5121   XXYY    -134.2782
      XYYY     -66.0450   YYYY    -230.0110   XXXZ     123.4379
      XXYZ      21.5690   XYYZ      54.4447   YYYZ      67.0336
      XXZZ    -158.1408   XYZZ     -26.9151   YYZZ     -87.7419
      XZZZ     136.2631   YZZZ      74.7536   ZZZZ    -273.1907
 -----------------------------------------------------------------
Archival summary:
1\1\c8-89\OPT\ProcedureUnspecified\6-31+G**\166(2)\hpark21\TueMar116:36:382022TueMar116:36:382022\0\\#,OPT,ProcedureUnspecified,6-31+G**,\\0,2\C\H,1,1.10008\C,1,1.50911,2,111.124\H,3,1.08217,1,124.783,2,-65.2567,0\C,3,1.34682,1,107.277,2,114.878,0\H,5,1.08301,3,128.523,1,-179.632,0\N,5,1.42906,3,112.851,1,0.0929452,0\C,7,1.28919,5,106.342,3,0.146956,0\H,8,1.08696,7,122.223,5,179.547,0\C,1,1.52983,2,108.962,3,-127.064,0\H,10,1.09131,1,114.992,2,179.443,0\C,10,1.31419,1,124.808,2,-0.436211,0\H,12,1.0827,10,138.412,1,0.205375,0\\\@

 Total job time:  273.08s(wall), 563.98s(cpu) 
 Tue Mar  1 16:36:38 2022

        *************************************************************
        *                                                           *
        *  Thank you very much for using Q-Chem.  Have a nice day.  *
        *                                                           *
        *************************************************************


