
Running Job 1 of 1 qcts1.in
qchem qcts1.in_102576.0 ./qcts1.d/ 1
/home/leeping/opt/qchem/5.0.2-openmp/exe/qcprog.exe_s qcts1.in_102576.0 ./qcts1.d/
Check license passed

                  Welcome to Q-Chem
     A Quantum Leap Into The Future Of Chemistry


 Q-Chem 5.0, Q-Chem, Inc., Pleasanton, CA (2017)

 Yihan Shao,  Zhengting Gan,  E. Epifanovsky,  A. T. B. Gilbert,  M. Wormit,  
 J. Kussmann,  A. W. Lange,  A. Behn,  Jia Deng,  Xintian Feng,  D. Ghosh,  
 M. Goldey,  P. R. Horn,  L. D. Jacobson,  I. Kaliman,  T. Kus,  A. Landau,  
 Jie Liu,  E. I. Proynov,  R. M. Richard,  R. P. Steele,  E. J. Sundstrom,  
 H. L. Woodcock III,  P. M. Zimmerman,  D. Zuev,  B. Albrecht,  E. Alguire,  
 S. A. Baeppler,  D. Barton,  Z. Benda,  Y. A. Bernard,  E. J. Berquist,  
 K. B. Bravaya,  H. Burton,  D. Casanova,  Chun-Min Chang,  Yunqing Chen,  
 A. Chien,  K. D. Closser,  M. P. Coons,  S. Dasgupta,  A. L. Dempwolff,  
 M. Diedenhofen,  Hainam Do,  R. G. Edgar,  Po-Tung Fang,  S. Fatehi,  
 Qingguo Feng,  J. Fosso-Tande,  Qinghui Ge,  A. Ghysels,  G. Gidofalvi,  
 J. Gomes,  J. Gonthier,  A. Gunina,  M. W. D. Hanson-Heine,  
 P. H. P. Harbach,  A. W. Hauser,  J. E. Herr,  E. G. Hohenstein,  
 Z. C. Holden,  Kerwin Hui,  T.-C. Jagau,  Hyunjun Ji,  B. Kaduk,  
 K. Khistyaev,  Jaehoon Kim,  P. Klunzinger,  K. Koh,  D. Kosenkov,  
 L. Koulias,  T. Kowalczyk,  C. M. Krauter,  A. Kunitsa,  Ka Un Lao,  
 A. Laurent,  K. V. Lawler,  Joonho Lee,  D. Lefrancois,  S. Lehtola,  
 D. S. Levine,  Yi-Pei Li,  You-Sheng Lin,  Fenglai Liu,  E. Livshits,  
 A. Luenser,  P. Manohar,  E. Mansoor,  S. F. Manzer,  Shan-Ping Mao,  
 Yuezhi Mao,  N. Mardirossian,  A. V. Marenich,  T. Markovich,  
 L. A. Martinez-Martinez,  S. A. Maurer,  N. J. Mayhall,  S. C. McKenzie,  
 J.-M. Mewes,  A. F. Morrison,  J. W. Mullinax,  K. Nanda,  
 T. S. Nguyen-Beck,  R. Olivares-Amaya,  J. A. Parkhill,  T. M. Perrine,  
 F. Plasser,  S. Prager,  A. Prociuk,  E. Ramos,  D. R. Rehn,  F. Rob,  
 M. Schneider,  N. Sergueev,  S. M. Sharada,  S. Sharma,  D. W. Small,  
 T. Stauch,  T. Stein,  Yu-Chuan Su,  A. J. W. Thom,  A. Tkatchenko,  
 T. Tsuchimochi,  L. Vogt,  O. Vydrov,  M. A. Watson,  J. Wenzel,  
 M. de Wergifosse,  T. A. Wesolowski,  A. White,  J. Witte,  A. Yamada,  
 Jun Yang,  K. Yao,  S. Yeganeh,  S. R. Yost,  Zhi-Qiang You,  A. Zech,  
 Igor Ying Zhang,  Xing Zhang,  Yan Zhao,  Ying Zhu,  B. R. Brooks,  
 G. K. L. Chan,  C. J. Cramer,  M. S. Gordon,  W. J. Hehre,  A. Klamt,  
 M. W. Schmidt,  C. D. Sherrill,  D. G. Truhlar,  A. Aspuru-Guzik,  R. Baer,  
 A. T. Bell,  N. A. Besley,  Jeng-Da Chai,  R. A. DiStasio Jr.,  A. Dreuw,  
 B. D. Dunietz,  T. R. Furlani,  Chao-Ping Hsu,  Yousung Jung,  Jing Kong,  
 D. S. Lambrecht,  WanZhen Liang,  C. Ochsenfeld,  V. A. Rassolov,  
 L. V. Slipchenko,  J. E. Subotnik,  T. Van Voorhis,  J. M. Herbert,  
 A. I. Krylov,  P. M. W. Gill,  M. Head-Gordon

 Contributors to earlier versions of Q-Chem not listed above: 
 R. D. Adamson,  B. Austin,  J. Baker,  G. J. O. Beran,  K. Brandhorst,  
 S. T. Brown,  E. F. C. Byrd,  A. K. Chakraborty,  C.-L. Cheng,  
 Siu Hung Chien,  D. M. Chipman,  D. L. Crittenden,  H. Dachsel,  
 R. J. Doerksen,  A. D. Dutoi,  L. Fusti-Molnar,  W. A. Goddard III,  
 A. Golubeva-Zadorozhnaya,  S. R. Gwaltney,  G. Hawkins,  A. Heyden,  
 S. Hirata,  G. Kedziora,  F. J. Keil,  C. Kelley,  Jihan Kim,  R. A. King,  
 R. Z. Khaliullin,  P. P. Korambath,  W. Kurlancheek,  A. M. Lee,  M. S. Lee,  
 S. V. Levchenko,  Ching Yeh Lin,  D. Liotard,  R. C. Lochan,  I. Lotan,  
 P. E. Maslen,  N. Nair,  D. P. O'Neill,  D. Neuhauser,  E. Neuscamman,  
 C. M. Oana,  R. Olson,  B. Peters,  R. Peverati,  P. A. Pieniazek,  
 Y. M. Rhee,  J. Ritchie,  M. A. Rohrdanz,  E. Rosta,  N. J. Russ,  
 H. F. Schaefer III,  N. E. Schultz,  N. Shenvi,  A. C. Simmonett,  A. Sodt,  
 D. Stuck,  K. S. Thanthiriwatte,  V. Vanovschi,  Tao Wang,  A. Warshel,  
 C. F. Williams,  Q. Wu,  X. Xu,  W. Zhang

 Please cite Q-Chem as follows:
 Y. Shao et al., Mol. Phys. 113, 184-215 (2015)
 DOI: 10.1080/00268976.2014.952696

 Q-Chem 5.0.2 for Intel X86 EM64T Linux

 Parts of Q-Chem use Armadillo 5.200.1 (Boston Tea Smuggler).
 http://arma.sourceforge.net/

 Q-Chem begins on Tue Mar  1 03:06:57 2022  

Host: 
0

     Scratch files written to ./qcts1.d//
 Dec517 15110_ 26548  26544 5633   
Processing $rem in /home/leeping/opt/qchem/5.0.2-openmp/config/preferences.
 MEM_STATIC 2000
 MEM_TOTAL  8000
 SYMMETRY   OFF
 SYM_IGNORE TRUE 

Checking the input file for inconsistencies... 	...done.

--------------------------------------------------------------
User input:
--------------------------------------------------------------
$molecule
0 2
C        1.9395303481    0.3167227627   -0.2716197758
C        1.2152925273   -0.8374705696   -0.3068296899
C       -0.1278669726   -0.4550911071   -0.7390766687
C       -1.3235009169   -0.0658773992    1.1143548047
C        0.0232787705    1.0100529264   -0.9808529138
N        1.2011261364    1.4617146808   -0.6843144720
H        2.9912481893    0.4260683257   -0.0215236962
H        1.6196899290   -1.8277380630   -0.1291657662
H       -0.5439899912   -1.0237637548   -1.5834924251
H       -0.6080677909    0.6532956800    1.5064618306
H       -0.7617349168    1.6392261426   -1.3857299544
C       -2.4146828689   -0.4024809309    1.6268640366
H       -3.3563868433   -0.8677113598    1.8533007529
$end

$rem
method                b3lyp
basis                 6-31g(d)
unrestricted          true
symmetry              off
sym_ignore            true
incdft                false
incfock               0
scf_convergence       8
thresh                14
jobtype               sp
scf_guess             core
scf_guess_mix         5
scf_algorithm         diis
max_scf_cycles        100
$end

--------------------------------------------------------------
 ----------------------------------------------------------------
             Standard Nuclear Orientation (Angstroms)
    I     Atom           X                Y                Z
 ----------------------------------------------------------------
    1      C       1.9395303481     0.3167227627    -0.2716197758
    2      C       1.2152925273    -0.8374705696    -0.3068296899
    3      C      -0.1278669726    -0.4550911071    -0.7390766687
    4      C      -1.3235009169    -0.0658773992     1.1143548047
    5      C       0.0232787705     1.0100529264    -0.9808529138
    6      N       1.2011261364     1.4617146808    -0.6843144720
    7      H       2.9912481893     0.4260683257    -0.0215236962
    8      H       1.6196899290    -1.8277380630    -0.1291657662
    9      H      -0.5439899912    -1.0237637548    -1.5834924251
   10      H      -0.6080677909     0.6532956800     1.5064618306
   11      H      -0.7617349168     1.6392261426    -1.3857299544
   12      C      -2.4146828689    -0.4024809309     1.6268640366
   13      H      -3.3563868433    -0.8677113598     1.8533007529
 ----------------------------------------------------------------
 Nuclear Repulsion Energy =   248.4475423685 hartrees
 There are       25 alpha and       24 beta electrons
 Requested basis set is 6-31G(d)
 There are 40 shells and 117 basis functions

 Total QAlloc Memory Limit   8000 MB
 Mega-Array Size      1956 MB
 MEM_STATIC part      2000 MB

                       Distance Matrix (Angstroms)
             C (  1)   C (  2)   C (  3)   C (  4)   C (  5)   N (  6)
   C (  2)  1.363056
   C (  3)  2.255736  1.461892
   C (  4)  3.565765  3.010082  2.239696
   C (  5)  2.157716  2.299684  1.492631  2.713178
   N (  6)  1.423574  2.330010  2.333102  3.455791  1.295862
   H (  7)  1.086561  2.198169  3.319669  4.488796  3.173357  2.171726
   H (  8)  2.172856  1.084312  2.304367  3.648680  3.365555  3.362125
   H (  9)  3.112200  2.181662  1.099811  2.967080  2.195764  3.167263
   H ( 10)  3.124918  2.972382  2.549815  1.087567  2.590870  2.954018
   H ( 11)  3.207349  3.347639  2.281691  3.077886  1.084450  2.091965
   C ( 12)  4.804234  4.135832  3.290892  1.251657  3.839153  4.678765
   H ( 13)  5.827942  5.056415  4.161012  2.306860  4.793805  5.712849
             H (  7)   H (  8)   H (  9)   H ( 10)   H ( 11)   C ( 12)
   H (  8)  2.640531
   H (  9)  4.127913  2.728177
   H ( 10)  3.916816  3.713988  3.516312
   H ( 11)  4.173451  4.389758  2.679186  3.059485
   C ( 12)  5.712072  4.625058  3.767210  2.095953  3.997065
   H ( 13)  6.743983  5.441798  4.443588  3.160224  4.848533  1.074486

 
 A cutoff of  1.0D-14 yielded    779 shell pairs
 There are      6935 function pairs
 
 -------------------------------------------------------
 OpenMP Integral Computing Module                       
 Release: version 1.0, May 2013, Q-Chem Inc. Pittsburgh 
 -------------------------------------------------------
 Integral Job Info:
 Integral job number is                      11
 Integral operator is                         1
 short-range coefficients                     0
 long-range coefficients              100000000
 Omega coefficients                           0
 if combine SR and LR in K                    0
 Integral screening is                        0
 Integral computing path is                   2
 max size of driver memory is            800000
 size of driver memory is                593474
 size of scratch memory is              2361544
 max col of scratch BK array               1296
 max len of scratch array in speh3          155
 max len of scratch index in speh4           18
 max int batch size is                      520
 min int batch size is                       52
 fixed nKL is                                52
 max L of basis functions is                  2
 order of int derivative is                   0
 number of shells is                         40
 number of basis is                         117
 number of cartesian basis is               117
 number of contracted shell pairs           779
 number of primitive shell pairs           3281
 maxK2 (contraction) of shell pair           36
 max number of K2 of shell pair               1
 max number of CS2 of shell pair             87
 max number of PS2 of shell pair            390
 mem total for path MDJ                  529068
 -------------------------------------------------------
 Smallest overlap matrix eigenvalue = 1.96E-03

 Scale SEOQF with 1.000000e-01/1.000000e-01/1.000000e-01

 Standard Electronic Orientation quadrupole field applied
 Nucleus-field energy     =     0.0000000016 hartrees
 Guess MOs from core Hamiltonian diagonalization
 Mixing HOMO and LUMO in initial guess
 Adding  50% of the LUMO to the HOMO
 An unrestricted hybrid HF-DFT SCF calculation will be
 performed using Pulay DIIS extrapolation
 Exchange:     0.2000 Hartree-Fock + 0.0800 Slater + 0.7200 B88
 Correlation:  0.1900 VWN1RPA + 0.8100 LYP
 Using SG-1 standard quadrature grid
 SCF converges when DIIS error is below 1.0E-08
 using 4 threads for integral computing
 -------------------------------------------------------
 OpenMP Integral computing Module                
 Release: version 1.0, May 2013, Q-Chem Inc. Pittsburgh 
 -------------------------------------------------------
 -------------------------------------------------------
 OpenMP BLAS3 based DFT computing Module                
 Release: version 1.0, May 2013, Q-Chem Inc. Pittsburgh 
 -------------------------------------------------------
 ---------------------------------------
  Cycle       Energy         DIIS Error
 ---------------------------------------
    1    -207.2437834635      1.48E-01
    2     -88.4760183181      1.72E-01
    3    -239.5211619523      9.73E-02
    4    -201.6397245925      1.29E-01
    5    -246.5348872608      9.71E-02
    6    -270.9166135452      6.25E-02
    7    -286.0491869835      1.78E-02
    8    -284.9505561848      3.23E-02
    9    -286.7045242236      6.82E-03
   10    -286.7008044657      6.41E-03
   11    -286.7843427550      1.43E-03
   12    -286.7884388789      6.14E-04
   13    -286.7897177156      1.91E-04
   14    -286.7901203627      8.12E-05
   15    -286.7902761308      4.12E-05
   16    -286.7903325122      1.56E-05
   17    -286.7903558962      8.01E-06
   18    -286.7903619660      3.96E-06
   19    -286.7903634110      1.19E-06
   20    -286.7903640196      6.61E-07
   21    -286.7903641392      2.58E-07
   22    -286.7903641589      1.24E-07
   23    -286.7903641622      8.93E-08
   24    -286.7903641637      4.53E-08
   25    -286.7903641640      7.79E-09 Convergence criterion met
 ---------------------------------------
 <S^2> = 0.7954
 SCF time:  CPU 62.36 s  wall 54.70 s
 SCF   energy in the final basis set = -286.79036416
 Total energy in the final basis set = -286.79036416
 
 --------------------------------------------------------------
 
                    Orbital Energies (a.u.)
 --------------------------------------------------------------
 
 Alpha MOs
 -- Occupied --
-14.321 -10.225 -10.222 -10.220 -10.215 -10.215 -10.184  -0.947
 -0.771  -0.757  -0.713  -0.577  -0.564  -0.549  -0.504  -0.476
 -0.414  -0.400  -0.389  -0.371  -0.326  -0.295  -0.264  -0.241
 -0.217
 -- Virtual --
 -0.029   0.020   0.042   0.072   0.106   0.123   0.153   0.161
  0.168   0.175   0.208   0.242   0.293   0.364   0.398   0.438
  0.458   0.505   0.521   0.541   0.566   0.575   0.590   0.611
  0.627   0.636   0.639   0.674   0.685   0.718   0.738   0.805
  0.809   0.821   0.825   0.844   0.865   0.887   0.912   0.929
  0.942   0.978   1.006   1.082   1.131   1.217   1.235   1.291
  1.365   1.387   1.423   1.451   1.463   1.529   1.550   1.559
  1.632   1.660   1.707   1.799   1.821   1.885   1.903   1.971
  2.056   2.057   2.093   2.121   2.204   2.246   2.283   2.291
  2.347   2.400   2.445   2.528   2.541   2.565   2.624   2.650
  2.722   2.827   2.924   2.982   3.013   3.933   4.084   4.140
  4.227   4.278   4.325   4.515
 
 Beta MOs
 -- Occupied --
-14.321 -10.220 -10.219 -10.217 -10.212 -10.212 -10.186  -0.942
 -0.763  -0.751  -0.701  -0.569  -0.560  -0.545  -0.501  -0.471
 -0.408  -0.393  -0.385  -0.361  -0.310  -0.291  -0.260  -0.234
 -- Virtual --
 -0.123  -0.014   0.026   0.067   0.081   0.112   0.125   0.158
  0.162   0.171   0.178   0.215   0.247   0.298   0.368   0.403
  0.444   0.464   0.506   0.531   0.553   0.578   0.582   0.598
  0.616   0.633   0.642   0.645   0.677   0.686   0.733   0.742
  0.807   0.820   0.822   0.827   0.845   0.869   0.889   0.917
  0.931   0.943   0.980   1.009   1.085   1.133   1.224   1.237
  1.297   1.372   1.394   1.427   1.455   1.471   1.539   1.556
  1.564   1.654   1.677   1.728   1.817   1.829   1.894   1.910
  1.978   2.057   2.059   2.101   2.134   2.218   2.252   2.289
  2.299   2.360   2.409   2.446   2.540   2.549   2.569   2.632
  2.656   2.726   2.832   2.926   2.986   3.016   3.935   4.091
  4.145   4.232   4.285   4.331   4.525
 --------------------------------------------------------------
 
          Ground-State Mulliken Net Atomic Charges

     Atom                 Charge (a.u.)    Spin (a.u.)
  --------------------------------------------------------
      1 C                     0.011845       0.254738
      2 C                    -0.137756      -0.153667
      3 C                    -0.186211       0.513967
      4 C                    -0.214472      -0.259261
      5 C                     0.058758       0.122146
      6 N                    -0.379772      -0.005782
      7 H                     0.141550      -0.011189
      8 H                     0.139840       0.005423
      9 H                     0.159518      -0.025980
     10 H                     0.209790       0.030564
     11 H                     0.148309      -0.008113
     12 C                    -0.147000       0.556290
     13 H                     0.195602      -0.019136
  --------------------------------------------------------
  Sum of atomic charges =    -0.000000
  Sum of spin   charges =     1.000000

 -----------------------------------------------------------------
                    Cartesian Multipole Moments
 -----------------------------------------------------------------
    Charge (ESU x 10^10)
                -0.0000
    Dipole Moment (Debye)
         X      -1.6930      Y      -1.9569      Z       0.4430
       Tot       2.6253
    Quadrupole Moments (Debye-Ang)
        XX     -34.7122     XY      -1.7586     YY     -43.8347
        XZ      -0.1820     YZ       1.2360     ZZ     -39.6268
    Octopole Moments (Debye-Ang^2)
       XXX     -19.9782    XXY     -17.1127    XYY      -9.7698
       YYY     -26.3843    XXZ      15.2273    XYZ       6.8781
       YYZ       2.8849    XZZ     -11.4139    YZZ      -6.0707
       ZZZ       2.8919
    Hexadecapole Moments (Debye-Ang^3)
      XXXX    -469.7053   XXXY     -10.2079   XXYY    -135.1548
      XYYY     -62.3223   YYYY    -232.4614   XXXZ      78.3105
      XXYZ      -1.7822   XYYZ      46.7514   YYYZ      43.2370
      XXZZ    -124.9579   XYZZ      -8.1818   YYZZ     -80.8142
      XZZZ     119.7754   YZZZ      39.0728   ZZZZ    -272.7940
 -----------------------------------------------------------------
Archival summary:
1\1\c8-89\SP\ProcedureUnspecified\6-31G*\166(2)\hpark21\TueMar103:07:592022TueMar103:07:592022\0\\#,ProcedureUnspecified,6-31G*,\\0,2\N\C,1,1.29586\H,2,1.08445,1,122.764\C,1,1.42357,2,104.92,3,-176.469,0\H,4,1.08656,1,119.199,2,176.5,0\C,4,1.36306,1,113.451,2,-0.34334,0\H,6,1.08431,4,124.815,1,173.463,0\C,6,1.46189,4,105.922,1,-1.63625,0\H,8,1.09981,6,116.065,4,128.535,0\C,8,2.2397,6,106.933,4,-92.194,0\H,10,1.08757,8,93.5602,6,54.3769,0\C,10,1.25166,8,139.245,6,-128.52,0\H,12,1.07449,10,165.192,8,7.74901,0\\\@

 Total job time:  61.88s(wall), 64.14s(cpu) 
 Tue Mar  1 03:07:59 2022

        *************************************************************
        *                                                           *
        *  Thank you very much for using Q-Chem.  Have a nice day.  *
        *                                                           *
        *************************************************************


