
Running Job 1 of 1 qcts2.in
qchem qcts2.in_118389.0 ./qcts2.d/ 1
/home/leeping/opt/qchem/5.0.2-openmp/exe/qcprog.exe_s qcts2.in_118389.0 ./qcts2.d/
Check license passed

                  Welcome to Q-Chem
     A Quantum Leap Into The Future Of Chemistry


 Q-Chem 5.0, Q-Chem, Inc., Pleasanton, CA (2017)

 Yihan Shao,  Zhengting Gan,  E. Epifanovsky,  A. T. B. Gilbert,  M. Wormit,  
 J. Kussmann,  A. W. Lange,  A. Behn,  Jia Deng,  Xintian Feng,  D. Ghosh,  
 M. Goldey,  P. R. Horn,  L. D. Jacobson,  I. Kaliman,  T. Kus,  A. Landau,  
 Jie Liu,  E. I. Proynov,  R. M. Richard,  R. P. Steele,  E. J. Sundstrom,  
 H. L. Woodcock III,  P. M. Zimmerman,  D. Zuev,  B. Albrecht,  E. Alguire,  
 S. A. Baeppler,  D. Barton,  Z. Benda,  Y. A. Bernard,  E. J. Berquist,  
 K. B. Bravaya,  H. Burton,  D. Casanova,  Chun-Min Chang,  Yunqing Chen,  
 A. Chien,  K. D. Closser,  M. P. Coons,  S. Dasgupta,  A. L. Dempwolff,  
 M. Diedenhofen,  Hainam Do,  R. G. Edgar,  Po-Tung Fang,  S. Fatehi,  
 Qingguo Feng,  J. Fosso-Tande,  Qinghui Ge,  A. Ghysels,  G. Gidofalvi,  
 J. Gomes,  J. Gonthier,  A. Gunina,  M. W. D. Hanson-Heine,  
 P. H. P. Harbach,  A. W. Hauser,  J. E. Herr,  E. G. Hohenstein,  
 Z. C. Holden,  Kerwin Hui,  T.-C. Jagau,  Hyunjun Ji,  B. Kaduk,  
 K. Khistyaev,  Jaehoon Kim,  P. Klunzinger,  K. Koh,  D. Kosenkov,  
 L. Koulias,  T. Kowalczyk,  C. M. Krauter,  A. Kunitsa,  Ka Un Lao,  
 A. Laurent,  K. V. Lawler,  Joonho Lee,  D. Lefrancois,  S. Lehtola,  
 D. S. Levine,  Yi-Pei Li,  You-Sheng Lin,  Fenglai Liu,  E. Livshits,  
 A. Luenser,  P. Manohar,  E. Mansoor,  S. F. Manzer,  Shan-Ping Mao,  
 Yuezhi Mao,  N. Mardirossian,  A. V. Marenich,  T. Markovich,  
 L. A. Martinez-Martinez,  S. A. Maurer,  N. J. Mayhall,  S. C. McKenzie,  
 J.-M. Mewes,  A. F. Morrison,  J. W. Mullinax,  K. Nanda,  
 T. S. Nguyen-Beck,  R. Olivares-Amaya,  J. A. Parkhill,  T. M. Perrine,  
 F. Plasser,  S. Prager,  A. Prociuk,  E. Ramos,  D. R. Rehn,  F. Rob,  
 M. Schneider,  N. Sergueev,  S. M. Sharada,  S. Sharma,  D. W. Small,  
 T. Stauch,  T. Stein,  Yu-Chuan Su,  A. J. W. Thom,  A. Tkatchenko,  
 T. Tsuchimochi,  L. Vogt,  O. Vydrov,  M. A. Watson,  J. Wenzel,  
 M. de Wergifosse,  T. A. Wesolowski,  A. White,  J. Witte,  A. Yamada,  
 Jun Yang,  K. Yao,  S. Yeganeh,  S. R. Yost,  Zhi-Qiang You,  A. Zech,  
 Igor Ying Zhang,  Xing Zhang,  Yan Zhao,  Ying Zhu,  B. R. Brooks,  
 G. K. L. Chan,  C. J. Cramer,  M. S. Gordon,  W. J. Hehre,  A. Klamt,  
 M. W. Schmidt,  C. D. Sherrill,  D. G. Truhlar,  A. Aspuru-Guzik,  R. Baer,  
 A. T. Bell,  N. A. Besley,  Jeng-Da Chai,  R. A. DiStasio Jr.,  A. Dreuw,  
 B. D. Dunietz,  T. R. Furlani,  Chao-Ping Hsu,  Yousung Jung,  Jing Kong,  
 D. S. Lambrecht,  WanZhen Liang,  C. Ochsenfeld,  V. A. Rassolov,  
 L. V. Slipchenko,  J. E. Subotnik,  T. Van Voorhis,  J. M. Herbert,  
 A. I. Krylov,  P. M. W. Gill,  M. Head-Gordon

 Contributors to earlier versions of Q-Chem not listed above: 
 R. D. Adamson,  B. Austin,  J. Baker,  G. J. O. Beran,  K. Brandhorst,  
 S. T. Brown,  E. F. C. Byrd,  A. K. Chakraborty,  C.-L. Cheng,  
 Siu Hung Chien,  D. M. Chipman,  D. L. Crittenden,  H. Dachsel,  
 R. J. Doerksen,  A. D. Dutoi,  L. Fusti-Molnar,  W. A. Goddard III,  
 A. Golubeva-Zadorozhnaya,  S. R. Gwaltney,  G. Hawkins,  A. Heyden,  
 S. Hirata,  G. Kedziora,  F. J. Keil,  C. Kelley,  Jihan Kim,  R. A. King,  
 R. Z. Khaliullin,  P. P. Korambath,  W. Kurlancheek,  A. M. Lee,  M. S. Lee,  
 S. V. Levchenko,  Ching Yeh Lin,  D. Liotard,  R. C. Lochan,  I. Lotan,  
 P. E. Maslen,  N. Nair,  D. P. O'Neill,  D. Neuhauser,  E. Neuscamman,  
 C. M. Oana,  R. Olson,  B. Peters,  R. Peverati,  P. A. Pieniazek,  
 Y. M. Rhee,  J. Ritchie,  M. A. Rohrdanz,  E. Rosta,  N. J. Russ,  
 H. F. Schaefer III,  N. E. Schultz,  N. Shenvi,  A. C. Simmonett,  A. Sodt,  
 D. Stuck,  K. S. Thanthiriwatte,  V. Vanovschi,  Tao Wang,  A. Warshel,  
 C. F. Williams,  Q. Wu,  X. Xu,  W. Zhang

 Please cite Q-Chem as follows:
 Y. Shao et al., Mol. Phys. 113, 184-215 (2015)
 DOI: 10.1080/00268976.2014.952696

 Q-Chem 5.0.2 for Intel X86 EM64T Linux

 Parts of Q-Chem use Armadillo 5.200.1 (Boston Tea Smuggler).
 http://arma.sourceforge.net/

 Q-Chem begins on Tue Mar  1 06:32:05 2022  

Host: 
0

     Scratch files written to ./qcts2.d//
 Dec517 15110_ 26548  26544 5633   
Processing $rem in /home/leeping/opt/qchem/5.0.2-openmp/config/preferences.
 MEM_STATIC 2000
 MEM_TOTAL  8000
 SYMMETRY   OFF
 SYM_IGNORE TRUE 

Checking the input file for inconsistencies... 	...done.

--------------------------------------------------------------
User input:
--------------------------------------------------------------
$molecule
0 2
C        1.9063151814    0.3292779489   -0.3180490561
C        1.1441999447   -0.8112563772   -0.2503251794
C       -0.1781338786   -0.4109257955   -0.6389686043
C       -1.1104992627    0.0280051834    1.1975156102
C       -0.0266968393    1.0138124732   -1.0002505091
N        1.1817313218    1.4526926690   -0.7720001200
H        2.9578538757    0.4446261236   -0.0793471201
H        1.4553183598   -1.8001772457    0.0583286899
H       -0.9416912865   -1.0669069680   -1.0377361091
H       -0.3122885497    0.6107223444    1.6205031040
H       -0.8203896716    1.6616492494   -1.3598400102
C       -2.2441132239   -0.4466211426    1.3710086866
H       -3.1576703712   -0.9779510925    1.2075366802
$end

$rem
method                b3lyp
basis                 6-31+g(d,p)
unrestricted          true
symmetry              off
sym_ignore            true
incdft                false
incfock               0
scf_convergence       8
thresh                14
jobtype               freq
scf_guess             read
scf_algorithm         diis
max_scf_cycles        100
$end

--------------------------------------------------------------
 ----------------------------------------------------------------
             Standard Nuclear Orientation (Angstroms)
    I     Atom           X                Y                Z
 ----------------------------------------------------------------
    1      C       1.9063151814     0.3292779489    -0.3180490561
    2      C       1.1441999447    -0.8112563772    -0.2503251794
    3      C      -0.1781338786    -0.4109257955    -0.6389686043
    4      C      -1.1104992627     0.0280051834     1.1975156102
    5      C      -0.0266968393     1.0138124732    -1.0002505091
    6      N       1.1817313218     1.4526926690    -0.7720001200
    7      H       2.9578538757     0.4446261236    -0.0793471201
    8      H       1.4553183598    -1.8001772457     0.0583286899
    9      H      -0.9416912865    -1.0669069680    -1.0377361091
   10      H      -0.3122885497     0.6107223444     1.6205031040
   11      H      -0.8203896716     1.6616492494    -1.3598400102
   12      C      -2.2441132239    -0.4466211426     1.3710086866
   13      H      -3.1576703712    -0.9779510925     1.2075366802
 ----------------------------------------------------------------
 Nuclear Repulsion Energy =   254.0470393161 hartrees
 There are       25 alpha and       24 beta electrons
 Requested basis set is 6-31+G(d,p)
 There are 53 shells and 163 basis functions

 Total QAlloc Memory Limit   8000 MB
 Mega-Array Size      1956 MB
 MEM_STATIC part      2000 MB

                       Distance Matrix (Angstroms)
             C (  1)   C (  2)   C (  3)   C (  4)   C (  5)   N (  6)
   C (  2)  1.373399
   C (  3)  2.235133  1.435226
   C (  4)  3.389524  2.807894  2.105858
   C (  5)  2.161139  2.294398  1.477612  2.641329
   N (  6)  1.411791  2.323579  2.310845  3.341115  1.305761
   H (  7)  1.084443  2.212649  3.298418  4.284326  3.174835  2.156520
   H (  8)  2.208990  1.081678  2.254863  3.350137  3.351939  3.368302
   H (  9)  3.252449  2.244174  1.082750  2.494730  2.273327  3.305741
   H ( 10)  2.959628  2.764666  2.483339  1.074997  2.666907  2.943651
   H ( 11)  3.208654  3.347521  2.286420  3.048446  1.085793  2.097071
   C ( 12)  4.547636  3.773904  2.882630  1.241149  3.559870  4.465007
   H ( 13)  5.447955  4.545243  3.550878  2.280999  4.317921  5.353224
             H (  7)   H (  8)   H (  9)   H ( 10)   H ( 11)   C ( 12)
   H (  8)  2.704757
   H (  9)  4.290652  2.735818
   H ( 10)  3.689297  3.373019  3.205749
   H ( 11)  4.170843  4.378846  2.750179  3.200790
   C ( 12)  5.473419  4.152233  2.807687  2.216341  3.732201
   H ( 13)  6.409324  4.824562  3.155903  3.284908  4.361398  1.069402

 
 A cutoff of  1.0D-14 yielded   1365 shell pairs
 There are     13298 function pairs
 Smallest overlap matrix eigenvalue = 1.99E-05
 Guess MOs from SCF MO coefficient file
 Reading MOs from coefficient file
 Reading MOs from coefficient file
 An unrestricted hybrid HF-DFT SCF calculation will be
 performed using Pulay DIIS extrapolation
 Exchange:     0.2000 Hartree-Fock + 0.0800 Slater + 0.7200 B88
 Correlation:  0.1900 VWN1RPA + 0.8100 LYP
 Using SG-1 standard quadrature grid
 SCF converges when DIIS error is below 1.0E-08
Using Q-Chem read-in guess as SCF_GUESS READ specified.

 -------------------------------------------------------
 OpenMP BLAS3 based DFT computing Module                
 -------------------------------------------------------
 ---------------------------------------
  Cycle       Energy         DIIS Error
 ---------------------------------------
    1    -286.8390714049      1.13E-09
    2    -286.8390714049      1.99E-09 Convergence criterion met
 ---------------------------------------
 <S^2> = 0.7833
 SCF time:  CPU 6.38 s  wall 13.45 s
 SCF   energy in the final basis set = -286.83907140
 Total energy in the final basis set = -286.83907140
 
 --------------------------------------------------------------
 
                    Orbital Energies (a.u.)
 --------------------------------------------------------------
 
 Alpha MOs
 -- Occupied --
-14.332 -10.235 -10.233 -10.233 -10.231 -10.225 -10.192  -0.960
 -0.795  -0.767  -0.723  -0.593  -0.575  -0.560  -0.523  -0.505
 -0.421  -0.415  -0.402  -0.396  -0.339  -0.316  -0.275  -0.249
 -0.225
 -- Virtual --
 -0.035  -0.008   0.005   0.016   0.029   0.032   0.039   0.043
  0.047   0.052   0.063   0.072   0.079   0.089   0.101   0.108
  0.113   0.120   0.130   0.139   0.147   0.154   0.161   0.182
  0.190   0.194   0.201   0.208   0.213   0.225   0.235   0.237
  0.248   0.261   0.268   0.284   0.292   0.307   0.335   0.344
  0.406   0.454   0.461   0.473   0.605   0.640   0.664   0.674
  0.684   0.693   0.716   0.732   0.750   0.756   0.780   0.816
  0.822   0.852   0.884   0.901   0.913   0.925   0.951   0.993
  0.997   1.025   1.047   1.050   1.075   1.092   1.126   1.155
  1.209   1.252   1.275   1.303   1.345   1.345   1.356   1.384
  1.441   1.473   1.504   1.548   1.559   1.631   1.696   1.764
  1.806   1.861   1.891   1.933   1.944   1.997   2.015   2.031
  2.064   2.098   2.111   2.135   2.168   2.262   2.323   2.348
  2.385   2.417   2.429   2.437   2.469   2.506   2.524   2.549
  2.572   2.594   2.621   2.641   2.708   2.734   2.761   2.813
  2.867   2.874   2.917   3.039   3.180   3.269   3.331   3.567
  3.597   3.623   3.741   4.164   4.350   4.459   4.530   4.548
  4.699   4.792
 
 Beta MOs
 -- Occupied --
-14.332 -10.238 -10.231 -10.227 -10.223 -10.222 -10.194  -0.955
 -0.786  -0.761  -0.711  -0.586  -0.571  -0.555  -0.521  -0.500
 -0.418  -0.402  -0.397  -0.390  -0.320  -0.311  -0.273  -0.242
 -- Virtual --
 -0.138  -0.022  -0.004   0.006   0.017   0.030   0.033   0.041
  0.051   0.052   0.061   0.064   0.073   0.081   0.096   0.103
  0.108   0.115   0.121   0.133   0.143   0.147   0.155   0.166
  0.184   0.193   0.196   0.203   0.209   0.216   0.228   0.236
  0.238   0.250   0.262   0.270   0.284   0.293   0.309   0.338
  0.349   0.410   0.456   0.465   0.479   0.617   0.642   0.667
  0.690   0.695   0.704   0.720   0.736   0.756   0.759   0.782
  0.820   0.836   0.855   0.886   0.901   0.916   0.926   0.955
  0.995   0.999   1.028   1.048   1.056   1.077   1.095   1.131
  1.159   1.213   1.254   1.278   1.308   1.351   1.354   1.362
  1.386   1.449   1.478   1.511   1.558   1.570   1.645   1.718
  1.778   1.816   1.871   1.898   1.935   1.947   2.000   2.013
  2.034   2.072   2.104   2.117   2.143   2.172   2.272   2.329
  2.352   2.387   2.420   2.432   2.442   2.471   2.510   2.529
  2.558   2.581   2.597   2.624   2.648   2.714   2.738   2.770
  2.815   2.869   2.875   2.918   3.041   3.182   3.269   3.332
  3.569   3.600   3.632   3.744   4.165   4.353   4.467   4.531
  4.555   4.709   4.800
 --------------------------------------------------------------
 
          Ground-State Mulliken Net Atomic Charges

     Atom                 Charge (a.u.)    Spin (a.u.)
  --------------------------------------------------------
      1 C                    -0.084025       0.289546
      2 C                    -0.153731      -0.167295
      3 C                    -0.014199       0.429317
      4 C                    -0.044200      -0.209114
      5 C                    -0.197949       0.142350
      6 N                    -0.212776       0.000853
      7 H                     0.132164      -0.013522
      8 H                     0.132459       0.005197
      9 H                     0.145688      -0.020693
     10 H                     0.194292       0.028072
     11 H                     0.136638      -0.009237
     12 C                    -0.214563       0.544461
     13 H                     0.180202      -0.019934
  --------------------------------------------------------
  Sum of atomic charges =    -0.000000
  Sum of spin   charges =     1.000000

 -----------------------------------------------------------------
                    Cartesian Multipole Moments
 -----------------------------------------------------------------
    Charge (ESU x 10^10)
                -0.0000
    Dipole Moment (Debye)
         X      -2.0711      Y      -2.3903      Z       0.5737
       Tot       3.2144
    Quadrupole Moments (Debye-Ang)
        XX     -36.6049     XY      -1.0155     YY     -45.5122
        XZ       3.1121     YZ       1.5491     ZZ     -44.0437
    Octopole Moments (Debye-Ang^2)
       XXX     -19.9805    XXY     -19.2342    XYY     -13.3951
       YYY     -31.5181    XXZ       7.1496    XYZ       5.8078
       YYZ       4.9419    XZZ      -5.6632    YZZ      -4.9134
       ZZZ       3.9607
    Hexadecapole Moments (Debye-Ang^3)
      XXXX    -454.3094   XXXY     -10.1576   XXYY    -132.3060
      XYYY     -65.6005   YYYY    -251.3836   XXXZ      94.5271
      XXYZ       5.8261   XYYZ      46.1829   YYYZ      48.5876
      XXZZ    -144.0952   XYZZ     -15.4557   YYZZ     -86.0078
      XZZZ     120.7744   YZZZ      47.9817   ZZZZ    -276.7125
 -----------------------------------------------------------------
 Calculating MO derivatives via CPSCF
   1         3          39      0.316931    0.071793
   2         3          39      0.046261    0.012150
   3         3          39      0.007704    0.002092
   4         3          39      0.001147    0.000282
   5        17          25      0.000134    0.000029
   6        40           2      0.000005    0.000003
   7        42           0      0.000000    0.000000    Roots Converged
 Time for AOints: 19.3 s (CPU) 25.7 s (wall)
 ------------------------------------------------------------------------------
                     AOints        : Timing summary (seconds)
 ------------------------------------------------------------------------------
     job step          cpu (% of tot)      sys (% of tot)     wall (% of tot)
 ------------------------------------------------------------------------------
  cpscf_lag         0.1124E+03 (27.1)   0.4100E-04 (28.7)   0.1265E+03 (26.9)
  iterzp            0.2828E+03 (68.2)   0.9800E-04 (68.5)   0.3176E+03 (67.5)
  make_fx           0.0000E+00 ( 0.0)   0.0000E+00 ( 0.0)   0.0000E+00 ( 0.0)
  AOints            0.1935E+02 ( 4.7)   0.2000E-05 ( 1.4)   0.2573E+02 ( 5.5)
 ------------------------------------------------------------------------------
   Grand Totals     0.4149E+03          0.1430E-03          0.4703E+03
 ------------------------------------------------------------------------------
 Calculating analytic Hessian of the SCF energy
 Polarizability Matrix (a.u.)
            1           2           3
    1-115.5488848 -11.9159524  23.9324830
    2 -11.9159524 -70.4616468   9.1012058
    3  23.9324830   9.1012058 -72.2343106
 
 Direct stationary perturbation theory relativistic correction:
 
 rels  =       0.069337146152
 relv  =      -0.332729859452
 rel2e =       0.150261915024
 E_rel =      -0.113130798276
 
 Hessian of the SCF Energy
            1           2           3           4           5           6
    1   0.7752546   0.1327228   0.1290087  -0.1982827  -0.1481953   0.0016175
    2   0.1327228   0.5052527  -0.0547432  -0.0776994  -0.2808245   0.0325661
    3   0.1290087  -0.0547432   0.1830143  -0.0143116   0.0140782  -0.0629369
    4  -0.1982827  -0.0776994  -0.0143116   0.4648776  -0.0348044   0.0884231
    5  -0.1481953  -0.2808245   0.0140782  -0.0348044   0.8020708  -0.1648199
    6   0.0016175   0.0325661  -0.0629369   0.0884231  -0.1648199   0.1699798
    7  -0.0577946  -0.0880054   0.0017660  -0.1751187   0.0776880  -0.0462710
    8  -0.0165435   0.0476186  -0.0113037   0.0022666  -0.1297199   0.0035694
    9  -0.0085146   0.0002254   0.0018918  -0.0841273   0.0169538  -0.0740219
   10   0.0027950   0.0174158   0.0030595  -0.0497286  -0.0111538  -0.0017301
   11   0.0012355  -0.0089059   0.0034223   0.0099830   0.0012056  -0.0053682
   12  -0.0081289  -0.0212644  -0.0003506   0.0455350   0.0117314   0.0052790
   13  -0.0805542   0.0461675  -0.0344364  -0.0115853   0.0144090  -0.0073404
   14   0.0244655  -0.0029885   0.0091944   0.0325003  -0.0411392   0.0260457
   15  -0.0281488   0.0085001  -0.0041133  -0.0079476   0.0149241   0.0043768
   16  -0.1147039   0.0301778  -0.0197154   0.0420913   0.0357196  -0.0034403
   17   0.0347772  -0.1813373   0.0361269  -0.0025567  -0.0629030   0.0188807
   18  -0.0192706   0.0322123  -0.0765103   0.0109043   0.0286900   0.0066285
   19  -0.3278616  -0.0370095  -0.0643856  -0.0044327   0.0039119  -0.0033215
   20  -0.0405567  -0.0626137  -0.0041593  -0.0215754   0.0067429  -0.0046991
   21  -0.0639705  -0.0026692  -0.0523606   0.0015492   0.0001845   0.0062966
   22   0.0115713  -0.0141553   0.0062712  -0.0797917   0.0768924  -0.0300522
   23   0.0125852  -0.0103548   0.0054490   0.0765508  -0.3057528   0.0839749
   24   0.0004432  -0.0006325  -0.0005154  -0.0338604   0.0849774  -0.0544318
   25  -0.0047293   0.0024762  -0.0027066  -0.0103957  -0.0189931  -0.0066171
   26   0.0041070  -0.0037134   0.0011743   0.0094679   0.0126674   0.0056114
   27  -0.0036061  -0.0046842   0.0027112   0.0083150  -0.0028673   0.0022020
   28   0.0008140   0.0012621  -0.0014308   0.0005096   0.0006578   0.0019445
   29  -0.0001591   0.0016523  -0.0002675  -0.0021269  -0.0010713   0.0000248
   30   0.0020160   0.0030344   0.0007798  -0.0073968  -0.0018993  -0.0010923
   31  -0.0044572  -0.0027880  -0.0031030  -0.0000608  -0.0024686   0.0007277
   32  -0.0034194  -0.0002507   0.0013018  -0.0003250  -0.0043038   0.0015507
   33  -0.0028968   0.0017690   0.0084482  -0.0003603   0.0003555  -0.0004126
   34  -0.0019328  -0.0101663  -0.0000792   0.0211448   0.0059523   0.0063647
   35  -0.0012198  -0.0045042  -0.0001436   0.0092881   0.0033952   0.0024018
   36   0.0014430   0.0067942   0.0001018  -0.0075053  -0.0024364  -0.0021862
   37  -0.0001186  -0.0003982   0.0000633   0.0007729   0.0003842  -0.0003049
   38   0.0002007   0.0009693  -0.0001297  -0.0009689  -0.0003674   0.0002619
   39   0.0000080  -0.0011081  -0.0001600   0.0007829   0.0001279   0.0003190
            7           8           9          10          11          12
    1  -0.0577946  -0.0165435  -0.0085146   0.0027950   0.0012355  -0.0081289
    2  -0.0880054   0.0476186   0.0002254   0.0174158  -0.0089059  -0.0212644
    3   0.0017660  -0.0113037   0.0018918   0.0030595   0.0034223  -0.0003506
    4  -0.1751187   0.0022666  -0.0841273  -0.0497286   0.0099830   0.0455350
    5   0.0776880  -0.1297199   0.0169538  -0.0111538   0.0012056   0.0117314
    6  -0.0462710   0.0035694  -0.0740219  -0.0017301  -0.0053682   0.0052790
    7   0.5397980   0.1729149   0.2236120   0.0655481  -0.0061291  -0.0786856
    8   0.1729149   0.5108351  -0.0026136  -0.0294106  -0.0117493   0.0200056
    9   0.2236120  -0.0026136   0.1627041  -0.0800022   0.0005118   0.0651686
   10   0.0655481  -0.0294106  -0.0800022   0.8859518   0.4694700   0.1461060
   11  -0.0061291  -0.0117493   0.0005118   0.4694700   0.3136148   0.0519785
   12  -0.0786856   0.0200056   0.0651686   0.1461060   0.0519785   0.0224651
   13  -0.0784560  -0.0043664  -0.0179508  -0.0000261   0.0011558   0.0091389
   14   0.0065166  -0.2109920   0.0321058  -0.0029023   0.0024177   0.0088150
   15  -0.0217656   0.0404379  -0.0722984   0.0036130   0.0023478  -0.0137603
   16  -0.0546110  -0.0274698   0.0035425   0.0019128  -0.0081795  -0.0095626
   17  -0.0328812  -0.0395254   0.0052843   0.0073709   0.0003746  -0.0050443
   18  -0.0093471   0.0106333   0.0210919  -0.0006182  -0.0023650   0.0007492
   19  -0.0015012  -0.0017322  -0.0017301   0.0008366  -0.0002276  -0.0004617
   20  -0.0037377  -0.0038538   0.0007436   0.0000898   0.0000601  -0.0002826
   21  -0.0001371   0.0028357   0.0053395  -0.0014573   0.0002213   0.0004589
   22   0.0001585   0.0247134  -0.0058426   0.0003997  -0.0000565  -0.0003781
   23  -0.0016774   0.0009249  -0.0010202  -0.0002836   0.0001549   0.0004085
   24   0.0036591   0.0037718  -0.0023375  -0.0010447   0.0001540   0.0011462
   25  -0.1957376  -0.1292524  -0.0898236  -0.0017775   0.0033961   0.0073678
   26  -0.1306659  -0.1650629  -0.0632188   0.0008753  -0.0004555  -0.0020400
   27  -0.1011679  -0.0594917  -0.0654114   0.0071130  -0.0058811  -0.0166213
   28  -0.0011948   0.0021426   0.0084893  -0.2200437  -0.1437732  -0.1036394
   29   0.0021919  -0.0005271  -0.0071348  -0.1547647  -0.1293790  -0.0667750
   30   0.0088137  -0.0078693  -0.0204102  -0.1319541  -0.0803958  -0.0563291
   31   0.0070018  -0.0052900   0.0035745   0.0006199  -0.0000684  -0.0006589
   32   0.0187396  -0.0057669   0.0057289   0.0003717   0.0003186  -0.0005021
   33  -0.0021619   0.0016509  -0.0001547  -0.0014899   0.0003721   0.0017506
   34  -0.0484616   0.0113803   0.0503577  -0.6848749  -0.3229715  -0.0022230
   35  -0.0148992   0.0082601   0.0112972  -0.3060483  -0.1718809   0.0077015
   36   0.0241263  -0.0018108  -0.0252105   0.0358548   0.0266364  -0.0068974
   37   0.0003691   0.0006469  -0.0015849  -0.0016132  -0.0038346  -0.0044096
   38  -0.0000550  -0.0004416   0.0011366   0.0089698   0.0042242  -0.0047321
   39  -0.0024408   0.0001847   0.0036486   0.0225504   0.0083660  -0.0030591
           13          14          15          16          17          18
    1  -0.0805542   0.0244655  -0.0281488  -0.1147039   0.0347772  -0.0192706
    2   0.0461675  -0.0029885   0.0085001   0.0301778  -0.1813373   0.0322123
    3  -0.0344364   0.0091944  -0.0041133  -0.0197154   0.0361269  -0.0765103
    4  -0.0115853   0.0325003  -0.0079476   0.0420913  -0.0025567   0.0109043
    5   0.0144090  -0.0411392   0.0149241   0.0357196  -0.0629030   0.0286900
    6  -0.0073404   0.0260457   0.0043768  -0.0034403   0.0188807   0.0066285
    7  -0.0784560   0.0065166  -0.0217656  -0.0546110  -0.0328812  -0.0093471
    8  -0.0043664  -0.2109920   0.0404379  -0.0274698  -0.0395254   0.0106333
    9  -0.0179508   0.0321058  -0.0722984   0.0035425   0.0052843   0.0210919
   10  -0.0000261  -0.0029023   0.0036130   0.0019128   0.0073709  -0.0006182
   11   0.0011558   0.0024177   0.0023478  -0.0081795   0.0003746  -0.0023650
   12   0.0091389   0.0088150  -0.0137603  -0.0095626  -0.0050443   0.0007492
   13   0.7779151  -0.0523680   0.1922874  -0.4034501  -0.1118115  -0.0704996
   14  -0.0523680   0.5679103  -0.1170606  -0.1398668  -0.1399170  -0.0202982
   15   0.1922874  -0.1170606   0.2199628  -0.0661300  -0.0070780  -0.0747109
   16  -0.4034501  -0.1398668  -0.0661300   0.5639323   0.0962205   0.1039407
   17  -0.1118115  -0.1399170  -0.0070780   0.0962205   0.4144374  -0.0532385
   18  -0.0704996  -0.0202982  -0.0747109   0.1039407  -0.0532385   0.1207880
   19  -0.0008478   0.0026081  -0.0011295  -0.0108443  -0.0014118  -0.0031526
   20   0.0037041  -0.0048700   0.0025850   0.0266245   0.0052235   0.0059241
   21  -0.0014672   0.0019480   0.0012559  -0.0092412  -0.0008596  -0.0006967
   22  -0.0064788   0.0005717  -0.0021936  -0.0001907  -0.0050783  -0.0005335
   23  -0.0022374  -0.0004770   0.0002457  -0.0010297  -0.0028234   0.0021422
   24  -0.0020139   0.0008224   0.0023277  -0.0010813   0.0012908   0.0067264
   25   0.0012541   0.0017781   0.0026943   0.0019226   0.0006917  -0.0018428
   26  -0.0176770  -0.0017427  -0.0142839  -0.0045310  -0.0061328   0.0031480
   27   0.0085757   0.0047148   0.0051838  -0.0015695   0.0025415  -0.0008904
   28   0.0007805   0.0012548   0.0008991   0.0006096  -0.0010293  -0.0004770
   29  -0.0005901  -0.0000534   0.0024957   0.0013768   0.0001091  -0.0006130
   30  -0.0017626  -0.0034343  -0.0029558   0.0011924   0.0010815   0.0010965
   31  -0.1979453   0.1231414  -0.0725252  -0.0232460   0.0176084  -0.0089448
   32   0.1256343  -0.1674063   0.0671323  -0.0093005   0.0130934  -0.0070686
   33  -0.0721279   0.0618073  -0.0649799  -0.0027720   0.0010845  -0.0056141
   34  -0.0000698   0.0032467   0.0003428  -0.0039186  -0.0020248  -0.0004112
   35  -0.0023573  -0.0009372   0.0000980   0.0001074  -0.0003557   0.0009097
   36  -0.0032471  -0.0061344  -0.0006425   0.0061008  -0.0003117   0.0019582
   37  -0.0005362  -0.0009460   0.0000037   0.0004961   0.0001248   0.0002523
   38   0.0003370   0.0001953  -0.0003442   0.0001507  -0.0002433  -0.0000764
   39   0.0008439   0.0014741   0.0003540  -0.0012641   0.0002418  -0.0006163
           19          20          21          22          23          24
    1  -0.3278616  -0.0405567  -0.0639705   0.0115713   0.0125852   0.0004432
    2  -0.0370095  -0.0626137  -0.0026692  -0.0141553  -0.0103548  -0.0006325
    3  -0.0643856  -0.0041593  -0.0523606   0.0062712   0.0054490  -0.0005154
    4  -0.0044327  -0.0215754   0.0015492  -0.0797917   0.0765508  -0.0338604
    5   0.0039119   0.0067429   0.0001845   0.0768924  -0.3057528   0.0849774
    6  -0.0033215  -0.0046991   0.0062966  -0.0300522   0.0839749  -0.0544318
    7  -0.0015012  -0.0037377  -0.0001371   0.0001585  -0.0016774   0.0036591
    8  -0.0017322  -0.0038538   0.0028357   0.0247134   0.0009249   0.0037718
    9  -0.0017301   0.0007436   0.0053395  -0.0058426  -0.0010202  -0.0023375
   10   0.0008366   0.0000898  -0.0014573   0.0003997  -0.0002836  -0.0010447
   11  -0.0002276   0.0000601   0.0002213  -0.0000565   0.0001549   0.0001540
   12  -0.0004617  -0.0002826   0.0004589  -0.0003781   0.0004085   0.0011462
   13  -0.0008478   0.0037041  -0.0014672  -0.0064788  -0.0022374  -0.0020139
   14   0.0026081  -0.0048700   0.0019480   0.0005717  -0.0004770   0.0008224
   15  -0.0011295   0.0025850   0.0012559  -0.0021936   0.0002457   0.0023277
   16  -0.0108443   0.0266245  -0.0092412  -0.0001907  -0.0010297  -0.0010813
   17  -0.0014118   0.0052235  -0.0008596  -0.0050783  -0.0028234   0.0012908
   18  -0.0031526   0.0059241  -0.0006967  -0.0005335   0.0021422   0.0067264
   19   0.3461569   0.0342118   0.0736044  -0.0001738  -0.0003089   0.0007802
   20   0.0342118   0.0577167  -0.0000026   0.0009757   0.0001697  -0.0003940
   21   0.0736044  -0.0000026   0.0412908   0.0004371  -0.0008104  -0.0026496
   22  -0.0001738   0.0009757   0.0004371   0.0736658  -0.0844193   0.0320665
   23  -0.0003089   0.0001697  -0.0008104  -0.0844193   0.3181094  -0.0902717
   24   0.0007802  -0.0003940  -0.0026496   0.0320665  -0.0902717   0.0499601
   25  -0.0005136  -0.0009061   0.0008550   0.0001595   0.0006412   0.0008495
   26   0.0003669   0.0007004  -0.0008675  -0.0007590  -0.0001339  -0.0003098
   27  -0.0000829  -0.0002544   0.0005480   0.0004472  -0.0001065  -0.0009821
   28  -0.0001460   0.0000308   0.0001845  -0.0000402   0.0000129  -0.0000167
   29   0.0000651  -0.0000242  -0.0000769   0.0001335  -0.0001778  -0.0001732
   30   0.0000179   0.0000511  -0.0001190   0.0000821   0.0000120  -0.0000613
   31  -0.0004362   0.0012543  -0.0006146   0.0007919  -0.0000249  -0.0001658
   32  -0.0004033   0.0007834  -0.0000160   0.0012405   0.0002818   0.0005672
   33  -0.0002133   0.0004039   0.0005758  -0.0004539   0.0002044   0.0010968
   34  -0.0002471  -0.0001324   0.0002406  -0.0000537   0.0001915   0.0003471
   35  -0.0000821  -0.0000292   0.0001054  -0.0000929   0.0000971   0.0002078
   36   0.0001147   0.0001142   0.0000604   0.0002095  -0.0002936  -0.0003374
   37   0.0000107   0.0000172   0.0000172  -0.0000178  -0.0000003   0.0000374
   38   0.0000115  -0.0000059   0.0000074   0.0000340  -0.0000180  -0.0000101
   39  -0.0000399  -0.0000299  -0.0000000  -0.0000598   0.0000656   0.0000578
           25          26          27          28          29          30
    1  -0.0047293   0.0041070  -0.0036061   0.0008140  -0.0001591   0.0020160
    2   0.0024762  -0.0037134  -0.0046842   0.0012621   0.0016523   0.0030344
    3  -0.0027066   0.0011743   0.0027112  -0.0014308  -0.0002675   0.0007798
    4  -0.0103957   0.0094679   0.0083150   0.0005096  -0.0021269  -0.0073968
    5  -0.0189931   0.0126674  -0.0028673   0.0006578  -0.0010713  -0.0018993
    6  -0.0066171   0.0056114   0.0022020   0.0019445   0.0000248  -0.0010923
    7  -0.1957376  -0.1306659  -0.1011679  -0.0011948   0.0021919   0.0088137
    8  -0.1292524  -0.1650629  -0.0594917   0.0021426  -0.0005271  -0.0078693
    9  -0.0898236  -0.0632188  -0.0654114   0.0084893  -0.0071348  -0.0204102
   10  -0.0017775   0.0008753   0.0071130  -0.2200437  -0.1547647  -0.1319541
   11   0.0033961  -0.0004555  -0.0058811  -0.1437732  -0.1293790  -0.0803958
   12   0.0073678  -0.0020400  -0.0166213  -0.1036394  -0.0667750  -0.0563291
   13   0.0012541  -0.0176770   0.0085757   0.0007805  -0.0005901  -0.0017626
   14   0.0017781  -0.0017427   0.0047148   0.0012548  -0.0000534  -0.0034343
   15   0.0026943  -0.0142839   0.0051838   0.0008991   0.0024957  -0.0029558
   16   0.0019226  -0.0045310  -0.0015695   0.0006096   0.0013768   0.0011924
   17   0.0006917  -0.0061328   0.0025415  -0.0010293   0.0001091   0.0010815
   18  -0.0018428   0.0031480  -0.0008904  -0.0004770  -0.0006130   0.0010965
   19  -0.0005136   0.0003669  -0.0000829  -0.0001460   0.0000651   0.0000179
   20  -0.0009061   0.0007004  -0.0002544   0.0000308  -0.0000242   0.0000511
   21   0.0008550  -0.0008675   0.0005480   0.0001845  -0.0000769  -0.0001190
   22   0.0001595  -0.0007590   0.0004472  -0.0000402   0.0001335   0.0000821
   23   0.0006412  -0.0001339  -0.0001065   0.0000129  -0.0001778   0.0000120
   24   0.0008495  -0.0003098  -0.0009821  -0.0000167  -0.0001732  -0.0000613
   25   0.2081835   0.1391219   0.0876738  -0.0002035   0.0000409   0.0003585
   26   0.1391219   0.1635593   0.0686574  -0.0000135   0.0000255   0.0001509
   27   0.0876738   0.0686574   0.0725103   0.0001709   0.0000879   0.0000145
   28  -0.0002035  -0.0000135   0.0001709   0.2303708   0.1504446   0.0988261
   29   0.0000409   0.0000255   0.0000879   0.1504446   0.1231914   0.0772087
   30   0.0003585   0.0001509   0.0000145   0.0988261   0.0772087   0.0786198
   31  -0.0002377   0.0004624  -0.0001680  -0.0000748   0.0000680   0.0000462
   32  -0.0004781  -0.0000851  -0.0003818   0.0000287  -0.0000140   0.0001385
   33   0.0001095   0.0009813  -0.0007235  -0.0001389  -0.0000627  -0.0001784
   34   0.0020167  -0.0008549  -0.0059993  -0.0125401   0.0051750   0.0287054
   35   0.0015553   0.0002964  -0.0022267  -0.0083681   0.0020960   0.0126162
   36   0.0009853   0.0012231   0.0019039  -0.0039372  -0.0029816  -0.0025407
   37   0.0000586   0.0001000   0.0002983   0.0011586  -0.0018551   0.0010553
   38  -0.0000716   0.0000772  -0.0001077  -0.0026502   0.0041725  -0.0006946
   39   0.0000964  -0.0002264  -0.0004451  -0.0008744  -0.0017325   0.0031762
           31          32          33          34          35          36
    1  -0.0044572  -0.0034194  -0.0028968  -0.0019328  -0.0012198   0.0014430
    2  -0.0027880  -0.0002507   0.0017690  -0.0101663  -0.0045042   0.0067942
    3  -0.0031030   0.0013018   0.0084482  -0.0000792  -0.0001436   0.0001018
    4  -0.0000608  -0.0003250  -0.0003603   0.0211448   0.0092881  -0.0075053
    5  -0.0024686  -0.0043038   0.0003555   0.0059523   0.0033952  -0.0024364
    6   0.0007277   0.0015507  -0.0004126   0.0063647   0.0024018  -0.0021862
    7   0.0070018   0.0187396  -0.0021619  -0.0484616  -0.0148992   0.0241263
    8  -0.0052900  -0.0057669   0.0016509   0.0113803   0.0082601  -0.0018108
    9   0.0035745   0.0057289  -0.0001547   0.0503577   0.0112972  -0.0252105
   10   0.0006199   0.0003717  -0.0014899  -0.6848749  -0.3060483   0.0358548
   11  -0.0000684   0.0003186   0.0003721  -0.3229715  -0.1718809   0.0266364
   12  -0.0006589  -0.0005021   0.0017506  -0.0022230   0.0077015  -0.0068974
   13  -0.1979453   0.1256343  -0.0721279  -0.0000698  -0.0023573  -0.0032471
   14   0.1231414  -0.1674063   0.0618073   0.0032467  -0.0009372  -0.0061344
   15  -0.0725252   0.0671323  -0.0649799   0.0003428   0.0000980  -0.0006425
   16  -0.0232460  -0.0093005  -0.0027720  -0.0039186   0.0001074   0.0061008
   17   0.0176084   0.0130934   0.0010845  -0.0020248  -0.0003557  -0.0003117
   18  -0.0089448  -0.0070686  -0.0056141  -0.0004112   0.0009097   0.0019582
   19  -0.0004362  -0.0004033  -0.0002133  -0.0002471  -0.0000821   0.0001147
   20   0.0012543   0.0007834   0.0004039  -0.0001324  -0.0000292   0.0001142
   21  -0.0006146  -0.0000160   0.0005758   0.0002406   0.0001054   0.0000604
   22   0.0007919   0.0012405  -0.0004539  -0.0000537  -0.0000929   0.0002095
   23  -0.0000249   0.0002818   0.0002044   0.0001915   0.0000971  -0.0002936
   24  -0.0001658   0.0005672   0.0010968   0.0003471   0.0002078  -0.0003374
   25  -0.0002377  -0.0004781   0.0001095   0.0020167   0.0015553   0.0009853
   26   0.0004624  -0.0000851   0.0009813  -0.0008549   0.0002964   0.0012231
   27  -0.0001680  -0.0003818  -0.0007235  -0.0059993  -0.0022267   0.0019039
   28  -0.0000748   0.0000287  -0.0001389  -0.0125401  -0.0083681  -0.0039372
   29   0.0000680  -0.0000140  -0.0000627   0.0051750   0.0020960  -0.0029816
   30   0.0000462   0.0001385  -0.0001784   0.0287054   0.0126162  -0.0025407
   31   0.2180864  -0.1318110   0.0819153  -0.0000301  -0.0000673  -0.0001199
   32  -0.1318110   0.1633895  -0.0685115  -0.0003124   0.0000213   0.0000520
   33   0.0819153  -0.0685115   0.0602356   0.0005982  -0.0001639  -0.0000556
   34  -0.0000301  -0.0003124   0.0005982   1.0329799   0.4832672  -0.0094156
   35  -0.0000673   0.0000213  -0.0001639   0.4832672   0.2814416   0.0008563
   36  -0.0001199   0.0000520  -0.0000556  -0.0094156   0.0008563   0.0556399
   37  -0.0000118   0.0000349  -0.0000082  -0.3040127  -0.1610829  -0.0446093
   38  -0.0000162  -0.0000612   0.0001089  -0.1727506  -0.1179005  -0.0217077
   39   0.0000364   0.0000088   0.0000118  -0.0688283  -0.0336598  -0.0217940
           37          38          39
    1  -0.0001186   0.0002007   0.0000080
    2  -0.0003982   0.0009693  -0.0011081
    3   0.0000633  -0.0001297  -0.0001600
    4   0.0007729  -0.0009689   0.0007829
    5   0.0003842  -0.0003674   0.0001279
    6  -0.0003049   0.0002619   0.0003190
    7   0.0003691  -0.0000550  -0.0024408
    8   0.0006469  -0.0004416   0.0001847
    9  -0.0015849   0.0011366   0.0036486
   10  -0.0016132   0.0089698   0.0225504
   11  -0.0038346   0.0042242   0.0083660
   12  -0.0044096  -0.0047321  -0.0030591
   13  -0.0005362   0.0003370   0.0008439
   14  -0.0009460   0.0001953   0.0014741
   15   0.0000037  -0.0003442   0.0003540
   16   0.0004961   0.0001507  -0.0012641
   17   0.0001248  -0.0002433   0.0002418
   18   0.0002523  -0.0000764  -0.0006163
   19   0.0000107   0.0000115  -0.0000399
   20   0.0000172  -0.0000059  -0.0000299
   21   0.0000172   0.0000074  -0.0000000
   22  -0.0000178   0.0000340  -0.0000598
   23  -0.0000003  -0.0000180   0.0000656
   24   0.0000374  -0.0000101   0.0000578
   25   0.0000586  -0.0000716   0.0000964
   26   0.0001000   0.0000772  -0.0002264
   27   0.0002983  -0.0001077  -0.0004451
   28   0.0011586  -0.0026502  -0.0008744
   29  -0.0018551   0.0041725  -0.0017325
   30   0.0010553  -0.0006946   0.0031762
   31  -0.0000118  -0.0000162   0.0000364
   32   0.0000349  -0.0000612   0.0000088
   33  -0.0000082   0.0001089   0.0000118
   34  -0.3040127  -0.1727506  -0.0688283
   35  -0.1610829  -0.1179005  -0.0336598
   36  -0.0446093  -0.0217077  -0.0217940
   37   0.3034443   0.1668089   0.0491893
   38   0.1668089   0.1093993   0.0262878
   39   0.0491893   0.0262878   0.0185070
 Gradient time:  CPU 538.41 s  wall 605.54 s
 **********************************************************************
 **                                                                  **
 **                       VIBRATIONAL ANALYSIS                       **
 **                       --------------------                       **
 **                                                                  **
 **        VIBRATIONAL FREQUENCIES (CM**-1) AND NORMAL MODES         **
 **     FORCE CONSTANTS (mDYN/ANGSTROM) AND REDUCED MASSES (AMU)     **
 **                  INFRARED INTENSITIES (KM/MOL)                   **
 **                                                                  **
 **********************************************************************
 

 Mode:                 1                      2                      3
 Frequency:      -573.67                  41.67                 123.43
 Force Cnst:      1.6788                 0.0028                 0.0448
 Red. Mass:       8.6583                 2.7251                 4.9948
 IR Active:          YES                    YES                    YES
 IR Intens:        3.063                  0.267                  1.051
 Raman Active:       YES                    YES                    YES
               X      Y      Z        X      Y      Z        X      Y      Z
 C         -0.001  0.063  0.015    0.021  0.053 -0.058   -0.128  0.020  0.213
 C         -0.031 -0.047 -0.099    0.111 -0.010 -0.056   -0.037 -0.065 -0.077
 C          0.260 -0.136 -0.427    0.059 -0.095  0.040   -0.007 -0.114 -0.200
 C         -0.242  0.171  0.555    0.070 -0.120  0.047    0.183  0.095 -0.189
 C          0.032 -0.042 -0.051   -0.071 -0.066  0.094   -0.062 -0.076 -0.059
 N          0.022  0.029  0.040   -0.090  0.016  0.036   -0.141  0.005  0.225
 H         -0.012  0.048  0.083    0.029  0.119 -0.124   -0.183  0.083  0.424
 H          0.011 -0.044 -0.138    0.208 -0.000 -0.123   -0.014 -0.068 -0.112
 H         -0.067 -0.082  0.165    0.085 -0.140  0.065    0.001 -0.122 -0.204
 H          0.211  0.046 -0.258    0.212 -0.416  0.187    0.243  0.138 -0.356
 H          0.018 -0.074 -0.073   -0.143 -0.111  0.175   -0.058 -0.103 -0.117
 C         -0.046 -0.038 -0.045   -0.097  0.220 -0.104    0.203  0.130  0.056
 H         -0.136  0.050  0.300   -0.251  0.531 -0.252    0.167  0.123  0.284
 TransDip   0.053  0.008  0.017    0.011  0.007 -0.011    0.005 -0.014 -0.030

 Mode:                 4                      5                      6
 Frequency:       205.65                 254.85                 513.92
 Force Cnst:      0.0718                 0.1205                 0.3063
 Red. Mass:       2.8815                 3.1481                 1.9685
 IR Active:          YES                    YES                    YES
 IR Intens:        2.166                  0.018                 34.500
 Raman Active:       YES                    YES                    YES
               X      Y      Z        X      Y      Z        X      Y      Z
 C          0.050 -0.026 -0.120    0.069  0.025 -0.020    0.009 -0.023 -0.090
 C          0.079 -0.056 -0.080    0.099  0.006 -0.068   -0.064  0.037  0.186
 C          0.039 -0.074  0.084    0.068 -0.025 -0.047    0.027 -0.004 -0.081
 C         -0.093  0.236 -0.082   -0.162 -0.087 -0.169    0.018 -0.008 -0.054
 C         -0.047 -0.041  0.171    0.057 -0.001 -0.011   -0.038  0.025  0.089
 N         -0.041 -0.011  0.098    0.034  0.029  0.030   -0.003 -0.005  0.004
 H          0.088 -0.029 -0.283    0.070  0.042 -0.030    0.059 -0.078 -0.284
 H          0.161 -0.076 -0.228    0.140  0.002 -0.122   -0.105  0.052  0.272
 H          0.025 -0.078  0.120    0.128 -0.039 -0.144    0.042 -0.028 -0.062
 H         -0.270  0.519 -0.134   -0.159 -0.030 -0.239    0.158 -0.105 -0.204
 H         -0.121 -0.035  0.346    0.044 -0.006  0.007   -0.088  0.073  0.290
 C          0.015 -0.024 -0.067   -0.166  0.040  0.262    0.064 -0.036 -0.112
 H          0.187 -0.320 -0.072   -0.293  0.112  0.736   -0.229  0.257  0.660
 TransDip   0.037 -0.012 -0.027    0.002  0.002 -0.004   -0.132 -0.014  0.133

 Mode:                 7                      8                      9
 Frequency:       571.37                 596.51                 619.77
 Force Cnst:      0.4241                 0.5346                 0.3779
 Red. Mass:       2.2050                 2.5499                 1.6698
 IR Active:          YES                    YES                    YES
 IR Intens:      113.598                 15.964                  5.057
 Raman Active:       YES                    YES                    YES
               X      Y      Z        X      Y      Z        X      Y      Z
 C         -0.030  0.032  0.132   -0.021  0.019  0.065    0.000  0.001  0.006
 C          0.040 -0.034 -0.148   -0.003 -0.005  0.029    0.015 -0.006 -0.012
 C         -0.023  0.021  0.105    0.052 -0.042 -0.143   -0.001  0.002  0.020
 C          0.000  0.018  0.018   -0.014  0.011 -0.065   -0.073  0.152 -0.062
 C         -0.023  0.007  0.084   -0.059  0.046  0.206    0.004 -0.013 -0.013
 N          0.035 -0.037 -0.140    0.047 -0.046 -0.183   -0.005 -0.001  0.007
 H         -0.116  0.121  0.469   -0.095  0.091  0.358    0.004  0.005 -0.010
 H          0.052 -0.033 -0.155   -0.033  0.035  0.184    0.029 -0.011 -0.041
 H         -0.098  0.098  0.129    0.050  0.015 -0.238   -0.005 -0.007  0.042
 H         -0.028  0.069  0.005    0.070 -0.111 -0.065    0.238 -0.512  0.268
 H         -0.015 -0.012  0.032   -0.141  0.101  0.491    0.014 -0.032 -0.069
 C          0.030 -0.037 -0.127   -0.012  0.025  0.105    0.064 -0.138  0.060
 H         -0.226  0.174  0.704    0.187 -0.142 -0.527   -0.310  0.608 -0.270
 TransDip  -0.194  0.041  0.278    0.112  0.011 -0.062   -0.053  0.048 -0.010

 Mode:                10                     11                     12
 Frequency:       760.09                 772.93                 814.83
 Force Cnst:      0.3777                 0.4282                 1.6550
 Red. Mass:       1.1096                 1.2166                 4.2307
 IR Active:          YES                    YES                    YES
 IR Intens:       70.894                 49.001                 13.697
 Raman Active:       YES                    YES                    YES
               X      Y      Z        X      Y      Z        X      Y      Z
 C          0.017 -0.013 -0.024    0.013 -0.011 -0.081   -0.201  0.110 -0.040
 C          0.015 -0.002 -0.025    0.024 -0.026 -0.081   -0.181 -0.056 -0.011
 C         -0.004  0.006 -0.010   -0.004 -0.008  0.003    0.009 -0.211  0.084
 C          0.025 -0.052  0.025   -0.011  0.018 -0.015    0.005 -0.050 -0.056
 C         -0.008  0.007  0.002    0.009 -0.001  0.010    0.187 -0.051  0.064
 N         -0.008 -0.006  0.013   -0.004  0.021  0.045    0.155  0.250 -0.039
 H         -0.023  0.034  0.130   -0.082  0.073  0.300   -0.140 -0.234 -0.139
 H         -0.064  0.066  0.273   -0.145  0.196  0.806    0.149  0.039 -0.047
 H         -0.015  0.011  0.002   -0.133  0.048  0.164   -0.326 -0.057  0.513
 H         -0.291  0.576 -0.241    0.080 -0.206  0.126    0.094  0.033 -0.366
 H         -0.005  0.024  0.022    0.027 -0.030 -0.079    0.055 -0.200  0.093
 C          0.021 -0.044  0.023   -0.011  0.013 -0.008    0.016 -0.007  0.012
 H         -0.263  0.529 -0.255    0.084 -0.185  0.099   -0.018  0.102 -0.154
 TransDip  -0.124  0.238 -0.027   -0.024 -0.005  0.223    0.071  0.004 -0.095

 Mode:                13                     14                     15
 Frequency:       838.74                 873.95                 889.38
 Force Cnst:      0.5393                 2.0582                 0.6189
 Red. Mass:       1.3011                 4.5735                 1.3280
 IR Active:          YES                    YES                    YES
 IR Intens:       24.678                  0.406                 24.075
 Raman Active:       YES                    YES                    YES
               X      Y      Z        X      Y      Z        X      Y      Z
 C          0.033  0.012  0.004    0.189  0.131  0.034    0.023 -0.001  0.070
 C         -0.010  0.044 -0.007   -0.100  0.311 -0.105    0.012 -0.017 -0.021
 C         -0.030 -0.020  0.006   -0.252 -0.128 -0.037    0.074  0.067  0.012
 C         -0.002 -0.001 -0.004   -0.012  0.006  0.019   -0.019 -0.030 -0.036
 C          0.025 -0.011 -0.139    0.024 -0.134  0.125   -0.063  0.048  0.005
 N          0.008 -0.031  0.024    0.081 -0.150  0.039   -0.023 -0.051 -0.008
 H         -0.017  0.056  0.203    0.247 -0.050 -0.119    0.104  0.001 -0.288
 H         -0.004  0.027 -0.070   -0.055  0.362 -0.005   -0.177 -0.057  0.042
 H         -0.076 -0.169  0.351   -0.111 -0.292 -0.045   -0.190  0.006  0.662
 H          0.001 -0.037  0.042    0.211 -0.061 -0.337    0.248 -0.084 -0.503
 H         -0.148  0.305  0.805    0.326 -0.021 -0.311   -0.002  0.034 -0.153
 C         -0.004 -0.003 -0.000    0.002 -0.004 -0.008   -0.002  0.003  0.011
 H         -0.001 -0.011  0.006    0.020 -0.015 -0.062    0.043 -0.031 -0.134
 TransDip  -0.016  0.017  0.157   -0.016  0.007 -0.011    0.110  0.001 -0.113

 Mode:                16                     17                     18
 Frequency:       919.71                 941.38                 987.33
 Force Cnst:      0.6885                 0.6628                 1.1396
 Red. Mass:       1.3816                 1.2695                 1.9842
 IR Active:          YES                    YES                    YES
 IR Intens:        2.326                  3.423                 23.075
 Raman Active:       YES                    YES                    YES
               X      Y      Z        X      Y      Z        X      Y      Z
 C          0.049 -0.030 -0.140   -0.002  0.025 -0.010   -0.097  0.012 -0.037
 C         -0.034  0.024  0.081   -0.036  0.030  0.019    0.050 -0.034  0.014
 C          0.018  0.020  0.017    0.048 -0.033 -0.086   -0.034 -0.118  0.039
 C         -0.010 -0.009 -0.008    0.033 -0.016 -0.052   -0.007  0.009  0.020
 C         -0.012 -0.002  0.024   -0.024  0.031  0.039   -0.045  0.210 -0.027
 N         -0.007  0.001  0.023    0.019 -0.041  0.005    0.045 -0.078  0.022
 H         -0.173  0.197  0.732   -0.002  0.025 -0.011   -0.116  0.061  0.009
 H          0.002 -0.118 -0.416   -0.063 -0.021 -0.126    0.431  0.102  0.072
 H         -0.045  0.015  0.160   -0.154 -0.128  0.485    0.271 -0.457 -0.022
 H          0.140 -0.051 -0.253   -0.415  0.114  0.657    0.097 -0.023 -0.142
 H          0.038 -0.080 -0.223    0.083  0.013 -0.220    0.276  0.499 -0.236
 C         -0.000  0.001  0.003    0.007  0.008  0.010    0.001 -0.004 -0.008
 H          0.017 -0.013 -0.049   -0.022  0.033  0.077   -0.001 -0.003  0.004
 TransDip   0.028 -0.005 -0.040   -0.035  0.015  0.045    0.087  0.089 -0.091

 Mode:                19                     20                     21
 Frequency:      1021.05                1061.88                1128.94
 Force Cnst:      0.8205                 2.5694                 1.1388
 Red. Mass:       1.3359                 3.8675                 1.5165
 IR Active:          YES                    YES                    YES
 IR Intens:        9.040                 16.792                  9.965
 Raman Active:       YES                    YES                    YES
               X      Y      Z        X      Y      Z        X      Y      Z
 C         -0.040  0.022 -0.015    0.213 -0.200  0.102    0.083  0.071  0.005
 C          0.087 -0.024  0.060    0.096 -0.018  0.047    0.022 -0.120  0.040
 C         -0.077  0.029 -0.067   -0.168 -0.111 -0.081   -0.088 -0.082 -0.006
 C         -0.000 -0.004  0.000    0.001  0.013  0.011    0.002  0.003  0.004
 C          0.023 -0.026  0.005   -0.074  0.096 -0.001    0.020  0.031 -0.002
 N          0.003 -0.050  0.015   -0.072  0.253 -0.084   -0.002  0.036 -0.010
 H         -0.035  0.080 -0.063    0.244 -0.581  0.193    0.065  0.696 -0.171
 H          0.614  0.120 -0.003    0.281  0.004 -0.016   -0.460 -0.315 -0.042
 H         -0.552  0.500  0.075   -0.225 -0.284  0.273   -0.204  0.093 -0.105
 H          0.007  0.010 -0.033    0.002  0.008  0.023   -0.001  0.002  0.011
 H          0.056  0.025  0.026   -0.105  0.005 -0.145    0.153  0.196 -0.013
 C         -0.004 -0.001 -0.000   -0.001 -0.003 -0.010    0.001 -0.002 -0.003
 H         -0.002 -0.003 -0.013   -0.001 -0.014  0.029   -0.005  0.006  0.008
 TransDip  -0.073  0.061  0.013    0.045 -0.123  0.004    0.006  0.088 -0.050

 Mode:                22                     23                     24
 Frequency:      1286.29                1306.88                1369.61
 Force Cnst:      1.2288                 2.2353                 2.4824
 Red. Mass:       1.2605                 2.2213                 2.2461
 IR Active:          YES                    YES                    YES
 IR Intens:        8.454                 14.530                 76.377
 Raman Active:       YES                    YES                    YES
               X      Y      Z        X      Y      Z        X      Y      Z
 C          0.001  0.040 -0.012   -0.101 -0.064 -0.007   -0.101  0.113 -0.050
 C          0.019  0.027  0.005    0.092 -0.001  0.012    0.214 -0.003  0.048
 C          0.074 -0.063  0.038   -0.079  0.150 -0.079   -0.107  0.015 -0.041
 C         -0.002 -0.001 -0.005    0.002  0.004  0.009    0.005  0.009  0.014
 C         -0.007 -0.032 -0.001    0.111 -0.148  0.089   -0.066 -0.005 -0.014
 N         -0.081  0.002 -0.019   -0.065  0.055 -0.035    0.126 -0.018  0.036
 H          0.029 -0.493  0.121   -0.130  0.176 -0.062   -0.070 -0.555  0.112
 H         -0.238 -0.065 -0.041   -0.047 -0.052 -0.011   -0.569 -0.300 -0.079
 H         -0.176  0.338 -0.123    0.292 -0.493  0.283   -0.050 -0.131  0.039
 H         -0.007 -0.007  0.010    0.019  0.014 -0.031    0.038  0.009 -0.042
 H          0.460  0.534 -0.007    0.558  0.334  0.045   -0.257 -0.233 -0.015
 C          0.003  0.001  0.001   -0.007 -0.002 -0.001   -0.014 -0.006 -0.001
 H          0.003  0.003 -0.001   -0.003 -0.014  0.003   -0.016 -0.011  0.001
 TransDip   0.086  0.024 -0.026   -0.065 -0.075  0.071   -0.270 -0.060  0.045

 Mode:                25                     26                     27
 Frequency:      1469.94                1562.33                1832.73
 Force Cnst:      4.9519                 6.4363                 8.7610
 Red. Mass:       3.8898                 4.4755                 4.4270
 IR Active:          YES                    YES                    YES
 IR Intens:       10.706                 57.827                  1.102
 Raman Active:       YES                    YES                    YES
               X      Y      Z        X      Y      Z        X      Y      Z
 C         -0.147 -0.232  0.018    0.075  0.203 -0.029   -0.009 -0.011 -0.001
 C          0.148  0.258 -0.014   -0.041 -0.136  0.020    0.032  0.009  0.003
 C          0.029 -0.156  0.018   -0.067  0.035 -0.025   -0.037  0.011  0.028
 C          0.002  0.012  0.012   -0.003 -0.002  0.003   -0.351 -0.165  0.011
 C          0.192  0.143  0.018    0.322  0.175  0.052    0.001 -0.000 -0.003
 N         -0.100 -0.039 -0.017   -0.260 -0.136 -0.040    0.003 -0.001  0.002
 H         -0.221  0.349 -0.159    0.132 -0.547  0.171   -0.014 -0.001  0.004
 H         -0.508  0.056 -0.142    0.061 -0.132  0.041   -0.021 -0.008  0.002
 H         -0.286  0.224 -0.022    0.111 -0.253  0.084    0.014 -0.011 -0.040
 H          0.046  0.002 -0.039    0.004 -0.001 -0.016   -0.511 -0.268 -0.017
 H         -0.181 -0.306  0.026   -0.174 -0.462  0.061   -0.014 -0.009  0.007
 C         -0.009 -0.006 -0.005    0.005  0.000 -0.003    0.361  0.161 -0.033
 H         -0.013 -0.010  0.013    0.000  0.009  0.008    0.540  0.244 -0.044
 TransDip   0.062 -0.014 -0.083    0.206  0.103 -0.080    0.008  0.015  0.029

 Mode:                28                     29                     30
 Frequency:      3209.82                3225.86                3238.19
 Force Cnst:      6.6315                 6.6919                 6.7531
 Red. Mass:       1.0924                 1.0915                 1.0931
 IR Active:          YES                    YES                    YES
 IR Intens:        5.467                  6.063                  5.819
 Raman Active:       YES                    YES                    YES
               X      Y      Z        X      Y      Z        X      Y      Z
 C         -0.006 -0.002 -0.001   -0.080 -0.011 -0.018   -0.014 -0.003 -0.003
 C          0.001 -0.002  0.001    0.010 -0.020  0.007   -0.002  0.020 -0.005
 C          0.014  0.009  0.008    0.004  0.004  0.002   -0.059 -0.050 -0.028
 C         -0.000 -0.000  0.000   -0.001 -0.000 -0.000   -0.000  0.000 -0.000
 C         -0.062  0.051 -0.029    0.008 -0.005  0.004   -0.013  0.013 -0.007
 N          0.002  0.001  0.000   -0.000 -0.000 -0.000    0.001  0.000  0.000
 H          0.080  0.009  0.018    0.913  0.103  0.206    0.157  0.019  0.035
 H         -0.008  0.029 -0.009   -0.091  0.274 -0.086    0.066 -0.223  0.069
 H         -0.163 -0.131 -0.082   -0.045 -0.040 -0.021    0.663  0.563  0.328
 H          0.002  0.002  0.000    0.004  0.003  0.001    0.001  0.002  0.003
 H          0.705 -0.578  0.321   -0.075  0.062 -0.034    0.149 -0.128  0.069
 C          0.000 -0.000 -0.000    0.000  0.000 -0.000    0.000  0.000  0.000
 H          0.002  0.001  0.000    0.001  0.001  0.000   -0.001 -0.001 -0.001
 TransDip  -0.050  0.036 -0.043   -0.077  0.001 -0.016   -0.071 -0.006 -0.031

 Mode:                31                     32                     33
 Frequency:      3263.07                3336.92                3444.57
 Force Cnst:      6.9163                 7.2260                 8.0436
 Red. Mass:       1.1025                 1.1014                 1.1506
 IR Active:          YES                    YES                    YES
 IR Intens:        3.182                 32.331                 33.247
 Raman Active:       YES                    YES                    YES
               X      Y      Z        X      Y      Z        X      Y      Z
 C          0.026  0.007  0.005    0.001  0.001 -0.000   -0.000  0.000  0.000
 C          0.023 -0.078  0.024   -0.000 -0.000  0.000   -0.001 -0.000 -0.000
 C         -0.021 -0.014 -0.009    0.000  0.000 -0.000    0.001 -0.000 -0.001
 C         -0.000  0.000  0.000   -0.072 -0.048 -0.029    0.039  0.022  0.007
 C         -0.004  0.004 -0.002   -0.000 -0.000  0.000    0.000 -0.000 -0.000
 N         -0.000  0.001 -0.000    0.000 -0.000 -0.000   -0.000  0.000 -0.000
 H         -0.255 -0.033 -0.057   -0.006 -0.001 -0.001    0.001  0.000 -0.000
 H         -0.265  0.841 -0.262    0.001 -0.001  0.000    0.000 -0.001  0.000
 H          0.196  0.161  0.096   -0.002 -0.001  0.001    0.001  0.001  0.002
 H         -0.000 -0.000  0.001    0.714  0.513  0.362   -0.195 -0.143 -0.106
 H          0.039 -0.034  0.018   -0.002  0.002 -0.001   -0.000  0.000 -0.000
 C          0.000  0.000  0.000   -0.010 -0.007 -0.005   -0.092 -0.049 -0.009
 H          0.001  0.000  0.000    0.256  0.145  0.037    0.820  0.474  0.143
 TransDip   0.043 -0.038 -0.005    0.153  0.095  0.023    0.168  0.076 -0.014

 STANDARD THERMODYNAMIC QUANTITIES AT   298.15 K  AND     1.00 ATM

   This Molecule has  1 Imaginary Frequencies
   Zero point vibrational energy:       60.733 kcal/mol

   Atom    1 Element C  Has Mass   12.00000
   Atom    2 Element C  Has Mass   12.00000
   Atom    3 Element C  Has Mass   12.00000
   Atom    4 Element C  Has Mass   12.00000
   Atom    5 Element C  Has Mass   12.00000
   Atom    6 Element N  Has Mass   14.00307
   Atom    7 Element H  Has Mass    1.00783
   Atom    8 Element H  Has Mass    1.00783
   Atom    9 Element H  Has Mass    1.00783
   Atom   10 Element H  Has Mass    1.00783
   Atom   11 Element H  Has Mass    1.00783
   Atom   12 Element C  Has Mass   12.00000
   Atom   13 Element H  Has Mass    1.00783
   Molecular Mass:    92.050050 amu
   Principal axes and moments of inertia in amu*Bohr^2:
                             1           2           3
    Eigenvalues --      297.47653   910.88149  1015.77461
          X               0.84655    -0.41455     0.33393
          Y               0.25120     0.86418     0.43599
          Z              -0.46931    -0.28521     0.83570
   Rotational Symmetry Number is   1
   The Molecule is an Asymmetric Top
   Translational Enthalpy:        0.889 kcal/mol
   Rotational Enthalpy:           0.889 kcal/mol
   Vibrational Enthalpy:         63.227 kcal/mol
   gas constant (RT):             0.592 kcal/mol
   Translational Entropy:        39.471  cal/mol.K
   Rotational Entropy:           27.111  cal/mol.K
   Vibrational Entropy:          15.809  cal/mol.K

   Total Enthalpy:               65.597 kcal/mol
   Total Entropy:                82.391  cal/mol.K
Archival summary:
1\1\c8-89\FREQ\ProcedureUnspecified\6-31+G**\166(2)\hpark21\TueMar106:42:312022TueMar106:42:312022\0\\#,FREQ,ProcedureUnspecified,6-31+G**,\\0,2\N\C,1,1.30576\H,2,1.08579,1,122.265\C,1,1.41179,2,105.292,3,179.741,0\H,4,1.08444,1,118.934,2,178.813,0\C,4,1.3734,1,113.071,2,-0.604456,0\H,6,1.08168,4,127.857,1,179.672,0\C,6,1.43523,4,105.443,1,-2.04928,0\H,8,1.08275,6,125.484,4,156.858,0\C,8,2.10586,6,103.292,4,-93.3232,0\H,10,1.075,8,97.3181,6,46.1474,0\C,10,1.24115,8,116.525,6,-133.041,0\H,12,1.0694,10,161.602,8,0.0481758,0\\\@

 Total job time:  626.66s(wall), 545.05s(cpu) 
 Tue Mar  1 06:42:31 2022

        *************************************************************
        *                                                           *
        *  Thank you very much for using Q-Chem.  Have a nice day.  *
        *                                                           *
        *************************************************************


