13
image # 1 Energy = -286.84620
C 1.94277   0.16379   -0.58219  
C 1.11713   -0.72531  -0.00337  
C -0.29260  -0.22597  -0.20587  
C -1.05177  0.04292   1.09466   
C -0.00236  1.04491   -0.98258  
N 1.25066   1.25758   -1.18968  
H 3.02493   0.14134   -0.64068  
H 1.37860   -1.63252  0.52621   
H -0.88067  -0.91548  -0.82914  
H -0.54184  0.71237   1.78983   
H -0.77138  1.73026   -1.33184  
C -2.22297  -0.46397  1.40139   
H -2.95051  -1.12992  0.95325   
13
image # 2 Energy = -286.83784
C 1.96037   0.19059   -0.56067  
C 1.14352   -0.74748  -0.05427  
C -0.27387  -0.27138  -0.28394  
C -1.11598  0.04330   1.12213   
C 0.00675   1.03519   -0.99617  
N 1.26360   1.29619   -1.13817  
H 3.04337   0.17807   -0.58909  
H 1.43011   -1.66305  0.45198   
H -0.81350  -0.95260  -0.97449  
H -0.56081  0.72678   1.78438   
H -0.77003  1.71165   -1.35715  
C -2.28853  -0.43981  1.48945   
H -3.05105  -1.10051  1.09825   
13
image # 3 Energy = -286.82046
C 1.97933   0.22478   -0.52502  
C 1.16234   -0.77689  -0.11241  
C -0.26700  -0.32182  -0.35838  
C -1.18537  0.02381   1.13257   
C 0.01924   1.02568   -1.01003  
N 1.26481   1.34265   -1.05862  
H 3.06174   0.22949   -0.51015  
H 1.48895   -1.70205  0.34493   
H -0.73358  -0.98277  -1.13329  
H -0.59233  0.72711   1.75847   
H -0.76419  1.68446   -1.38127  
C -2.32252  -0.39913  1.56620   
H -3.16723  -1.06213  1.27492   
13
image # 4 Energy = -286.81312
C 1.98197   0.25111   -0.47135  
C 1.17267   -0.79377  -0.16407  
C -0.27795  -0.36210  -0.40581  
C -1.19972  -0.01522  1.08334   
C 0.02635   1.01313   -1.00966  
N 1.25813   1.38586   -0.96439  
H 3.07441   0.29414   -0.40698  
H 1.54592   -1.74739  0.20715   
H -0.65813  -0.99645  -1.26457  
H -0.63630  0.70401   1.69674   
H -0.75265  1.65117   -1.40290  
C -2.35129  -0.37221  1.60382   
H -3.26941  -0.99469  1.48643   
13
image # 5 Energy = -286.79273
C 1.97340   0.26770   -0.39776  
C 1.19917   -0.80528  -0.22089  
C -0.25182  -0.40120  -0.49767  
C -1.24994  -0.06448  1.05418   
C 0.02601   0.99008   -0.99290  
N 1.24750   1.42567   -0.85783  
H 3.06207   0.35739   -0.27867  
H 1.60610   -1.78910  0.04835   
H -0.58421  -1.00266  -1.39884  
H -0.66968  0.68182   1.63228   
H -0.74903  1.62890   -1.42282  
C -2.38139  -0.35965  1.62640   
H -3.34077  -0.90997  1.69747   
13
image # 6 Energy = -286.77968
C 1.97648   0.29583   -0.33145  
C 1.21998   -0.83326  -0.27485  
C -0.19557  -0.43412  -0.61330  
C -1.30681  -0.08326  1.07785   
C 0.03141   0.98541   -0.98215  
N 1.22349   1.44802   -0.76430  
H 3.03605   0.39888   -0.15838  
H 1.65648   -1.81251  -0.08774  
H -0.52310  -1.00405  -1.52499  
H -0.69132  0.66363   1.58775   
H -0.74616  1.61379   -1.42859  
C -2.42603  -0.36796  1.64827   
H -3.38646  -0.84815  1.84721   
13
image # 7 Energy = -286.77737
C 1.95428   0.31553   -0.27060  
C 1.25263   -0.84665  -0.34249  
C -0.11683  -0.47212  -0.74906  
C -1.38027  -0.08885  1.13379   
C 0.03318   0.99271   -0.98585  
N 1.19752   1.45667   -0.66164  
H 3.01156   0.42498   -0.03012  
H 1.71252   -1.82500  -0.21569  
H -0.45389  -0.99684  -1.66623  
H -0.70451  0.65463   1.56586   
H -0.74350  1.60210   -1.42326  
C -2.47757  -0.37948  1.68498   
H -3.43117  -0.81073  1.95869   
13
image # 8 Energy = -286.79846
C 1.93567   0.33943   -0.21852  
C 1.28637   -0.85761  -0.42158  
C 0.02331   -0.50086  -0.94013  
C -1.47714  -0.05072  1.26581   
C 0.03960   0.98667   -0.99749  
N 1.17564   1.46036   -0.55658  
H 2.97209   0.43166   0.09581   
H 1.75901   -1.81989  -0.31915  
H -0.40369  -0.99778  -1.80318  
H -0.68968  0.65364   1.56105   
H -0.75425  1.60871   -1.40670  
C -2.54614  -0.40827  1.73298   
H -3.47125  -0.80945  2.00806   
13
image # 9 Energy = -286.81834
C 1.91380   0.36302   -0.14735  
C 1.32817   -0.86240  -0.49976  
C 0.16683   -0.49501  -1.13486  
C -1.53660  -0.00584  1.37098   
C 0.05711   0.97968   -1.00403  
N 1.14214   1.46516   -0.43808  
H 2.91776   0.44563   0.24268   
H 1.80170   -1.82352  -0.44650  
H -0.38123  -1.00778  -1.90619  
H -0.67015  0.63066   1.51669   
H -0.75771  1.60609   -1.38363  
C -2.59406  -0.43890  1.75283   
H -3.53478  -0.80730  2.07928   
13
image # 10 Energy = -286.82576
C 1.89487   0.36776   -0.08874  
C 1.37317   -0.85975  -0.58018  
C 0.24768   -0.47912  -1.27665  
C -1.59156  0.01548   1.44791   
C 0.07316   0.97103   -1.01784  
N 1.10147   1.45500   -0.33430  
H 2.86604   0.44025   0.37184   
H 1.86802   -1.81081  -0.55810  
H -0.30980  -0.98759  -2.02456  
H -0.68214  0.61123   1.49885   
H -0.75713  1.59581   -1.36743  
C -2.64524  -0.44965  1.79886   
H -3.57962  -0.80960  2.13046   
13
image # 11 Energy = -286.83196
C 1.87125   0.36423   -0.02927  
C 1.41464   -0.84385  -0.67312  
C 0.34927   -0.44283  -1.40104  
C -1.63992  0.04066   1.52453   
C 0.09371   0.96126   -1.03386  
N 1.05219   1.42750   -0.22696  
H 2.80345   0.42860   0.51022   
H 1.93815   -1.79141  -0.67557  
H -0.24525  -0.96884  -2.14072  
H -0.70046  0.58149   1.47049   
H -0.75435  1.58288   -1.35001  
C -2.68873  -0.45859  1.83892   
H -3.62700  -0.81323  2.18298   
13
image # 12 Energy = -286.83578
C 1.84621   0.34553   0.02668   
C 1.48372   -0.82498  -0.76151  
C 0.42603   -0.39506  -1.53199  
C -1.68391  0.07092   1.60908   
C 0.11654   0.95413   -1.04784  
N 0.99791   1.38619   -0.12569  
H 2.73162   0.40870   0.64635   
H 2.00573   -1.75506  -0.78939  
H -0.16724  -0.94325  -2.25251  
H -0.73267  0.54472   1.44207   
H -0.74461  1.56563   -1.33336  
C -2.72999  -0.46119  1.88413   
H -3.67335  -0.82551  2.22411   
13
image # 13 Energy = -286.83787
C 1.81782   0.31579   0.05867   
C 1.54022   -0.79337  -0.83981  
C 0.48611   -0.35930  -1.59520  
C -1.73022  0.07231   1.66652   
C 0.12497   0.94316   -1.04721  
N 0.94419   1.33155   -0.05748  
H 2.65905   0.36170   0.75790   
H 2.09644   -1.70781  -0.89398  
H -0.03640  -0.87866  -2.39530  
H -0.78506  0.52028   1.43839   
H -0.73797  1.54916   -1.32996  
C -2.77875  -0.44578  1.95545   
H -3.71429  -0.83790  2.26433   
13
image # 14 Energy = -286.83866
C 1.79891   0.29540   0.08096   
C 1.57557   -0.74962  -0.88537  
C 0.51894   -0.34161  -1.64478  
C -1.74996  0.07138   1.70337   
C 0.14845   0.92802   -1.04208  
N 0.90585   1.28928   -0.00947  
H 2.60745   0.33418   0.83433   
H 2.15521   -1.68758  -0.97383  
H 0.04464   -0.83391  -2.46587  
H -0.82147  0.50343   1.42455   
H -0.73564  1.54510   -1.33328  
C -2.80734  -0.43336  1.99629   
H -3.74672  -0.84899  2.29325   
13
image # 15 Energy = -286.83887
C 1.78120   0.26280   0.11760   
C 1.60971   -0.74217  -0.91608  
C 0.56621   -0.31403  -1.68285  
C -1.78472  0.06806   1.71327   
C 0.12871   0.92717   -1.04419  
N 0.87278   1.25630   0.03436   
H 2.56125   0.29319   0.88251   
H 2.21463   -1.64183  -1.04001  
H 0.13832   -0.77116  -2.55665  
H -0.84709  0.47855   1.41260   
H -0.73703  1.52293   -1.31978  
C -2.83297  -0.43906  2.01883   
H -3.76900  -0.82842  2.35479   
13
image # 16 Energy = -286.83891
C 1.75448   0.22981   0.14106   
C 1.65697   -0.72838  -0.95003  
C 0.63757   -0.26631  -1.72291  
C -1.83218  0.05111   1.72284   
C 0.12017   0.90112   -1.03876  
N 0.81336   1.19296   0.07898   
H 2.48037   0.20849   0.95364   
H 2.32030   -1.56896  -1.13043  
H 0.28684   -0.65918  -2.68729  
H -0.88663  0.46249   1.41923   
H -0.74980  1.49892   -1.32201  
C -2.87761  -0.43666  2.07452   
H -3.80965  -0.81105  2.43403   
13
image # 17 Energy = -286.83907
C 1.72750   0.18874   0.16666   
C 1.71377   -0.69592  -0.98804  
C 0.69379   -0.23315  -1.78748  
C -1.87315  0.03506   1.73961   
C 0.11213   0.88251   -1.04075  
N 0.75417   1.11952   0.11925   
H 2.39298   0.11448   1.01672   
H 2.42503   -1.48774  -1.20630  
H 0.43612   -0.53492  -2.78584  
H -0.93286  0.44715   1.42608   
H -0.75409  1.46436   -1.32772  
C -2.91996  -0.42994  2.13101   
H -3.85069  -0.79535  2.50984   
13
image # 18 Energy = -286.83787
C 1.69111   0.13860   0.17733   
C 1.76010   -0.65777  -1.03031  
C 0.75720   -0.20502  -1.82005  
C -1.91735  -0.00411  1.73582   
C 0.10445   0.85516   -1.05376  
N 0.69609   1.04429   0.14511   
H 2.30862   -0.00179  1.06033   
H 2.53966   -1.38982  -1.25550  
H 0.58549   -0.39128  -2.87614  
H -0.98385  0.44600   1.45200   
H -0.76603  1.42300   -1.34600  
C -2.95930  -0.41715  2.19215   
H -3.88303  -0.76521  2.59481   
13
image # 19 Energy = -286.83693
C 1.65006   0.08319   0.19337   
C 1.83102   -0.62208  -1.06960  
C 0.81908   -0.15187  -1.87438  
C -1.96348  -0.03006  1.75227   
C 0.11174   0.82217   -1.06553  
N 0.62686   0.95205   0.16742   
H 2.21997   -0.12056  1.09444   
H 2.64695   -1.28134  -1.29802  
H 0.73330   -0.24928  -2.95454  
H -1.03879  0.43483   1.46653   
H -0.77584  1.37911   -1.36677  
C -3.00194  -0.40431  2.25654   
H -3.91839  -0.73860  2.67822   
13
image # 20 Energy = -286.83485
C 1.60943   0.01065   0.20109   
C 1.88385   -0.56977  -1.09954  
C 0.89585   -0.10091  -1.92343  
C -2.00867  -0.06922  1.75589   
C 0.10079   0.79312   -1.08785  
N 0.56101   0.85904   0.17493   
H 2.13715   -0.24960  1.10412   
H 2.76518   -1.17100  -1.31560  
H 0.87318   -0.10126  -3.01073  
H -1.09951  0.43027   1.49393   
H -0.78439  1.32511   -1.40058  
C -3.03907  -0.38404  2.32387   
H -3.94919  -0.70070  2.77089   
13
image # 21 Energy = -286.83342
C 1.55352   -0.06200  0.18844   
C 1.94741   -0.52042  -1.12874  
C 0.98916   -0.02976  -1.96904  
C -2.05713  -0.09497  1.77672   
C 0.09653   0.76000   -1.10858  
N 0.49493   0.74851   0.16780   
H 2.06499   -0.37708  1.10691   
H 2.86876   -1.05626  -1.32070  
H 1.00354   0.03633   -3.05194  
H -1.16159  0.41437   1.51332   
H -0.79528  1.27245   -1.44300  
C -3.07520  -0.36072  2.39484   
H -3.98038  -0.66370  2.86270   
13
image # 22 Energy = -286.83317
C 1.52155   -0.14520  0.18656   
C 2.00733   -0.47244  -1.14680  
C 1.07513   0.05417   -1.99793  
C -2.11089  -0.11739  1.80317   
C 0.09316   0.72378   -1.14435  
N 0.41986   0.63803   0.15365   
H 1.99429   -0.48774  1.08602   
H 2.96399   -0.94918  -1.31416  
H 1.12337   0.16136   -3.08271  
H -1.21942  0.39113   1.52367   
H -0.80269  1.22099   -1.49037  
C -3.11084  -0.33535  2.46755   
H -4.00487  -0.62219  2.95435   
13
image # 23 Energy = -286.83393
C 1.48006   -0.21738  0.15810   
C 2.06307   -0.41717  -1.14601  
C 1.16487   0.14854   -2.02059  
C -2.16868  -0.13179  1.83857   
C 0.09155   0.68431   -1.17929  
N 0.34552   0.50202   0.12232   
H 1.92953   -0.59668  1.06663   
H 3.05899   -0.84477  -1.30451  
H 1.24348   0.28464   -3.10096  
H -1.27791  0.35042   1.51729   
H -0.80489  1.16731   -1.54570  
C -3.14698  -0.30639  2.54548   
H -4.02983  -0.57245  3.05929   
13
image # 24 Energy = -286.83509
C 1.45166   -0.28454  0.13656   
C 2.12100   -0.36777  -1.16244  
C 1.25165   0.22146   -2.02668  
C -2.22232  -0.14057  1.87311   
C 0.08667   0.64571   -1.21608  
N 0.28090   0.38324   0.07545   
H 1.87760   -0.68388  1.04456   
H 3.12231   -0.75054  -1.28779  
H 1.34611   0.39115   -3.09827  
H -1.33088  0.29747   1.49663   
H -0.80597  1.12216   -1.60100  
C -3.17452  -0.27507  2.61749   
H -4.05277  -0.51953  3.16558   
13
image # 25 Energy = -286.83689
C 1.44195   -0.34793  0.09567   
C 2.16307   -0.31389  -1.15690  
C 1.31779   0.28884   -2.03586  
C -2.27234  -0.14315  1.90924   
C 0.10307   0.59860   -1.27340  
N 0.22349   0.26698   0.02444   
H 1.82869   -0.75878  1.03034   
H 3.17780   -0.66371  -1.27108  
H 1.44523   0.49433   -3.07844  
H -1.38283  0.22226   1.45099   
H -0.80986  1.07998   -1.66081  
C -3.21243  -0.24750  2.69559   
H -4.06170  -0.44988  3.28030   
13
image # 26 Energy = -286.84107
C 1.43093   -0.38442  0.06824   
C 2.19830   -0.26633  -1.14870  
C 1.37017   0.33773   -2.04431  
C -2.32446  -0.12385  1.97385   
C 0.12182   0.56315   -1.32025  
N 0.17778   0.15311   -0.03316  
H 1.77730   -0.81834  1.01223   
H 3.22574   -0.58645  -1.25891  
H 1.54065   0.58973   -3.06664  
H -1.44441  0.11490   1.38477   
H -0.79772  1.03064   -1.71633  
C -3.22844  -0.22346  2.74998   
H -4.06697  -0.37514  3.39599   
13
image # 27 Energy = -286.84378
C 1.40704   -0.41700  0.05292   
C 2.23147   -0.22091  -1.13358  
C 1.41439   0.38156   -2.04365  
C -2.34773  -0.09761  2.02756   
C 0.12930   0.52627   -1.36912  
N 0.15007   0.03991   -0.11321  
H 1.71558   -0.87300  0.98809   
H 3.27071   -0.50348  -1.24097  
H 1.64423   0.69495   -3.05353  
H -1.53760  -0.02167  1.32200   
H -0.77446  0.96696   -1.77878  
C -3.25209  -0.19557  2.82039   
H -4.05090  -0.28041  3.52187   
