13   
From qcts1.out: Frame 500 / 500, Energy=    -286.8139071010
C        1.9063151814    0.3292779489   -0.3180490561
C        1.1441999447   -0.8112563772   -0.2503251794
C       -0.1781338786   -0.4109257955   -0.6389686043
C       -1.1104992627    0.0280051834    1.1975156102
C       -0.0266968393    1.0138124732   -1.0002505091
N        1.1817313218    1.4526926690   -0.7720001200
H        2.9578538757    0.4446261236   -0.0793471201
H        1.4553183598   -1.8001772457    0.0583286899
H       -0.9416912865   -1.0669069680   -1.0377361091
H       -0.3122885497    0.6107223444    1.6205031040
H       -0.8203896716    1.6616492494   -1.3598400102
C       -2.2441132239   -0.4466211426    1.3710086866
H       -3.1576703712   -0.9779510925    1.2075366802
