13   
Frame   0 IRC: Energy =  -286.9462121985 ; +0.0000 kcal/mol
C        1.5946923947    0.3591172785   -0.4408924186
C        1.1285548471   -0.9423504393   -0.5025592229
C       -0.1857827342   -1.4358543184   -0.1788955891
C       -1.2471211881   -0.7048592692    0.2712553316
C       -0.2622270414    1.6374449189    0.3460690644
N        1.0200060253    1.5314231133   -0.0780792536
H        2.6350290854    0.4889117980   -0.7429440390
H        1.8492755458   -1.6831144196   -0.8386175907
H       -0.3357919603   -2.5054768898   -0.3076333120
H       -2.1714435720   -1.2419295732    0.4715289136
H       -0.5251016418    2.6658525330    0.5987115002
C       -1.2792609747    0.7144466683    0.5182814471
H       -2.2208287853    1.1163885995    0.8837751691
13   
From qcts2.out: Frame 5 / 5, Energy=    -286.7517119504
C        1.6782582310    0.3416816662   -0.3574100181
C        1.1604284498   -0.9503842729   -0.4658007828
C       -0.1624430739   -1.4159576694   -0.2353289727
C       -1.2487844023   -0.6493100443    0.0746349265
C        0.3357064529    2.3912924486    0.2526281374
N        1.0263770291    1.3973522560    0.0977988635
H        2.7219010049    0.5176768931   -0.6036057351
H        1.8866220024   -1.7102272500   -0.7365909169
H       -0.3141238750   -2.4906439912   -0.2549668151
H       -2.3639446395   -1.1408095320    0.1433259432
H        0.2238771263    2.8570784310    1.2449645027
C       -2.2235095231    0.2571722717   -0.0292015829
H       -2.7001766841    0.6064899667    0.8984288881
13   
Frame 152 IRC: Energy =  -286.8552243831 ; +57.0958 kcal/mol
C        1.6912549636    0.3586346560   -0.5137566479
C        1.2708136005   -0.9576066303   -0.4562766604
C       -0.0252422287   -1.4843084131   -0.0989833721
C       -1.1167115937   -0.8365109363    0.2963764033
C        0.2439539694    2.4114136485   -0.3063920572
N        0.9583530533    1.4279919887   -0.2213667538
H        2.7236042081    0.5767735663   -0.7765070323
H        2.0261696513   -1.6930983011   -0.7119558158
H       -0.1138252033   -2.5702206241   -0.1549849856
H       -2.9768428065    0.0670633472   -0.0357502653
H       -0.0210001259    3.0308101979    0.5640322183
C       -2.2245550728   -0.2603297666    0.6816983404
H       -2.4359724154   -0.0706127330    1.7338666285
