13   
Frame   0 IRC: Energy =  -286.9462072305 ; +0.0000 kcal/mol
C        1.5927980874    0.3373116769   -0.4654699911
C        1.1949131981   -0.9668224123   -0.2263173827
C       -0.1051399606   -1.4450283889    0.1707205757
C       -1.3349305159    0.7401140056    0.2899355595
C       -0.3584636629    1.6532756805   -0.0677010263
N        0.9462353619    1.5264004704   -0.4113584472
H        2.6376800823    0.4527151366   -0.7579597885
H        1.9653668003   -1.7222425638   -0.3579084832
H       -0.1963842008   -2.5211024919    0.3002092218
H       -2.3104915964    1.1633962571    0.5151080940
H       -0.6853991510    2.6941718407   -0.0817611041
C       -1.2210106484   -0.6924064405    0.3985552598
H       -2.1251737936   -1.2197827700    0.6939475121
13   
From qcts2.out: Frame 3 / 3, Energy=    -286.8682123023
C        1.2252999260    0.2118247311    0.1476943418
C        1.1084614968   -1.0801974352   -0.5944648057
C       -0.0665532204   -1.5211155611   -0.1377660991
C       -1.2333512686    0.7475769432    0.2735999235
C       -0.4107940738    1.6003095736   -0.5161656811
N        0.8788439760    1.3452384833   -0.5554875689
H        1.9153873663    0.3194194505    0.9875928519
H        1.7742906810   -1.4687567518   -1.3591310207
H       -0.5706724419   -2.4651449776   -0.3508299038
H       -2.1966164046    1.0989969259    0.6353599777
H       -0.7941852664    2.4698714214   -1.0456491399
C       -0.6447690665   -0.4609905740    0.7557776670
H       -1.0643284111   -0.8287057516    1.6982449993
13   
Frame  91 IRC: Energy =  -286.8969190000 ; +30.9289 kcal/mol
C        1.0353053643    0.1299159643    0.2728727481
C        1.0742140721   -1.1269410687   -0.5962416588
C       -0.1385695619   -1.5480539586   -0.2105008476
C       -1.2523622987    0.7510074688    0.2288016915
C       -0.4260712275    1.6744010642   -0.4344993837
N        0.8724925707    1.3843821686   -0.4545798531
H        1.8216842195    0.2198245387    1.0323659012
H        1.8223344834   -1.4967304249   -1.2894938152
H       -0.7551023046   -2.4053252598   -0.4656483834
H       -2.3296604158    0.8258562125    0.3287178283
H       -0.7818515711    2.5708697019   -0.9379095071
C       -0.3937234784   -0.3597332523    0.7356339378
H       -0.5486898519   -0.6194731548    1.7904813419
13   
Frame   0 IRC: Energy =  -286.8969880000 ; +0.0000 kcal/mol
C        1.0042836072    0.2216049221    0.3323543011
C        1.1840799552   -1.0722923328   -0.4629398147
C       -0.0157230430   -1.5629760734   -0.1229705744
C       -1.3127637842    0.6651087789    0.1016386642
C       -0.5104712838    1.6121197592   -0.5576667805
N        0.8035442258    1.4226712253   -0.4715778154
H        1.7326939383    0.4028295862    1.1311373369
H        1.9962824410   -1.4190895109   -1.0936373288
H       -0.5522783367   -2.4767347369   -0.3612575711
H       -2.3971702726    0.6587032431    0.1180217809
H       -0.8933306861    2.4501726519   -1.1360278187
C       -0.4152361736   -0.3466265136    0.7332454093
H       -0.6239105870   -0.5554909989    1.7896802110
13   
From qcts2.out: Frame 3 / 3, Energy=    -286.8564679450
C        0.9062596326    0.1913601887    0.3259237159
C        1.1593186027   -1.1085564734   -0.4014148950
C        0.0492977700   -1.8209470162   -0.2958271960
C       -1.3325447101    0.8333021752    0.2707529228
C       -0.5018579553    1.6239138817   -0.6171019631
N        0.7605083045    1.3049146494   -0.6217533397
H        1.6561439773    0.4524552822    1.0853012915
H        2.0717133946   -1.3376973863   -0.9527791680
H       -0.3421959452   -2.7757924361   -0.6316153512
H       -2.4005184866    0.9496205783    0.4098558011
H       -0.8683906967    2.4280958766   -1.2524332873
C       -0.5012245677   -0.0965557934    0.8666805642
H       -0.7145027892   -0.6562453058    1.7694628471
13   
Frame  89 IRC: Energy =  -286.8749135540 ; +13.8519 kcal/mol
C        0.6584220780    0.0777698540    0.2511410181
C        1.0460861996   -1.2369535382   -0.3988312637
C        0.3970550009   -2.3731616926   -0.2826461068
C       -1.3661811095    1.1610038917    0.4016955702
C       -0.4896729477    1.7544615871   -0.6190688323
N        0.6539600123    1.1670801461   -0.7426094754
H        1.4465895568    0.3354815449    0.9805137156
H        1.9552232016   -1.1818073304   -1.0087060604
H        0.4980078700   -3.3894257558   -0.6396122695
H       -2.3630778551    1.5019224495    0.6553723658
H       -0.7460058983    2.6137571234   -1.2358842761
C       -0.6843668732    0.1263520946    0.9310647733
H       -1.0060392354   -0.5564803743    1.7075708411
