13   
Frame   0 IRC: Energy =  -286.8969880000 ; +0.0000 kcal/mol
C        1.0042836072    0.2216049221    0.3323543011
C        1.1840799552   -1.0722923328   -0.4629398147
C       -0.0157230430   -1.5629760734   -0.1229705744
C       -1.3127637842    0.6651087789    0.1016386642
C       -0.5104712838    1.6121197592   -0.5576667805
N        0.8035442258    1.4226712253   -0.4715778154
H        1.7326939383    0.4028295862    1.1311373369
H        1.9962824410   -1.4190895109   -1.0936373288
H       -0.5522783367   -2.4767347369   -0.3612575711
H       -2.3971702726    0.6587032431    0.1180217809
H       -0.8933306861    2.4501726519   -1.1360278187
C       -0.4152361736   -0.3466265136    0.7332454093
H       -0.6239105870   -0.5554909989    1.7896802110
13   
From qcts2.out: Frame 3 / 3, Energy=    -286.8564679450
C        0.9062596326    0.1913601887    0.3259237159
C        1.1593186027   -1.1085564734   -0.4014148950
C        0.0492977700   -1.8209470162   -0.2958271960
C       -1.3325447101    0.8333021752    0.2707529228
C       -0.5018579553    1.6239138817   -0.6171019631
N        0.7605083045    1.3049146494   -0.6217533397
H        1.6561439773    0.4524552822    1.0853012915
H        2.0717133946   -1.3376973863   -0.9527791680
H       -0.3421959452   -2.7757924361   -0.6316153512
H       -2.4005184866    0.9496205783    0.4098558011
H       -0.8683906967    2.4280958766   -1.2524332873
C       -0.5012245677   -0.0965557934    0.8666805642
H       -0.7145027892   -0.6562453058    1.7694628471
13   
Frame  89 IRC: Energy =  -286.8749135540 ; +13.8519 kcal/mol
C        0.6584220780    0.0777698540    0.2511410181
C        1.0460861996   -1.2369535382   -0.3988312637
C        0.3970550009   -2.3731616926   -0.2826461068
C       -1.3661811095    1.1610038917    0.4016955702
C       -0.4896729477    1.7544615871   -0.6190688323
N        0.6539600123    1.1670801461   -0.7426094754
H        1.4465895568    0.3354815449    0.9805137156
H        1.9552232016   -1.1818073304   -1.0087060604
H        0.4980078700   -3.3894257558   -0.6396122695
H       -2.3630778551    1.5019224495    0.6553723658
H       -0.7460058983    2.6137571234   -1.2358842761
C       -0.6843668732    0.1263520946    0.9310647733
H       -1.0060392354   -0.5564803743    1.7075708411
13   
Frame  61 IRC: Energy =  -286.8748800300 ; +0.1171 kcal/mol
C        0.6306851241   -0.0078315587    0.3192927897
C        1.0085150912   -1.2392780196   -0.4826126645
C        0.2895449529   -2.3326656526   -0.5968148789
C       -1.3310823940    1.1876160335    0.4427329062
C       -0.3192377021    1.8586192971   -0.3871206540
N        0.7938978362    1.2119605552   -0.4921204525
H        1.3513300193    0.0824900885    1.1510730420
H        1.9752601365   -1.1585814376   -0.9929070835
H        0.3680396157   -3.2916794127   -1.0911916668
H       -2.3272046852    1.5604368448    0.6504284253
H       -0.4582329634    2.8158075126   -0.8861689394
C       -0.7707021251    0.0385101092    0.8682765853
H       -1.2108129061   -0.7254043597    1.4971325910
13   
From qcts2.out: Frame 3 / 3, Energy=    -286.8730185625
C        0.5790544799   -0.0352893116    0.2311747782
C        0.8307935072   -1.2536009814   -0.6523237532
C        0.7682008494   -2.5052669198   -0.2609792757
C       -1.3102393635    1.2579465512    0.5061931094
C       -0.2877865073    1.9236155324   -0.3163840418
N        0.7783120848    1.2206772000   -0.5076226091
H        1.3236673354   -0.0396890026    1.0433333656
H        1.0868829714   -1.0153558992   -1.6907845300
H        0.9040669756   -3.4887008517   -0.6893610225
H       -2.2756881208    1.6714468289    0.7730542678
H       -0.3860945744    2.9185566255   -0.7462793586
C       -0.8034700230    0.0535144506    0.8332604179
H       -1.2620467596   -0.7325635364    1.4204040629
13   
Frame   0 IRC: Energy =  -286.8750665627 ; +0.0000 kcal/mol
C        0.5011281854   -0.1105052994    0.3053428782
C        0.6357935931   -1.3132604470   -0.6125259769
C        1.3181439088   -2.4009546905   -0.3373579249
C       -1.2843917211    1.3457335805    0.4468306444
C       -0.1460561540    1.9225961501   -0.2865181105
N        0.8708261247    1.1330843501   -0.3928803647
H        1.1943414283   -0.2366556792    1.1486905241
H        0.0987777551   -1.2266609897   -1.5645736578
H        1.5463995269   -3.3472253420   -0.8089590218
H       -2.2277706653    1.8411909320    0.6445620454
H       -0.1245653893    2.9228426215   -0.7149326223
C       -0.9071142878    0.1041759415    0.8099795185
H       -1.4755123051   -0.6343611284    1.3623420679
