13   
Frame   0 IRC: Energy =  -286.8750665627 ; +0.0000 kcal/mol
C        0.5011281854   -0.1105052994    0.3053428782
C        0.6357935931   -1.3132604470   -0.6125259769
C        1.3181439088   -2.4009546905   -0.3373579249
C       -1.2843917211    1.3457335805    0.4468306444
C       -0.1460561540    1.9225961501   -0.2865181105
N        0.8708261247    1.1330843501   -0.3928803647
H        1.1943414283   -0.2366556792    1.1486905241
H        0.0987777551   -1.2266609897   -1.5645736578
H        1.5463995269   -3.3472253420   -0.8089590218
H       -2.2277706653    1.8411909320    0.6445620454
H       -0.1245653893    2.9228426215   -0.7149326223
C       -0.9071142878    0.1041759415    0.8099795185
H       -1.4755123051   -0.6343611284    1.3623420679
13   
From qcts2.out: Frame 3 / 3, Energy=    -286.8730185625
C        0.5790544799   -0.0352893116    0.2311747782
C        0.8307935072   -1.2536009814   -0.6523237532
C        0.7682008494   -2.5052669198   -0.2609792757
C       -1.3102393635    1.2579465512    0.5061931094
C       -0.2877865073    1.9236155324   -0.3163840418
N        0.7783120848    1.2206772000   -0.5076226091
H        1.3236673354   -0.0396890026    1.0433333656
H        1.0868829714   -1.0153558992   -1.6907845300
H        0.9040669756   -3.4887008517   -0.6893610225
H       -2.2756881208    1.6714468289    0.7730542678
H       -0.3860945744    2.9185566255   -0.7462793586
C       -0.8034700230    0.0535144506    0.8332604179
H       -1.2620467596   -0.7325635364    1.4204040629
13   
Frame  61 IRC: Energy =  -286.8748800300 ; +0.1171 kcal/mol
C        0.6306851241   -0.0078315587    0.3192927897
C        1.0085150912   -1.2392780196   -0.4826126645
C        0.2895449529   -2.3326656526   -0.5968148789
C       -1.3310823940    1.1876160335    0.4427329062
C       -0.3192377021    1.8586192971   -0.3871206540
N        0.7938978362    1.2119605552   -0.4921204525
H        1.3513300193    0.0824900885    1.1510730420
H        1.9752601365   -1.1585814376   -0.9929070835
H        0.3680396157   -3.2916794127   -1.0911916668
H       -2.3272046852    1.5604368448    0.6504284253
H       -0.4582329634    2.8158075126   -0.8861689394
C       -0.7707021251    0.0385101092    0.8682765853
H       -1.2108129061   -0.7254043597    1.4971325910
13   
Frame  89 IRC: Energy =  -286.8749135540 ; +13.8519 kcal/mol
C        0.6584220780    0.0777698540    0.2511410181
C        1.0460861996   -1.2369535382   -0.3988312637
C        0.3970550009   -2.3731616926   -0.2826461068
C       -1.3661811095    1.1610038917    0.4016955702
C       -0.4896729477    1.7544615871   -0.6190688323
N        0.6539600123    1.1670801461   -0.7426094754
H        1.4465895568    0.3354815449    0.9805137156
H        1.9552232016   -1.1818073304   -1.0087060604
H        0.4980078700   -3.3894257558   -0.6396122695
H       -2.3630778551    1.5019224495    0.6553723658
H       -0.7460058983    2.6137571234   -1.2358842761
C       -0.6843668732    0.1263520946    0.9310647733
H       -1.0060392354   -0.5564803743    1.7075708411
13   
From qcts2.out: Frame 3 / 3, Energy=    -286.8564679450
C        0.9107206687    0.1922934025    0.3293812588
C        1.1637796388   -1.1076232596   -0.3979573521
C        0.0537588061   -1.8200138024   -0.2923696531
C       -1.3280836740    0.8342353890    0.2742104657
C       -0.4973969192    1.6248470955   -0.6136444202
N        0.7649693406    1.3058478632   -0.6182957968
H        1.6606050134    0.4533884960    1.0887588344
H        2.0761744307   -1.3367641725   -0.9493216251
H       -0.3377349091   -2.7748592223   -0.6281578083
H       -2.3960574505    0.9505537921    0.4133133440
H       -0.8639296606    2.4290290904   -1.2489757444
C       -0.4967635316   -0.0956225796    0.8701381071
H       -0.7100417531   -0.6553120920    1.7729203900
13   
Frame   0 IRC: Energy =  -286.8969880000 ; +0.0000 kcal/mol
C        1.0042836072    0.2216049221    0.3323543011
C        1.1840799552   -1.0722923328   -0.4629398147
C       -0.0157230430   -1.5629760734   -0.1229705744
C       -1.3127637842    0.6651087789    0.1016386642
C       -0.5104712838    1.6121197592   -0.5576667805
N        0.8035442258    1.4226712253   -0.4715778154
H        1.7326939383    0.4028295862    1.1311373369
H        1.9962824410   -1.4190895109   -1.0936373288
H       -0.5522783367   -2.4767347369   -0.3612575711
H       -2.3971702726    0.6587032431    0.1180217809
H       -0.8933306861    2.4501726519   -1.1360278187
C       -0.4152361736   -0.3466265136    0.7332454093
H       -0.6239105870   -0.5554909989    1.7896802110
13   
Frame  91 IRC: Energy =  -286.8969190000 ; +30.9289 kcal/mol
C        1.0353053643    0.1299159643    0.2728727481
C        1.0742140721   -1.1269410687   -0.5962416588
C       -0.1385695619   -1.5480539586   -0.2105008476
C       -1.2523622987    0.7510074688    0.2288016915
C       -0.4260712275    1.6744010642   -0.4344993837
N        0.8724925707    1.3843821686   -0.4545798531
H        1.8216842195    0.2198245387    1.0323659012
H        1.8223344834   -1.4967304249   -1.2894938152
H       -0.7551023046   -2.4053252598   -0.4656483834
H       -2.3296604158    0.8258562125    0.3287178283
H       -0.7818515711    2.5708697019   -0.9379095071
C       -0.3937234784   -0.3597332523    0.7356339378
H       -0.5486898519   -0.6194731548    1.7904813419
13   
From qcts2.out: Frame 3 / 3, Energy=    -286.8682123023
C        1.2313758266    0.2142611559    0.1524039155
C        1.1145373974   -1.0777610104   -0.5897552320
C       -0.0604773198   -1.5186791363   -0.1330565254
C       -1.2272753680    0.7500133680    0.2783094972
C       -0.4047181732    1.6027459984   -0.5114561074
N        0.8849198766    1.3476749081   -0.5507779952
H        1.9214632669    0.3218558753    0.9923024256
H        1.7803665816   -1.4663203270   -1.3544214470
H       -0.5645965413   -2.4627085528   -0.3461203301
H       -2.1905405040    1.1014333507    0.6400695514
H       -0.7881093658    2.4723078462   -1.0409395662
C       -0.6386931659   -0.4585541492    0.7604872407
H       -1.0582525105   -0.8262693268    1.7029545730
13   
Frame   0 IRC: Energy =  -286.9462072305 ; +0.0000 kcal/mol
C        1.5927980874    0.3373116769   -0.4654699911
C        1.1949131981   -0.9668224123   -0.2263173827
C       -0.1051399606   -1.4450283889    0.1707205757
C       -1.3349305159    0.7401140056    0.2899355595
C       -0.3584636629    1.6532756805   -0.0677010263
N        0.9462353619    1.5264004704   -0.4113584472
H        2.6376800823    0.4527151366   -0.7579597885
H        1.9653668003   -1.7222425638   -0.3579084832
H       -0.1963842008   -2.5211024919    0.3002092218
H       -2.3104915964    1.1633962571    0.5151080940
H       -0.6853991510    2.6941718407   -0.0817611041
C       -1.2210106484   -0.6924064405    0.3985552598
H       -2.1251737936   -1.2197827700    0.6939475121
13   
Frame   0 IRC: Energy =  -286.9462121985 ; +0.0000 kcal/mol
C        1.5946923947    0.3591172785   -0.4408924186
C        1.1285548471   -0.9423504393   -0.5025592229
C       -0.1857827342   -1.4358543184   -0.1788955891
C       -1.2471211881   -0.7048592692    0.2712553316
C       -0.2622270414    1.6374449189    0.3460690644
N        1.0200060253    1.5314231133   -0.0780792536
H        2.6350290854    0.4889117980   -0.7429440390
H        1.8492755458   -1.6831144196   -0.8386175907
H       -0.3357919603   -2.5054768898   -0.3076333120
H       -2.1714435720   -1.2419295732    0.4715289136
H       -0.5251016418    2.6658525330    0.5987115002
C       -1.2792609747    0.7144466683    0.5182814471
H       -2.2208287853    1.1163885995    0.8837751691
13   
From qcts2.out: Frame 5 / 5, Energy=    -286.7517119504
C        1.6767053003    0.3408038836   -0.3596312825
C        1.1588755191   -0.9512620555   -0.4680220472
C       -0.1639960046   -1.4168354520   -0.2375502371
C       -1.2503373330   -0.6501878269    0.0724136621
C        0.3341535222    2.3904146660    0.2504068730
N        1.0248240984    1.3964744734    0.0955775991
H        2.7203480742    0.5167991105   -0.6058269995
H        1.8850690717   -1.7111050326   -0.7388121813
H       -0.3156768057   -2.4915217738   -0.2571880795
H       -2.3654975702   -1.1416873146    0.1411046788
H        0.2223241956    2.8562006484    1.2427432383
C       -2.2250624538    0.2562944891   -0.0314228473
H       -2.7017296148    0.6056121841    0.8962076237
13   
Frame 152 IRC: Energy =  -286.8552243831 ; +57.0958 kcal/mol
C        1.6912549636    0.3586346560   -0.5137566479
C        1.2708136005   -0.9576066303   -0.4562766604
C       -0.0252422287   -1.4843084131   -0.0989833721
C       -1.1167115937   -0.8365109363    0.2963764033
C        0.2439539694    2.4114136485   -0.3063920572
N        0.9583530533    1.4279919887   -0.2213667538
H        2.7236042081    0.5767735663   -0.7765070323
H        2.0261696513   -1.6930983011   -0.7119558158
H       -0.1138252033   -2.5702206241   -0.1549849856
H       -2.9768428065    0.0670633472   -0.0357502653
H       -0.0210001259    3.0308101979    0.5640322183
C       -2.2245550728   -0.2603297666    0.6816983404
H       -2.4359724154   -0.0706127330    1.7338666285
