13   
Frame   0 IRC: Energy =  -286.8764961209 ; +0.0000 kcal/mol
C        1.6806220490    0.4064389654   -0.1596845201
C        1.1335791003   -0.8278867552   -0.2626938280
C       -0.3067691375   -1.0694230393   -0.0886928063
C       -1.1622985611    0.3248777942    0.0410068280
C       -0.3382750323    1.5316444022   -0.1462829207
N        0.9507733155    1.5951832289   -0.1467868137
H        2.7561286000    0.5415924400   -0.2233136675
H        1.7630345620   -1.6821874092   -0.4978504089
H       -0.7381328327   -1.9104105128   -0.6337059307
H       -2.1665022145    0.3852148665   -0.3820983531
H       -0.8793018298    2.4560415369   -0.3584331341
C       -0.9654562855   -0.6261488044    1.1361771961
H       -1.7274017331   -1.1249367133    1.7223583585
13   
From qcts2.out: Frame 3 / 3, Energy=    -286.8277536404
C        1.3671138301    0.2915646631    0.2562294130
C        1.0306215280   -0.8469022956   -0.5697244840
C       -0.3971554733   -1.0280557654   -0.3809151903
C       -1.1309559008    0.3430063874    0.0255971610
C       -0.3915608927    1.5466501493   -0.3801693408
N        0.8740001741    1.5430637700   -0.1562367706
H        2.3212675781    0.3393828639    0.7774155469
H        1.7130595547   -1.6632018612   -0.7776282900
H       -0.9928724149   -1.8263145952   -0.8142595419
H       -2.2177655313    0.3343249773   -0.0354882777
H       -0.8648030414    2.3857034573   -0.8861017238
C       -0.4558275421   -0.4897744040    1.0334147233
H       -0.9008636479   -0.9548860878    1.9111796187
13   
Frame  76 IRC: Energy =  -286.8575840000 ; +11.8675 kcal/mol
C        1.1290306652    0.2003782706    0.4389300968
C        1.0271923875   -0.8095820377   -0.7114818623
C       -0.4106860712   -1.0260874292   -0.4658438804
C       -1.1190603794    0.3115164347   -0.0600503210
C       -0.3880110979    1.5620825015   -0.4196008795
N        0.8558930538    1.5497692232   -0.1109381476
H        2.0070494255    0.1809600550    1.0836372157
H        1.7391646816   -1.6044900340   -0.8984335998
H       -1.0227048808   -1.8670319411   -0.7725431337
H       -2.2005938284    0.2669609232    0.0116614918
H       -0.8431084263    2.4113473388   -0.9266710514
C       -0.2473240822   -0.3909763680    0.9295544276
H       -0.5268414475   -0.7848469369    1.9017796439
