13   
Frame   0 IRC: Energy =  -286.8706193735 ; +0.0000 kcal/mol
C        1.9574414626    0.2137686774   -0.5414394878
C        1.1268522648   -0.7098529817   -0.0208820526
C       -0.2822739222   -0.2060644808   -0.2157793724
C       -1.0799659679   -0.0365746372    1.0785750618
C        0.0082424147    1.1120669755   -0.9084147056
N        1.2646064231    1.3366136955   -1.0904601220
H        3.0392110647    0.1969043243   -0.5905256200
H        1.3874801330   -1.6455845939    0.4561599151
H       -0.8453393862   -0.8580668909   -0.8998990911
H       -0.6034806936    0.5890153397    1.8352503968
H       -0.7580639795    1.8143315772   -1.2263379532
C       -2.2521616108   -0.5820226153    1.3142465062
H       -2.9625482029   -1.2245343900    0.8095065250
13   
From qcts2.out: Frame 4 / 4, Energy=    -286.8391123587
C        1.9141397488    0.3228992214   -0.3222140275
C        1.1377290444   -0.8080480643   -0.2431537818
C       -0.1835494367   -0.3963603124   -0.6343481699
C       -1.1193784953    0.0301946131    1.1969463166
C       -0.0184805764    1.0244741536   -1.0077639561
N        1.1973122050    1.4486877280   -0.7857587008
H        2.9665887570    0.4287378430   -0.0881005262
H        1.4396850341   -1.7971784610    0.0723039546
H       -0.9471107119   -1.0473971265   -1.0402204334
H       -0.3367311861    0.6321773235    1.6228460831
H       -0.8029786575    1.6788066326   -1.3730686420
C       -2.2437898771   -0.4705950300    1.3740862164
H       -3.1495002484   -1.0194511505    1.2268217294
13   
Frame 240 IRC: Energy =  -286.8704059170 ; +0.1339 kcal/mol
C        1.7125492877   -0.2171770291    0.0853630181
C        2.2577630633   -0.0515330580   -1.2581234100
C        1.1840363016    0.2401955362   -2.0494908952
C       -2.2801861944   -0.1192068025    2.0740882323
C        0.0325999134    0.2387920050   -1.1525201134
N        0.3768368486   -0.0380434781    0.1217761585
H        2.2677245431   -0.4568277245    0.9861238013
H        3.2976081498   -0.1460701029   -1.5410137595
H        1.1634676085    0.4356118427   -3.1131602787
H       -1.3186732356   -0.1187556447    1.5903074412
H       -1.0010726338    0.4296956249   -1.4214999176
C       -3.3679886086   -0.1034808259    2.6035784805
H       -4.3246650436   -0.0932003432    3.0745712426
