13   
Frame   0 IRC: Energy =  -286.8625600051 ; +0.0000 kcal/mol
C        0.9365494245   -0.2311277403   -0.9044965831
C        0.0542700820   -1.3163137069   -0.4253016821
C       -0.9515907892   -1.0698325442    0.4432840154
C       -1.3039882852    0.2907872402    0.8245254913
C       -0.5796326734    1.3444127978    0.3966910979
N        0.6146272261    1.1867516971   -0.3515393777
H        1.2088205827   -0.2431515139   -1.9618392629
H        0.2159822355   -2.3133905239   -0.8276795338
H       -1.5835193305   -1.8836996244    0.7866853253
H       -2.2242438137    0.4651422157    1.3740852909
H       -0.9016721370    2.3736583331    0.5228090867
C        1.7508553954    0.5019596276    0.0714933553
H        2.7635420824    0.8948037426    0.0512827767
13   
From qcts2.out: Frame 7 / 7, Energy=    -286.7448422332
C        1.3611836815    0.1680363770   -1.0293631840
C       -0.2474969814   -1.8876034479   -0.2865789766
C       -1.2186390614   -1.2341157614    0.3283807345
C       -1.2463752393    0.1680196696    0.7636127767
C       -0.4677649886    1.2090109211    0.4013819772
N        0.5096395636    1.3458711264   -0.6195521563
H        1.3618705710   -0.5668181527   -1.8107032294
H       -0.0875687412   -2.9027572459   -0.6270603305
H       -2.1198350733   -1.8066889597    0.5868523390
H       -2.0203588229    0.3990997780    1.4918627763
H       -0.6587381753    2.1718630833    0.8732171520
C        1.9346009282    1.0424295691   -0.2756500226
H        2.7545366587    1.5398604413    0.2135265779
13   
Frame 118 IRC: Energy =  -286.7509003232 ; +70.0676 kcal/mol
C        1.7586962830    0.1245848535   -0.5129239105
C       -0.7170330843   -1.7673416386   -0.7884281540
C       -1.3380479511   -1.2246155184    0.2518547221
C       -1.2176795828    0.1283741198    0.7919235104
C       -0.3658656956    1.0986763871    0.3911426563
N        0.5341954163    0.9973424915   -0.6911639165
H        1.9955334523   -0.9228140475   -0.5669767957
H       -0.7553349461   -2.7217179804   -1.2981827401
H       -2.0636447873   -1.8609441089    0.7764109448
H       -1.9089929749    0.3822470876    1.5905757302
H       -0.4227819120    2.0856950885    0.8501801565
C        1.9595214288    1.3886705773   -0.4337777935
H        2.5414343537    2.2918426884   -0.3606344099
