13   
Frame   0 IRC: Energy =  -286.8724601193 ; +0.0000 kcal/mol
C        1.8310512122    0.2079965210    0.0053954782
C        1.3974190607   -0.8749972867   -0.8913378217
C        0.0755797579   -0.6988485288   -1.0821545156
C       -1.4913412198    0.3023379258    0.6480828423
C       -0.3307138246    0.5318956033   -0.3020080922
N        0.8842871079    1.0078858339    0.3662000963
H        2.8511085508    0.3552371932    0.3547462698
H        2.0328260935   -1.6508881862   -1.3021425853
H       -0.5976517825   -1.3020901514   -1.6798211330
H       -2.4202771356   -0.0242939574    0.1638058102
H       -0.6303253837    1.3218853104   -1.0130829753
C       -1.4568779555    0.4608557232    1.9517631803
H       -2.1450844810    0.3630239999    2.7805534454
13   
From qcts2.out: Frame 4 / 4, Energy=    -286.8169860836
C        1.7739807851    0.3000435291   -0.0120642352
C        1.1604368062   -0.8909081269   -0.4132175833
C       -0.1195397204   -0.5141080059   -0.8852150017
C       -1.3267559049    0.0609258982    0.4436079938
C       -0.1562180431    0.9486290873   -0.7099396475
N        1.0074825451    1.4031962287   -0.1886165064
H        2.7658710796    0.3983608157    0.4176951059
H        1.5530863124   -1.8949216834   -0.3297926113
H       -0.7859313568   -1.1046290364   -1.5026468397
H       -2.3069734522    0.1782507801   -0.0215714775
H       -0.8572613235    1.6309741357   -1.1770769341
C       -1.1337591635   -0.1811229516    1.7046841827
H       -1.5744185643   -0.3346906701    2.6741535549
13   
Frame 112 IRC: Energy =  -286.8689804379 ; +2.1835 kcal/mol
C        1.9457968371    0.2041265136   -0.3030232012
C        1.0362185786   -0.7464297007   -0.0179773722
C       -0.3026141770   -0.2357133352   -0.4788990881
C       -1.4271254472   -0.1994111894    0.5398078775
C        0.1035350782    1.1323906098   -0.9974880907
N        1.3679510211    1.3628225911   -0.9070518178
H        3.0147282808    0.1876492081   -0.1304755435
H        1.2064556386   -1.7103218775    0.4428135532
H       -0.6490901255   -0.8259616591   -1.3468551349
H       -2.3859234800    0.1793365003    0.1623181052
H       -0.5865031901    1.8590023861   -1.4194853126
C       -1.3372915821   -0.5746849063    1.7963793936
H       -1.9861374326   -0.6328051409    2.6599366315
13   
Frame 113 IRC: Energy =  -286.8690085276 ; +4.4613 kcal/mol
C        1.9603928520    0.1280087969   -0.2422829642
C        0.9837353630   -0.7955943879   -0.1702433519
C       -0.3082582248   -0.1064221140   -0.5192521131
C       -1.4483460323   -0.2087906491    0.4775875074
C        0.1987930104    1.3087239417   -0.7331000817
N        1.4740018516    1.4255649309   -0.5897763341
H        3.0221585247    0.0010948703   -0.0709660881
H        1.0790380372   -1.8445157441    0.0767773106
H       -0.6748689841   -0.4730966672   -1.4954601086
H       -2.3700415208    0.3121593461    0.1875650985
H       -0.4318909384    2.1546826749   -0.9955524170
C       -1.4094958829   -0.8536273433    1.6223454048
H       -2.0752180555   -1.0481876552    2.4523581373
13   
From qcts2.out: Frame 4 / 4, Energy=    -286.7922229914
C        2.0576312224    0.1537996266   -0.4196453412
C        1.0948059915   -0.7517514498   -0.1642955122
C       -0.2325411141   -0.0585007043   -0.3763933447
C       -1.0917457650   -0.1329045260    0.8641097506
C        0.2558146571    1.3294704712   -0.7377299563
N        1.5393921962    1.4348978743   -0.7765628750
H        3.1313966052    0.0158844098   -0.3922778985
H        1.2075625536   -1.7876564413    0.1255515569
H       -0.7577598552   -0.5024000024   -1.2415523619
H       -2.3367149418    0.1110515697    0.6436705906
H       -0.3974965784    2.1696810081   -0.9589864425
C       -2.0266083599   -1.0509199110    1.1594929901
H       -2.5664450319   -1.0149947903    2.1130289312
13   
Frame   0 IRC: Energy =  -286.8761179876 ; +0.0000 kcal/mol
C        2.1533176575    0.1311404754   -0.5078366295
C        1.1925506902   -0.7707807381   -0.2348762653
C       -0.1313267574   -0.0406358125   -0.2805650748
C       -1.0010926800   -0.1628219816    0.9066809235
C        0.3623276949    1.3687209901   -0.5771414198
N        1.6390010530    1.4462500607   -0.7210612340
H        3.2220471705   -0.0268372223   -0.5821554876
H        1.3054908269   -1.8266935534   -0.0285788128
H       -0.7061929189   -0.3799946169   -1.1687705911
H       -2.9117112541   -0.9182168525    0.4407252299
H       -0.2912920279    2.2306536390   -0.6784167266
C       -2.2239039125   -0.5434790474    1.2076132923
H       -2.6092155420   -0.5073053405    2.2243827960
