13   
Frame  71 IRC: Energy =  -286.8793650000 ; -1.8010 kcal/mol
C        1.5779469684    0.4187592301   -0.1637269914
C        0.8150283981   -0.8257173397    0.0989648667
C       -0.5607284438   -0.9747999929   -0.5291910636
C       -1.1156385907    0.3342952092    0.0132378223
C       -0.3603678040    1.5755786040   -0.2795527659
N        0.9707663675    1.5897774397   -0.3545177004
H        2.6647564820    0.3997771833   -0.1973506900
H        1.3917362961   -1.7400176595    0.2254794554
H       -1.0068983984   -1.7610263481   -1.1204013096
H       -2.1990878065    0.4174228136    0.0709183894
H       -0.8880146071    2.5101957788   -0.4561617909
C       -0.4691753240   -0.7121072545    0.9065177435
H       -0.8203235374   -1.2321376639    1.7857840344
13   
From qcts2.out: Frame 3 / 3, Energy=    -286.8561843435
C        1.5992435138    0.3891374047   -0.1740460005
C        0.9432099013   -0.8439965047   -0.1758706133
C       -0.5058459575   -0.9913445712   -0.4032809738
C       -1.1192468006    0.3455320194    0.0854966315
C       -0.3451703902    1.5645374723   -0.2761559942
N        0.9503535110    1.5837541910   -0.3612214507
H        2.6669293084    0.4397894493    0.0132384253
H        1.5256448803   -1.7541654733   -0.0539166813
H       -0.9965411772   -1.7333228739   -1.0259088169
H       -2.2029032288    0.4316674699    0.0005642690
H       -0.8899257434    2.4717209768   -0.5367960399
C       -0.6318629585   -0.6956749169    1.0150230651
H       -0.9938848585   -1.2076346429    1.8928741791
13   
Frame   0 IRC: Energy =  -286.8764950000 ; +0.0000 kcal/mol
C        1.6764250729    0.3747709935   -0.2334392591
C        1.1023141276   -0.8497570868   -0.3105020546
C       -0.3341608134   -1.0624972866   -0.0765829487
C       -1.1528042251    0.3488409284    0.1003397990
C       -0.3194233388    1.5367597442   -0.1509141628
N        0.9692597077    1.5764632583   -0.2118673813
H        2.7519111526    0.4884160752   -0.3297736923
H        1.7067755099   -1.7181395061   -0.5597740924
H       -0.8092292255   -1.8924266244   -0.6022800680
H       -2.1797468596    0.4256591709   -0.2616368981
H       -0.8537414331    2.4642254150   -0.3654143113
C       -0.9122004099   -0.6050758373    1.1836887942
H       -1.6453792659   -1.0872392438    1.8181562759
13   
Frame   0 IRC: Energy =  -286.8765340000 ; +0.0000 kcal/mol
C        1.6961896235    0.2910913340   -0.2562475246
C        1.1024641072   -0.9098530444   -0.0665970477
C       -0.3442786271   -1.0466614350    0.1650798587
C       -1.1478606630    0.3635609358   -0.0445855575
C       -0.2777981747    1.4737833930   -0.4744290197
N        1.0120695657    1.4853007544   -0.4907189456
H        2.7734389752    0.3636894575   -0.3710690082
H        1.6945118694   -1.8202707958   -0.1091027647
H       -0.8080220960   -1.9768711107   -0.1663343901
H       -2.1439049122    0.3612968415   -0.4906871160
H       -0.7856330212    2.3606255466   -0.8586635118
C       -0.9928474394   -0.3100877597    1.2462344857
H       -1.7783292075   -0.6356041174    1.9171205411
13   
From qcts2.out: Frame 3 / 3, Energy=    -286.8546796440
C        1.6953754700    0.2668787997   -0.3493249784
C        1.1322120701   -0.9502514332   -0.1272191673
C       -0.3152892577   -1.0128350170    0.1852734258
C       -1.1759193266    0.1336710086   -0.3967712000
C       -0.3433016567    1.3553510938   -0.2240724854
N        0.9808859317    1.4389325301   -0.2656992772
H        2.7556409388    0.3796664583   -0.5584927660
H        1.7058589088   -1.8681599870   -0.2087914140
H       -0.7675629862   -2.0050054394    0.1717519128
H       -2.0546757458    0.0524429272   -1.0314368968
H       -0.8851716388    2.2939473598   -0.1154390027
C       -1.0283469844   -0.0266657163    1.0371570259
H       -1.6997057237   -0.0579725844    1.8830648227
13   
Frame  54 IRC: Energy =  -286.8794400000 ; -1.8235 kcal/mol
C        1.6972968151    0.2857779795   -0.3293902075
C        1.1156163233   -0.9746863696   -0.1579400852
C       -0.3344249395   -1.0124754746    0.1093224141
C       -1.1935581559    0.0708540174   -0.5278534516
C       -0.4017701500    1.2410499860    0.0194188745
N        0.9971024879    1.4088652819   -0.2503268309
H        2.7616493263    0.3843098740   -0.5399281754
H        1.6985142330   -1.8883326426   -0.2169491222
H       -0.7991976302   -1.9874999512    0.2381869846
H       -2.1047485443    0.0151375592   -1.1073357752
H       -0.9309030126    2.1898026368    0.0673017701
C       -0.9292891026    0.1350830954    0.9143360449
H       -1.5762876505    0.1321140076    1.7811575598
