13   
Frame   0 IRC: Energy =  -286.8602700000 ; +0.0000 kcal/mol
C        1.1589794086    0.1304803584    0.4226177283
C        0.9553820095   -0.9980227466   -0.5804675674
C       -0.4620418026   -1.1026358935   -0.2571907161
C       -1.1011036645    0.3530283047    0.0160240134
C       -0.3133957348    1.4875886170   -0.5301053754
N        0.9466080268    1.4197347000   -0.2859754158
H        2.0590070336    0.1416224907    1.0376818322
H        1.5509601667   -1.3202361628   -1.4286876436
H       -1.1554880756   -1.9102025371   -0.4648202392
H       -2.1819595149    0.3701997332    0.1120341634
H       -0.7368100768    2.2969437411   -1.1219874517
C       -0.2333638937   -0.3043977920    1.0290870642
H       -0.4867738820   -0.5641028131    2.0517896073
13   
From qcts2.out: Frame 4 / 4, Energy=    -286.8438738381
C        1.1572173664    0.1586280257    0.4045243481
C        0.8974795935   -0.9676427411   -0.5899155269
C       -0.5007369262   -1.0140392325   -0.4942619578
C       -1.0852404314    0.2958680508    0.0491930763
C       -0.3606939806    1.4998442399   -0.5022428219
N        0.9029347424    1.4631818934   -0.2907681708
H        2.1005771980    0.1592987974    0.9473088278
H        1.5842661721   -1.6270212051   -1.1004994819
H       -1.1597081069   -1.8247912805   -0.7934498710
H       -2.1621171587    0.3151065870    0.1974433733
H       -0.8301217001    2.2989435755   -1.0720133491
C       -0.1684645229   -0.1564792474    1.1410278191
H       -0.3753922454   -0.6008974637    2.1036537347
13   
Frame  59 IRC: Energy =  -286.8734850000 ; -8.2925 kcal/mol
C        1.1460113781    0.1724902262    0.4345259844
C        0.8038347721   -1.0327776003   -0.4564551188
C       -0.5279478551   -1.0092895015   -0.6459723416
C       -1.0631183828    0.2191852587    0.1190320712
C       -0.3825188890    1.4446309703   -0.5245189690
N        0.8848204453    1.4382170763   -0.3628816863
H        2.1326030269    0.1813594371    0.8936805701
H        1.5247260376   -1.7330428731   -0.8618255674
H       -1.1378730901   -1.6926216701   -1.2261384860
H       -2.1389706337    0.2721304685    0.2844528312
H       -0.8971172888    2.2284210206   -1.0761632120
C       -0.1016683683    0.1140012979    1.3080214241
H       -0.2427811521   -0.6027041105    2.1142425001
13   
Frame  64 IRC: Energy =  -286.8735030000 ; -8.8849 kcal/mol
C        1.1313057399    0.1421300425    0.4813772685
C        0.8226872974   -0.9981175663   -0.5023523275
C       -0.5007680845   -0.9567041943   -0.7421187399
C       -1.0673532594    0.2040250099    0.1023678996
C       -0.3777508977    1.4769089354   -0.4259374702
N        0.8848369478    1.4624368921   -0.2296839344
H        2.1047766271    0.1243014400    0.9675931947
H        1.5571892978   -1.6761527830   -0.9209851724
H       -1.0827382583   -1.5775976645   -1.4135531402
H       -2.1477035724    0.2357297152    0.2398643643
H       -0.8835005457    2.2975228476   -0.9303717150
C       -0.1409036481    0.0160663831    1.3091726063
H       -0.3000776440   -0.7505490577    2.0646271661
13   
From qcts2.out: Frame 4 / 4, Energy=    -286.8475377375
C        1.1747872081    0.2344068355    0.4244369834
C        0.7521739279   -1.0068099792   -0.3618252714
C       -0.5468061641   -0.8764865343   -0.8795568184
C       -1.0717392343    0.1935578094    0.0759293488
C       -0.4190889408    1.4966770038   -0.3907692571
N        0.8554706751    1.5099535251   -0.2295168087
H        2.1523525685    0.1857403297    0.8952794914
H        1.4455132570   -1.8284307438   -0.5186678062
H       -1.0580241520   -1.4476689668   -1.6417583541
H       -2.1381654630    0.2065945685    0.2986079956
H       -0.9411984937    2.2926905361   -0.9173917298
C       -0.0385017894   -0.2370669849    1.1441023404
H       -0.1667733999   -0.7231573990    2.1011298866
13   
Frame   0 IRC: Energy =  -286.8593440000 ; +0.0000 kcal/mol
C        1.2020483640    0.2968718941    0.3973717450
C        0.6518928159   -1.0857946247   -0.1804447208
C       -0.6016286690   -0.8929725633   -0.8934841491
C       -1.0783918419    0.1715732368    0.0909278821
C       -0.4581395169    1.4742866052   -0.4016724722
N        0.8197271425    1.5144425158   -0.2709841290
H        2.2014198242    0.2461062344    0.8153561967
H        1.3416930674   -1.9208643611   -0.2378177434
H       -0.9371846917   -1.1568044435   -1.8916726194
H       -2.1289013505    0.1926387672    0.3862140645
H       -1.0035715481    2.2511441997   -0.9334929961
C        0.0453266776   -0.3687595079    1.0492656845
H       -0.0542902741   -0.7218679533    2.0704332572
