13   
Frame   0 IRC: Energy =  -286.8764950000 ; +0.0000 kcal/mol
C        1.6764250729    0.3747709935   -0.2334392591
C        1.1023141276   -0.8497570868   -0.3105020546
C       -0.3341608134   -1.0624972866   -0.0765829487
C       -1.1528042251    0.3488409284    0.1003397990
C       -0.3194233388    1.5367597442   -0.1509141628
N        0.9692597077    1.5764632583   -0.2118673813
H        2.7519111526    0.4884160752   -0.3297736923
H        1.7067755099   -1.7181395061   -0.5597740924
H       -0.8092292255   -1.8924266244   -0.6022800680
H       -2.1797468596    0.4256591709   -0.2616368981
H       -0.8537414331    2.4642254150   -0.3654143113
C       -0.9122004099   -0.6050758373    1.1836887942
H       -1.6453792659   -1.0872392438    1.8181562759
13   
From qcts2.out: Frame 3 / 3, Energy=    -286.8561843435
C        1.5992435138    0.3891374047   -0.1740460005
C        0.9432099013   -0.8439965047   -0.1758706133
C       -0.5058459575   -0.9913445712   -0.4032809738
C       -1.1192468006    0.3455320194    0.0854966315
C       -0.3451703902    1.5645374723   -0.2761559942
N        0.9503535110    1.5837541910   -0.3612214507
H        2.6669293084    0.4397894493    0.0132384253
H        1.5256448803   -1.7541654733   -0.0539166813
H       -0.9965411772   -1.7333228739   -1.0259088169
H       -2.2029032288    0.4316674699    0.0005642690
H       -0.8899257434    2.4717209768   -0.5367960399
C       -0.6318629585   -0.6956749169    1.0150230651
H       -0.9938848585   -1.2076346429    1.8928741791
13   
Frame  71 IRC: Energy =  -286.8793650000 ; -1.8010 kcal/mol
C        1.5779469684    0.4187592301   -0.1637269914
C        0.8150283981   -0.8257173397    0.0989648667
C       -0.5607284438   -0.9747999929   -0.5291910636
C       -1.1156385907    0.3342952092    0.0132378223
C       -0.3603678040    1.5755786040   -0.2795527659
N        0.9707663675    1.5897774397   -0.3545177004
H        2.6647564820    0.3997771833   -0.1973506900
H        1.3917362961   -1.7400176595    0.2254794554
H       -1.0068983984   -1.7610263481   -1.1204013096
H       -2.1990878065    0.4174228136    0.0709183894
H       -0.8880146071    2.5101957788   -0.4561617909
C       -0.4691753240   -0.7121072545    0.9065177435
H       -0.8203235374   -1.2321376639    1.7857840344
13   
Frame   0 IRC: Energy =  -286.8792600000 ; +0.0000 kcal/mol
C        1.5714992977    0.4699354594   -0.0191522498
C        0.8306312997   -0.8057049063    0.1290701805
C       -0.4909292986   -0.9710269034   -0.6014339603
C       -1.1230461811    0.3026544247   -0.0581226763
C       -0.3858008942    1.5717509268   -0.2680501095
N        0.9453517097    1.6276284484   -0.2287936804
H        2.6555285026    0.4878354686    0.0658372362
H        1.4239405009   -1.7079435178    0.2649047123
H       -0.8701056330   -1.7493097681   -1.2479479139
H       -2.2099494708    0.3541980410   -0.0754913401
H       -0.9259538775    2.4906061185   -0.4842228452
C       -0.5119731835   -0.7554550832    0.8444328917
H       -0.9091927723   -1.3151687085    1.6789697544
13   
From qcts2.out: Frame 3 / 3, Energy=    -286.8141289545
C        1.3588858744    0.4026973838    0.2302127494
C        0.8176575867   -0.9163592135   -0.2372796693
C       -0.5203073405   -0.8730587150   -0.8939603429
C       -1.0709599221    0.3220226415   -0.0451330559
C       -0.4019970795    1.5921127636   -0.3986174033
N        0.8892008847    1.6146440491   -0.1967769774
H        2.2603702660    0.3696593027    0.8338443234
H        1.4339165669   -1.8078828305   -0.2000628012
H       -1.0789757095   -1.8079948537   -0.9265624954
H       -2.1413930723    0.3370867623    0.1482472932
H       -0.9191360082    2.4416035643   -0.8340543119
C       -0.1543048692   -0.5268119355    0.8426392403
H       -0.4729571775   -1.1477189185    1.6775034504
13   
Frame  84 IRC: Energy =  -286.8569100000 ; +14.0248 kcal/mol
C        1.1909420969    0.3158280614    0.4358416359
C        0.7239979418   -1.0113468543   -0.2272494047
C       -0.4947228323   -0.8051748399   -1.0238608301
C       -1.0636470897    0.2051529878   -0.0143736678
C       -0.4248352283    1.5303154158   -0.4058552545
N        0.8399893422    1.5707827307   -0.1965287622
H        2.1488000683    0.2704696361    0.9421780956
H        1.4012792655   -1.8574149507   -0.2618611199
H       -1.0685429287   -1.5944152477   -1.4944399934
H       -2.1321329853    0.1953191014    0.1992017111
H       -0.9427831000    2.3284006472   -0.9333011357
C       -0.0094163583   -0.3726546841    0.9925012636
H       -0.1689281921   -0.7752620037    1.9877474619
