13   
From optimize.out: Frame 1 / 28, Energy=    -286.6432951556
C        0.0148760000    0.3351000000   -0.0000000000
C       -0.2492830000   -0.0584720000   -0.0000000000
C       -0.0673620000    0.1174580000   -0.0000000000
C       -0.1821750000   -0.0480530000   -0.0000000000
C       -0.0074560000    0.0396860000   -0.0000000000
N       -0.3316340000   -0.1134950000   -0.0000000000
H        0.1622050000   -0.0210700000   -0.0000000000
H        0.1585440000    0.0090630000   -0.0000000000
H        0.1822510000   -0.0068470000   -0.0000000000
H        0.1600950000   -0.0049750000   -0.0000000000
H        0.1708300000   -0.0015720000   -0.0000000000
C       -0.1267730000    0.6428590000   -0.0000000000
H        0.1158820000    0.1103180000    0.0000000000
13   
From optimize.out: Frame 2 / 28, Energy=    -286.6830859683
C        0.0321900000    0.2271700000   -0.0000000000
C       -0.2496240000   -0.0505440000   -0.0000000000
C       -0.0707470000    0.1270870000   -0.0000000000
C       -0.1834450000    0.0072210000   -0.0000000000
C       -0.0089700000    0.0252090000   -0.0000000000
N       -0.3305980000   -0.0634960000   -0.0000000000
H        0.1620230000   -0.0143420000   -0.0000000000
H        0.1546690000    0.0087160000   -0.0000000000
H        0.1822450000   -0.0084430000   -0.0000000000
H        0.1571180000   -0.0029100000   -0.0000000000
H        0.1692550000    0.0001300000   -0.0000000000
C       -0.1318950000    0.6499520000   -0.0000000000
H        0.1177790000    0.0942500000    0.0000000000
13   
From optimize.out: Frame 3 / 28, Energy=    -286.7148821035
C        0.0502210000    0.1559350000   -0.0000000000
C       -0.2515650000   -0.0468660000   -0.0000000000
C       -0.0747300000    0.1490860000   -0.0000000000
C       -0.1826450000    0.0245290000   -0.0000000000
C       -0.0115250000    0.0160190000   -0.0000000000
N       -0.3270860000   -0.0331020000   -0.0000000000
H        0.1586190000   -0.0092040000   -0.0000000000
H        0.1518170000    0.0086810000   -0.0000000000
H        0.1811450000   -0.0100720000   -0.0000000000
H        0.1539110000   -0.0000490000   -0.0000000000
H        0.1665890000    0.0014870000   -0.0000000000
C       -0.1335200000    0.6646200000   -0.0000000000
H        0.1187710000    0.0789380000    0.0000000000
13   
From optimize.out: Frame 4 / 28, Energy=    -286.7389399923
C        0.0635280000    0.1182910000   -0.0000000000
C       -0.2519120000   -0.0468770000   -0.0000000000
C       -0.0809600000    0.1790620000   -0.0000000000
C       -0.1796400000    0.0114060000   -0.0000000000
C       -0.0128570000    0.0130340000   -0.0000000000
N       -0.3264470000   -0.0191620000   -0.0000000000
H        0.1557690000   -0.0058810000   -0.0000000000
H        0.1495110000    0.0093220000   -0.0000000000
H        0.1796670000   -0.0116740000   -0.0000000000
H        0.1519820000    0.0028220000   -0.0000000000
H        0.1642320000    0.0025960000   -0.0000000000
C       -0.1312870000    0.6784080000   -0.0000000000
H        0.1184120000    0.0686520000    0.0000000000
13   
From optimize.out: Frame 5 / 28, Energy=    -286.7586004289
C        0.0729610000    0.0968420000   -0.0000000000
C       -0.2513090000   -0.0482620000   -0.0000000000
C       -0.0875550000    0.2116750000   -0.0000000000
C       -0.1749120000   -0.0144730000   -0.0000000000
C       -0.0140810000    0.0130160000   -0.0000000000
N       -0.3277130000   -0.0112900000   -0.0000000000
H        0.1533320000   -0.0036890000   -0.0000000000
H        0.1476140000    0.0103060000   -0.0000000000
H        0.1779040000   -0.0131340000   -0.0000000000
H        0.1507270000    0.0054790000   -0.0000000000
H        0.1619100000    0.0035360000   -0.0000000000
C       -0.1267750000    0.6893780000   -0.0000000000
H        0.1178960000    0.0606160000    0.0000000000
13   
From optimize.out: Frame 6 / 28, Energy=    -286.7752317607
C        0.0799730000    0.0818000000   -0.0000000000
C       -0.2505440000   -0.0500520000   -0.0000000000
C       -0.0940640000    0.2424830000   -0.0000000000
C       -0.1696070000   -0.0424560000   -0.0000000000
C       -0.0152460000    0.0139990000   -0.0000000000
N       -0.3298630000   -0.0047850000   -0.0000000000
H        0.1514290000   -0.0020720000   -0.0000000000
H        0.1458270000    0.0114190000   -0.0000000000
H        0.1760560000   -0.0143520000   -0.0000000000
H        0.1497960000    0.0076880000   -0.0000000000
H        0.1597190000    0.0043880000   -0.0000000000
C       -0.1212670000    0.6991280000   -0.0000000000
H        0.1177920000    0.0528120000    0.0000000000
13   
From optimize.out: Frame 7 / 28, Energy=    -286.7892621549
C        0.0852620000    0.0700620000   -0.0000000000
C       -0.2498260000   -0.0520610000   -0.0000000000
C       -0.1002590000    0.2680780000   -0.0000000000
C       -0.1647560000   -0.0675670000   -0.0000000000
C       -0.0162270000    0.0153370000   -0.0000000000
N       -0.3321860000    0.0016140000   -0.0000000000
H        0.1498470000   -0.0008200000   -0.0000000000
H        0.1441790000    0.0125440000   -0.0000000000
H        0.1742620000   -0.0152480000   -0.0000000000
H        0.1491410000    0.0092760000   -0.0000000000
H        0.1576720000    0.0051360000   -0.0000000000
C       -0.1154380000    0.7091040000   -0.0000000000
H        0.1183290000    0.0445450000    0.0000000000
13   
From optimize.out: Frame 8 / 28, Energy=    -286.8008208377
C        0.0891240000    0.0606440000   -0.0000000000
C       -0.2493330000   -0.0542330000   -0.0000000000
C       -0.1058010000    0.2853300000   -0.0000000000
C       -0.1611790000   -0.0873680000   -0.0000000000
C       -0.0167010000    0.0171500000   -0.0000000000
N       -0.3345280000    0.0081540000   -0.0000000000
H        0.1485330000    0.0001320000   -0.0000000000
H        0.1427210000    0.0136380000   -0.0000000000
H        0.1725700000   -0.0157230000   -0.0000000000
H        0.1488170000    0.0101560000   -0.0000000000
H        0.1558700000    0.0057570000   -0.0000000000
C       -0.1096310000    0.7205920000   -0.0000000000
H        0.1195350000    0.0357710000    0.0000000000
13   
From optimize.out: Frame 9 / 28, Energy=    -286.8100568695
C        0.0917860000    0.0532270000   -0.0000000000
C       -0.2492870000   -0.0564270000   -0.0000000000
C       -0.1102320000    0.2908500000   -0.0000000000
C       -0.1594470000   -0.1005750000   -0.0000000000
C       -0.0166430000    0.0200110000   -0.0000000000
N       -0.3367170000    0.0147490000   -0.0000000000
H        0.1473860000    0.0008200000   -0.0000000000
H        0.1415390000    0.0147000000   -0.0000000000
H        0.1709650000   -0.0156210000   -0.0000000000
H        0.1487870000    0.0103370000   -0.0000000000
H        0.1543920000    0.0062190000   -0.0000000000
C       -0.1038500000    0.7350190000   -0.0000000000
H        0.1213210000    0.0266900000    0.0000000000
13   
From optimize.out: Frame 10 / 28, Energy=    -286.8172405985
C        0.0934310000    0.0475780000   -0.0000000000
C       -0.2498480000   -0.0584610000   -0.0000000000
C       -0.1131450000    0.2813050000   -0.0000000000
C       -0.1597830000   -0.1064550000   -0.0000000000
C       -0.0161420000    0.0245460000   -0.0000000000
N       -0.3387010000    0.0212280000   -0.0000000000
H        0.1463960000    0.0013010000   -0.0000000000
H        0.1406940000    0.0157800000   -0.0000000000
H        0.1693470000   -0.0147550000   -0.0000000000
H        0.1489220000    0.0098890000   -0.0000000000
H        0.1533050000    0.0065080000   -0.0000000000
C       -0.0979650000    0.7539360000   -0.0000000000
H        0.1234860000    0.0175980000    0.0000000000
13   
From optimize.out: Frame 11 / 28, Energy=    -286.8227972770
C        0.0942540000    0.0433990000   -0.0000000000
C       -0.2510380000   -0.0602180000   -0.0000000000
C       -0.1143350000    0.2559000000   -0.0000000000
C       -0.1618130000   -0.1054250000   -0.0000000000
C       -0.0154920000    0.0310540000   -0.0000000000
N       -0.3404200000    0.0273580000   -0.0000000000
H        0.1455550000    0.0016430000   -0.0000000000
H        0.1402190000    0.0169350000   -0.0000000000
H        0.1675050000   -0.0130370000   -0.0000000000
H        0.1490310000    0.0089740000   -0.0000000000
H        0.1525950000    0.0066080000   -0.0000000000
C       -0.0918720000    0.7780200000   -0.0000000000
H        0.1258100000    0.0087890000    0.0000000000
13   
From optimize.out: Frame 12 / 28, Energy=    -286.8272219040
C        0.0944590000    0.0402390000   -0.0000000000
C       -0.2527780000   -0.0617160000   -0.0000000000
C       -0.1138670000    0.2192220000   -0.0000000000
C       -0.1645050000   -0.1000190000   -0.0000000000
C       -0.0151100000    0.0391960000   -0.0000000000
N       -0.3418640000    0.0329400000   -0.0000000000
H        0.1448820000    0.0019060000   -0.0000000000
H        0.1400830000    0.0181600000   -0.0000000000
H        0.1651620000   -0.0106680000   -0.0000000000
H        0.1489490000    0.0078710000   -0.0000000000
H        0.1521780000    0.0065150000   -0.0000000000
C       -0.0857520000    0.8058250000   -0.0000000000
H        0.1281620000    0.0005300000    0.0000000000
13   
From optimize.out: Frame 13 / 28, Energy=    -286.8308627779
C        0.0941870000    0.0377340000   -0.0000000000
C       -0.2549100000   -0.0630690000   -0.0000000000
C       -0.1120330000    0.1794170000   -0.0000000000
C       -0.1666180000   -0.0940150000   -0.0000000000
C       -0.0154180000    0.0481970000   -0.0000000000
N       -0.3429540000    0.0379020000   -0.0000000000
H        0.1443410000    0.0021190000   -0.0000000000
H        0.1402070000    0.0193750000   -0.0000000000
H        0.1621720000   -0.0080870000   -0.0000000000
H        0.1486100000    0.0068850000   -0.0000000000
H        0.1519300000    0.0062330000   -0.0000000000
C       -0.0800170000    0.8342840000   -0.0000000000
H        0.1305040000   -0.0069760000    0.0000000000
13   
From optimize.out: Frame 14 / 28, Energy=    -286.8337808993
C        0.0934470000    0.0357810000   -0.0000000000
C       -0.2571280000   -0.0643560000   -0.0000000000
C       -0.1093470000    0.1434280000   -0.0000000000
C       -0.1673500000   -0.0900960000   -0.0000000000
C       -0.0165290000    0.0573370000   -0.0000000000
N       -0.3436120000    0.0422330000   -0.0000000000
H        0.1438800000    0.0022830000   -0.0000000000
H        0.1405220000    0.0204530000   -0.0000000000
H        0.1586340000   -0.0057200000   -0.0000000000
H        0.1480700000    0.0061830000   -0.0000000000
H        0.1517640000    0.0057760000   -0.0000000000
C       -0.0751570000    0.8602400000   -0.0000000000
H        0.1328050000   -0.0135420000    0.0000000000
13   
From optimize.out: Frame 15 / 28, Energy=    -286.8358669658
C        0.0922130000    0.0345270000   -0.0000000000
C       -0.2589830000   -0.0655450000   -0.0000000000
C       -0.1066690000    0.1153630000   -0.0000000000
C       -0.1665670000   -0.0890400000   -0.0000000000
C       -0.0181830000    0.0662090000   -0.0000000000
N       -0.3437510000    0.0458300000   -0.0000000000
H        0.1434190000    0.0023780000   -0.0000000000
H        0.1409840000    0.0212660000   -0.0000000000
H        0.1549060000   -0.0038220000   -0.0000000000
H        0.1474620000    0.0057670000   -0.0000000000
H        0.1516350000    0.0051710000   -0.0000000000
C       -0.0714580000    0.8808370000   -0.0000000000
H        0.1349920000   -0.0189420000    0.0000000000
13   
From optimize.out: Frame 16 / 28, Energy=    -286.8371334063
C        0.0905920000    0.0345490000   -0.0000000000
C       -0.2600850000   -0.0665230000   -0.0000000000
C       -0.1051240000    0.0968000000   -0.0000000000
C       -0.1648440000   -0.0904130000   -0.0000000000
C       -0.0197460000    0.0748950000   -0.0000000000
N       -0.3433750000    0.0481640000   -0.0000000000
H        0.1429280000    0.0023640000   -0.0000000000
H        0.1415470000    0.0217500000   -0.0000000000
H        0.1515540000   -0.0024270000   -0.0000000000
H        0.1469410000    0.0055280000   -0.0000000000
H        0.1515280000    0.0044750000   -0.0000000000
C       -0.0688200000    0.8937320000   -0.0000000000
H        0.1369040000   -0.0228970000    0.0000000000
13   
From optimize.out: Frame 17 / 28, Energy=    -286.8378280913
C        0.0890510000    0.0372000000   -0.0000000000
C       -0.2604750000   -0.0672190000   -0.0000000000
C       -0.1054430000    0.0870960000   -0.0000000000
C       -0.1631160000   -0.0936520000   -0.0000000000
C       -0.0206080000    0.0841070000   -0.0000000000
N       -0.3426140000    0.0479940000   -0.0000000000
H        0.1424690000    0.0021480000   -0.0000000000
H        0.1420670000    0.0219950000   -0.0000000000
H        0.1491320000   -0.0013400000   -0.0000000000
H        0.1466310000    0.0053320000   -0.0000000000
H        0.1513690000    0.0037100000   -0.0000000000
C       -0.0667450000    0.8978500000   -0.0000000000
H        0.1382810000   -0.0252210000    0.0000000000
13   
From optimize.out: Frame 18 / 28, Energy=    -286.8380843231
C        0.0885700000    0.0412600000   -0.0000000000
C       -0.2602670000   -0.0674080000   -0.0000000000
C       -0.1067470000    0.0863660000   -0.0000000000
C       -0.1628430000   -0.0960640000   -0.0000000000
C       -0.0200240000    0.0892880000   -0.0000000000
N       -0.3423950000    0.0453860000   -0.0000000000
H        0.1424370000    0.0018440000   -0.0000000000
H        0.1421810000    0.0220820000   -0.0000000000
H        0.1485690000   -0.0008110000   -0.0000000000
H        0.1466820000    0.0051790000   -0.0000000000
H        0.1511740000    0.0032650000   -0.0000000000
C       -0.0657550000    0.8948830000   -0.0000000000
H        0.1384170000   -0.0252690000    0.0000000000
13   
From optimize.out: Frame 19 / 28, Energy=    -286.8381773274
C        0.0885250000    0.0448690000   -0.0000000000
C       -0.2598590000   -0.0673580000   -0.0000000000
C       -0.1075800000    0.0870040000   -0.0000000000
C       -0.1631390000   -0.0971010000   -0.0000000000
C       -0.0190010000    0.0917950000   -0.0000000000
N       -0.3425600000    0.0423420000   -0.0000000000
H        0.1426130000    0.0015880000   -0.0000000000
H        0.1421600000    0.0220900000   -0.0000000000
H        0.1485770000   -0.0005370000   -0.0000000000
H        0.1468300000    0.0050640000   -0.0000000000
H        0.1509920000    0.0030620000   -0.0000000000
C       -0.0656300000    0.8916580000   -0.0000000000
H        0.1380720000   -0.0244770000    0.0000000000
13   
From optimize.out: Frame 20 / 28, Energy=    -286.8382039515
C        0.0887510000    0.0463410000   -0.0000000000
C       -0.2596190000   -0.0672040000   -0.0000000000
C       -0.1077160000    0.0869160000   -0.0000000000
C       -0.1634340000   -0.0970960000   -0.0000000000
C       -0.0184840000    0.0925080000   -0.0000000000
N       -0.3426940000    0.0407000000   -0.0000000000
H        0.1427280000    0.0014760000   -0.0000000000
H        0.1421590000    0.0220670000   -0.0000000000
H        0.1486390000   -0.0004780000   -0.0000000000
H        0.1469220000    0.0050280000   -0.0000000000
H        0.1509510000    0.0030390000   -0.0000000000
C       -0.0659680000    0.8904720000   -0.0000000000
H        0.1377650000   -0.0237690000    0.0000000000
13   
From optimize.out: Frame 21 / 28, Energy=    -286.8382236553
C        0.0890090000    0.0473520000   -0.0000000000
C       -0.2593870000   -0.0669830000   -0.0000000000
C       -0.1077570000    0.0862870000   -0.0000000000
C       -0.1636560000   -0.0968730000   -0.0000000000
C       -0.0181860000    0.0931610000   -0.0000000000
N       -0.3427840000    0.0394010000   -0.0000000000
H        0.1427940000    0.0014010000   -0.0000000000
H        0.1422340000    0.0220570000   -0.0000000000
H        0.1486610000   -0.0004770000   -0.0000000000
H        0.1469730000    0.0050320000   -0.0000000000
H        0.1510000000    0.0030510000   -0.0000000000
C       -0.0663490000    0.8895500000   -0.0000000000
H        0.1374490000   -0.0229580000    0.0000000000
13   
From optimize.out: Frame 22 / 28, Energy=    -286.8382420797
C        0.0893380000    0.0479460000   -0.0000000000
C       -0.2593020000   -0.0667390000   -0.0000000000
C       -0.1077290000    0.0849720000   -0.0000000000
C       -0.1637780000   -0.0966570000   -0.0000000000
C       -0.0181590000    0.0940960000   -0.0000000000
N       -0.3427820000    0.0384600000   -0.0000000000
H        0.1428490000    0.0013470000   -0.0000000000
H        0.1423270000    0.0221030000   -0.0000000000
H        0.1486150000   -0.0005080000   -0.0000000000
H        0.1470130000    0.0050610000   -0.0000000000
H        0.1511170000    0.0030500000   -0.0000000000
C       -0.0666560000    0.8890280000   -0.0000000000
H        0.1371480000   -0.0221590000    0.0000000000
13   
From optimize.out: Frame 23 / 28, Energy=    -286.8382649360
C        0.0894000000    0.0485510000   -0.0000000000
C       -0.2590870000   -0.0664190000   -0.0000000000
C       -0.1079050000    0.0832060000   -0.0000000000
C       -0.1637460000   -0.0965260000   -0.0000000000
C       -0.0182380000    0.0955730000   -0.0000000000
N       -0.3427060000    0.0376850000   -0.0000000000
H        0.1428660000    0.0013110000   -0.0000000000
H        0.1425620000    0.0221850000   -0.0000000000
H        0.1485050000   -0.0005640000   -0.0000000000
H        0.1470280000    0.0051330000   -0.0000000000
H        0.1513070000    0.0030350000   -0.0000000000
C       -0.0668080000    0.8879190000   -0.0000000000
H        0.1368220000   -0.0210900000    0.0000000000
13   
From optimize.out: Frame 24 / 28, Energy=    -286.8382899459
C        0.0896350000    0.0487740000   -0.0000000000
C       -0.2592580000   -0.0660980000   -0.0000000000
C       -0.1077900000    0.0802250000   -0.0000000000
C       -0.1636320000   -0.0964760000   -0.0000000000
C       -0.0187910000    0.0975160000   -0.0000000000
N       -0.3424170000    0.0373650000   -0.0000000000
H        0.1429120000    0.0012710000   -0.0000000000
H        0.1426980000    0.0224270000   -0.0000000000
H        0.1483110000   -0.0006270000   -0.0000000000
H        0.1470520000    0.0052080000   -0.0000000000
H        0.1514700000    0.0029330000   -0.0000000000
C       -0.0667030000    0.8876710000   -0.0000000000
H        0.1365130000   -0.0201910000    0.0000000000
13   
From optimize.out: Frame 25 / 28, Energy=    -286.8383116926
C        0.0890070000    0.0488410000   -0.0000000000
C       -0.2589230000   -0.0658370000   -0.0000000000
C       -0.1081580000    0.0785710000   -0.0000000000
C       -0.1633910000   -0.0965510000   -0.0000000000
C       -0.0189240000    0.0988630000   -0.0000000000
N       -0.3422470000    0.0375990000   -0.0000000000
H        0.1429520000    0.0012880000   -0.0000000000
H        0.1429710000    0.0225550000   -0.0000000000
H        0.1481520000   -0.0006950000   -0.0000000000
H        0.1471070000    0.0052890000   -0.0000000000
H        0.1515960000    0.0028650000   -0.0000000000
C       -0.0664850000    0.8865860000   -0.0000000000
H        0.1363440000   -0.0193740000    0.0000000000
13   
From optimize.out: Frame 26 / 28, Energy=    -286.8383240899
C        0.0888000000    0.0484440000   -0.0000000000
C       -0.2590580000   -0.0658170000   -0.0000000000
C       -0.1079600000    0.0775230000   -0.0000000000
C       -0.1632920000   -0.0965110000   -0.0000000000
C       -0.0193190000    0.0989670000   -0.0000000000
N       -0.3419960000    0.0383250000   -0.0000000000
H        0.1429510000    0.0013050000   -0.0000000000
H        0.1429430000    0.0227260000   -0.0000000000
H        0.1480770000   -0.0007120000   -0.0000000000
H        0.1471160000    0.0052990000   -0.0000000000
H        0.1514940000    0.0027790000   -0.0000000000
C       -0.0661000000    0.8871220000   -0.0000000000
H        0.1363460000   -0.0194510000    0.0000000000
13   
From optimize.out: Frame 27 / 28, Energy=    -286.8383278781
C        0.0885610000    0.0480230000   -0.0000000000
C       -0.2588890000   -0.0658390000   -0.0000000000
C       -0.1079730000    0.0778750000   -0.0000000000
C       -0.1633530000   -0.0964020000   -0.0000000000
C       -0.0191360000    0.0982790000   -0.0000000000
N       -0.3420590000    0.0387430000   -0.0000000000
H        0.1430160000    0.0013320000   -0.0000000000
H        0.1429170000    0.0227000000   -0.0000000000
H        0.1480980000   -0.0007310000   -0.0000000000
H        0.1472040000    0.0052840000   -0.0000000000
H        0.1514280000    0.0027950000   -0.0000000000
C       -0.0661470000    0.8874330000   -0.0000000000
H        0.1363330000   -0.0194920000    0.0000000000
