13   
From optimize.out: Frame 45 / 46, Energy=    -286.9243386733
C        1.5261120191    0.2823998020    0.6697659773
C        1.0972289682   -1.0098286500    0.4324461205
C       -0.1575940425   -1.4433720349   -0.1271523590
C       -1.2393358011    0.7884342166   -0.5032724649
C       -0.2744246816    1.6673626431   -0.0480740357
N        0.9612499246    1.4976022847    0.4779004187
H        2.5255510377    0.3608900613    1.1033706514
H        1.7990871818   -1.7951192913    0.7028276008
H       -0.2857686699   -2.5193594907   -0.2262905290
H       -2.1516602502    1.2454761228   -0.8790338708
H       -0.5457249603    2.7229459673   -0.1204472999
C       -1.1866370566   -0.6506783505   -0.5403412485
H       -2.0680836691   -1.1467532807   -0.9416989612
13   
From optimize.out: Frame 44 / 46, Energy=    -286.9243384212
C        1.5262164261    0.2823264335    0.6699413925
C        1.0971364369   -1.0098435453    0.4326696255
C       -0.1574286881   -1.4430091646   -0.1276186960
C       -1.2394079240    0.7880959472   -0.5031264243
C       -0.2742843200    1.6674334216   -0.0482919829
N        0.9614257308    1.4976513382    0.4775028833
H        2.5256732039    0.3609103421    1.1034669574
H        1.7987475592   -1.7952862917    0.7032924503
H       -0.2860181394   -2.5188979840   -0.2269453936
H       -2.1518556237    1.2450726388   -0.8786483691
H       -0.5458157561    2.7229823764   -0.1205871673
C       -1.1865188313   -0.6506126945   -0.5401233266
H       -2.0678700744   -1.1468228178   -0.9415319492
13   
From optimize.out: Frame 43 / 46, Energy=    -286.9243378296
C        1.5261601962    0.2819288646    0.6704253277
C        1.0977319780   -1.0099053562    0.4322685040
C       -0.1570625466   -1.4430495572   -0.1280407838
C       -1.2400943447    0.7881109277   -0.5026347185
C       -0.2738364788    1.6672723399   -0.0488567011
N        0.9612106765    1.4977117487    0.4764427655
H        2.5248210506    0.3611620518    1.1055131587
H        1.7989851895   -1.7955835597    0.7033213727
H       -0.2855327925   -2.5188861632   -0.2281170106
H       -2.1529223996    1.2452551396   -0.8769723276
H       -0.5447983887    2.7229301030   -0.1223124367
C       -1.1866087579   -0.6502116540   -0.5400725067
H       -2.0680533820   -1.1467348850   -0.9409646434
13   
From optimize.out: Frame 42 / 46, Energy=    -286.9243358068
C        1.5260011424    0.2815996960    0.6709251331
C        1.0971454789   -1.0099151405    0.4341047686
C       -0.1568210928   -1.4428834897   -0.1285971217
C       -1.2410671145    0.7881157369   -0.5008937872
C       -0.2733437297    1.6675356905   -0.0494168335
N        0.9624903394    1.4979266778    0.4725753018
H        2.5247525421    0.3611922779    1.1055668186
H        1.7974186380   -1.7958927859    0.7066845588
H       -0.2844418254   -2.5186190274   -0.2317355261
H       -2.1548855064    1.2449619314   -0.8730820347
H       -0.5440734761    2.7232508591   -0.1234882077
C       -1.1861901206   -0.6501233590   -0.5403979511
H       -2.0669852751   -1.1471490670   -0.9422451190
13   
From optimize.out: Frame 41 / 46, Energy=    -286.9243327025
C        1.5263134936    0.2814304609    0.6699677654
C        1.0970226869   -1.0097781413    0.4345103255
C       -0.1561850120   -1.4433589325   -0.1301506243
C       -1.2421363451    0.7879752476   -0.4983299280
C       -0.2731022310    1.6678011174   -0.0490276931
N        0.9640627942    1.4983734020    0.4691450519
H        2.5244258469    0.3610439818    1.1059664067
H        1.7959744752   -1.7956029834    0.7106715381
H       -0.2832874054   -2.5191950320   -0.2331906497
H       -2.1560909051    1.2449591848   -0.8698829559
H       -0.5436931008    2.7234987956   -0.1244856546
C       -1.1868219643   -0.6504375092   -0.5399245236
H       -2.0664823329   -1.1467095918   -0.9452690584
13   
From optimize.out: Frame 40 / 46, Energy=    -286.9243224859
C        1.5265433584    0.2818389323    0.6667290805
C        1.0946767038   -1.0094915091    0.4372441259
C       -0.1569012813   -1.4439645647   -0.1310130139
C       -1.2418879838    0.7884221602   -0.4965582196
C       -0.2725205656    1.6678005416   -0.0501350745
N        0.9676417587    1.4990144939    0.4610842424
H        2.5240633494    0.3608196138    1.1042226349
H        1.7918740036   -1.7951373413    0.7182059771
H       -0.2815055355   -2.5201453460   -0.2342071047
H       -2.1578569500    1.2449635240   -0.8637368408
H       -0.5452829484    2.7232917234   -0.1198574066
C       -1.1853905822   -0.6509932207   -0.5411211779
H       -2.0634533272   -1.1464190075   -0.9508572226
13   
From optimize.out: Frame 39 / 46, Energy=    -286.9243085986
C        1.5268448113    0.2822357891    0.6675582982
C        1.0937685468   -1.0105802795    0.4433188821
C       -0.1552404284   -1.4443318817   -0.1294265392
C       -1.2430168433    0.7888173044   -0.4954905197
C       -0.2731390136    1.6680812277   -0.0496893005
N        0.9691334791    1.4985131374    0.4575861733
H        2.5272415399    0.3621902636    1.0982555430
H        1.7897894890   -1.7963508321    0.7266892778
H       -0.2799071083   -2.5198033650   -0.2409925943
H       -2.1606550990    1.2448345861   -0.8592145396
H       -0.5445326288    2.7237894201   -0.1196583147
C       -1.1859552501   -0.6508340818   -0.5450514514
H       -2.0643314946   -1.1465612883   -0.9538849150
13   
From optimize.out: Frame 38 / 46, Energy=    -286.9242391227
C        1.5311889571    0.2837288620    0.6599263327
C        1.0907555095   -1.0107674415    0.4494697625
C       -0.1587308008   -1.4395633896   -0.1236050930
C       -1.2455794306    0.7882019817   -0.4904260880
C       -0.2778475848    1.6661767860   -0.0418126997
N        0.9737914610    1.4974945680    0.4498179528
H        2.5354989696    0.3625163612    1.0825273227
H        1.7822224107   -1.7974632427    0.7410050313
H       -0.2888581050   -2.5143334301   -0.2363135607
H       -2.1633524823    1.2434603868   -0.8549642746
H       -0.5487489565    2.7219116308   -0.1103242130
C       -1.1802742985   -0.6513376824   -0.5510338045
H       -2.0500656492   -1.1500253900   -0.9742666685
13   
From optimize.out: Frame 37 / 46, Energy=    -286.9242060203
C        1.5275422188    0.2837716007    0.6593292100
C        1.0878466483   -1.0101900377    0.4505583490
C       -0.1551092794   -1.4491885589   -0.1307176706
C       -1.2434157424    0.7902550898   -0.4906343418
C       -0.2741035304    1.6683895231   -0.0503611220
N        0.9780776733    1.4993791734    0.4418535105
H        2.5284125452    0.3598290330    1.0906442167
H        1.7821758308   -1.7931092345    0.7450140992
H       -0.2706444287   -2.5257664884   -0.2405385548
H       -2.1628932162    1.2472972724   -0.8485258146
H       -0.5486700778    2.7238258465   -0.1091520038
C       -1.1880359636   -0.6518006986   -0.5461435827
H       -2.0611826779   -1.1426925210   -0.9713262953
13   
From optimize.out: Frame 36 / 46, Energy=    -286.9240257846
C        1.5295062798    0.2881207008    0.6501281898
C        1.0731958783   -1.0091534032    0.4694701432
C       -0.1562990969   -1.4423575410   -0.1362412430
C       -1.2349174932    0.7873665759   -0.4943072208
C       -0.2747981459    1.6676909534   -0.0491627543
N        0.9884423572    1.4996016970    0.4231084078
H        2.5382663718    0.3604785168    1.0635772330
H        1.7584801755   -1.7934578204    0.7812263587
H       -0.2713826605   -2.5188227944   -0.2497569265
H       -2.1661800558    1.2394580860   -0.8279967651
H       -0.5579365213    2.7214231256   -0.0869849860
C       -1.1757713868   -0.6556022420   -0.5600052837
H       -2.0506057023   -1.1447458544   -0.9830551531
13   
From optimize.out: Frame 35 / 46, Energy=    -286.9238966381
C        1.5334100792    0.2876689428    0.6480779016
C        1.0820222719   -1.0143174036    0.4703427909
C       -0.1560938381   -1.4478920292   -0.1129832000
C       -1.2495770662    0.7925318943   -0.4871680877
C       -0.2843987854    1.6649252373   -0.0360428260
N        0.9842456235    1.4949284571    0.4321770896
H        2.5468302114    0.3631160408    1.0506362292
H        1.7725365423   -1.7962618506    0.7764930681
H       -0.2779837628   -2.5227283627   -0.2357745741
H       -2.1722334454    1.2478304819   -0.8401477711
H       -0.5523276972    2.7216288045   -0.0910689370
C       -1.1829333641   -0.6485380171   -0.5643560310
H       -2.0434967691   -1.1428921955   -1.0101856523
13   
From optimize.out: Frame 34 / 46, Energy=    -286.9235515612
C        1.5379874231    0.2916795088    0.6282555470
C        1.0596419638   -1.0137782809    0.4990895104
C       -0.1684860709   -1.4396996291   -0.1012596919
C       -1.2449653331    0.7922040759   -0.4883282805
C       -0.2906653895    1.6674002650   -0.0292852821
N        1.0005531716    1.4925763675    0.3982575129
H        2.5653255893    0.3598428376    0.9973892054
H        1.7433650591   -1.7967512203    0.8155993884
H       -0.2883384284   -2.5150232985   -0.2262963587
H       -2.1720236470    1.2406342475   -0.8394805045
H       -0.5748041942    2.7209214819   -0.0311619928
C       -1.1646035832   -0.6484812520   -0.5731665160
H       -2.0029865604   -1.1515251036   -1.0496125376
13   
From optimize.out: Frame 33 / 46, Energy=    -286.9231549263
C        1.5392059089    0.2920872306    0.6203327090
C        1.0593043394   -1.0152844279    0.5071710432
C       -0.1543613768   -1.4514778673   -0.1133919674
C       -1.2392569980    0.7958697381   -0.4936880762
C       -0.2851562632    1.6672765274   -0.0450993181
N        1.0083373147    1.4916476189    0.3817862834
H        2.5613950168    0.3609105316    1.0033760030
H        1.7392099029   -1.7919142543    0.8445327351
H       -0.2603302819   -2.5298930746   -0.2325880293
H       -2.1729606350    1.2517299422   -0.8172264144
H       -0.5824637223    2.7164975806   -0.0195952858
C       -1.1801393916   -0.6487857689   -0.5857438409
H       -2.0327838140   -1.1386637762   -1.0498658415
13   
From optimize.out: Frame 32 / 46, Energy=    -286.9225443165
C        1.5542115905    0.2966499353    0.5869700404
C        1.0351050967   -1.0129866303    0.5543485442
C       -0.1574390112   -1.4352126321   -0.0982926972
C       -1.2345100002    0.7944398972   -0.5055875725
C       -0.3024677358    1.6598387575   -0.0094599218
N        1.0183858574    1.4817888609    0.3449733173
H        2.6016524059    0.3601790112    0.8969306926
H        1.6951437888   -1.7917307738    0.9259727594
H       -0.2837972688   -2.5134582411   -0.2020381310
H       -2.1786525470    1.2424270698   -0.8110277614
H       -0.6106182744    2.7027538139    0.0660214306
C       -1.1498893597   -0.6452110452   -0.6311478011
H       -1.9871245422   -1.1394780235   -1.1176628994
13   
From optimize.out: Frame 31 / 46, Energy=    -286.9221182089
C        1.5547832066    0.2966573241    0.5793699339
C        1.0282735664   -1.0132276056    0.5694066116
C       -0.1598315354   -1.4389639560   -0.0860596582
C       -1.2357851625    0.7988828230   -0.5120830289
C       -0.3067550602    1.6617768725   -0.0032103683
N        1.0209523020    1.4785902599    0.3320318189
H        2.6083079054    0.3580533700    0.8689964400
H        1.6906163956   -1.7913022131    0.9381078875
H       -0.2813961873   -2.5178966854   -0.1904554668
H       -2.1805280093    1.2439773621   -0.8202562855
H       -0.6166973206    2.7019314095    0.0978220864
C       -1.1465896274   -0.6406970449   -0.6377747097
H       -1.9753504732   -1.1377819160   -1.1358952609
13   
From optimize.out: Frame 30 / 46, Energy=    -286.9214304520
C        1.5605100497    0.2990245066    0.5650590316
C        1.0168460792   -1.0059156203    0.5800163075
C       -0.1645830568   -1.4214957188   -0.0925385345
C       -1.2250292803    0.7918158697   -0.5168147363
C       -0.3068396834    1.6579576000    0.0044379465
N        1.0271422555    1.4796426569    0.3213367890
H        2.6184587747    0.3560361264    0.8388636789
H        1.6648268444   -1.7870691953    0.9674484352
H       -0.3022030110   -2.4995226322   -0.1878984302
H       -2.1762450495    1.2305426011   -0.8146060102
H       -0.6296186650    2.6914724919    0.1288596677
C       -1.1274561673   -0.6466695355   -0.6487429772
H       -1.9558090902   -1.1458191505   -1.1454211682
13   
From optimize.out: Frame 28 / 46, Energy=    -286.9207127484
C        1.5680224481    0.2986490840    0.5446854586
C        1.0067862385   -1.0039801508    0.6112239433
C       -0.1666884809   -1.4246959182   -0.0675831140
C       -1.2258376185    0.8007096877   -0.5347005781
C       -0.3186491776    1.6485143352    0.0241219591
N        1.0280803809    1.4709327924    0.3036717653
H        2.6349119701    0.3552548091    0.7821636608
H        1.6600036714   -1.7834088430    0.9922358538
H       -0.2991618721   -2.5024042692   -0.1595344259
H       -2.1751890030    1.2422650360   -0.8326151308
H       -0.6427808086    2.6763857688    0.1872651308
C       -1.1297026222   -0.6379229287   -0.6638717533
H       -1.9397951260   -1.1402994034   -1.1870627696
13   
From optimize.out: Frame 27 / 46, Energy=    -286.9199307505
C        1.5648550981    0.3008220535    0.5390184042
C        0.9915468900   -1.0020602846    0.6242103716
C       -0.1685497355   -1.4277094841   -0.0643397176
C       -1.2218081140    0.7994150372   -0.5382874459
C       -0.3288084780    1.6471939701    0.0580741508
N        1.0229767674    1.4716095331    0.3077269957
H        2.6454819440    0.3450505879    0.7076431332
H        1.6378732344   -1.7791474711    1.0244471357
H       -0.2941588669   -2.5062649016   -0.1415331479
H       -2.1686761326    1.2373408505   -0.8492722775
H       -0.6508052196    2.6769013425    0.2122213281
C       -1.1147691143   -0.6329924614   -0.6688234917
H       -1.9151582730   -1.1301587720   -1.2110854386
13   
From optimize.out: Frame 26 / 46, Energy=    -286.9186949962
C        1.5642240442    0.2995844255    0.5607634750
C        0.9961007621   -1.0059047455    0.6429521568
C       -0.1527878679   -1.4414009728   -0.0575127870
C       -1.2269709334    0.8033473114   -0.5405508149
C       -0.3313169083    1.6430922117    0.0521128842
N        1.0209008850    1.4661121301    0.3159108553
H        2.6454826183    0.3468906266    0.7220521225
H        1.6626571114   -1.7847842869    1.0097906568
H       -0.2523723265   -2.5180260491   -0.1676961538
H       -2.1702836062    1.2514599079   -0.8472553377
H       -0.6439702333    2.6799370687    0.1744827812
C       -1.1479728860   -0.6334372392   -0.6626273967
H       -1.9636906592   -1.1068703885   -1.2024224419
13   
From optimize.out: Frame 25 / 46, Energy=    -286.9186117043
C        1.5823663633    0.2989241767    0.5080078791
C        0.9839131576   -0.9974849509    0.6567922423
C       -0.1549588244   -1.4112286555   -0.0592135220
C       -1.2253053296    0.7992047125   -0.5564063606
C       -0.3342954909    1.6371319735    0.0569895643
N        1.0309640638    1.4543282317    0.2574823914
H        2.6634887545    0.3432037770    0.6762649175
H        1.6198281203   -1.7713955370    1.0834371855
H       -0.3086827655   -2.4863934655   -0.1257020394
H       -2.1859889309    1.2333385370   -0.8314569371
H       -0.6638567880    2.6501822027    0.2848234151
C       -1.1044757738   -0.6265425487   -0.7037072134
H       -1.9029965565   -1.1232684537   -1.2473115227
13   
From optimize.out: Frame 24 / 46, Energy=    -286.9173359841
C        1.5893020182    0.2953693680    0.4997767034
C        0.9847235102   -1.0006125255    0.6673426801
C       -0.1472851868   -1.4059935722   -0.0634604663
C       -1.2399560669    0.8072308460   -0.5680982789
C       -0.3388825772    1.6364536364    0.0459346424
N        1.0333433815    1.4382185143    0.2134076036
H        2.6723757700    0.3404355847    0.6681899611
H        1.6053607032   -1.7657182637    1.1278643112
H       -0.3225777538   -2.4799869134   -0.1025401427
H       -2.2264790163    1.2241082900   -0.7736927923
H       -0.6529133005    2.6438906357    0.3158743187
C       -1.0819415276   -0.6089747688   -0.7488239346
H       -1.8750699539   -1.1244208314   -1.2817746059
13   
From optimize.out: Frame 23 / 46, Energy=    -286.9167545405
C        1.5782108527    0.3040439158    0.5116430014
C        0.9781154609   -1.0110090895    0.6656675987
C       -0.1580141625   -1.4279427544   -0.0365779168
C       -1.2150424105    0.8118984619   -0.5753838441
C       -0.3586597015    1.6365041858    0.0894787470
N        1.0080759302    1.4443441415    0.2985861031
H        2.6705156880    0.3422721762    0.5975292562
H        1.6250675761   -1.7776088815    1.0811667929
H       -0.2900095453   -2.5075897478   -0.1030809210
H       -2.1669958431    1.2504812944   -0.8746156780
H       -0.6692980939    2.6599794668    0.2925806961
C       -1.1207999460   -0.6122618356   -0.6777729698
H       -1.8811658051   -1.1131113336   -1.2692208657
13   
From optimize.out: Frame 22 / 46, Energy=    -286.9142731159
C        1.5790521498    0.3122414077    0.4869930803
C        0.9541663321   -0.9952563058    0.6872392697
C       -0.1569901207   -1.3998083175   -0.0329006458
C       -1.1853765944    0.7933817518   -0.5695909676
C       -0.3661879809    1.6171238237    0.1444735131
N        1.0036615737    1.4477376258    0.3215859344
H        2.6719205230    0.3333400708    0.4732443354
H        1.5803268381   -1.7625675817    1.1336897165
H       -0.3274220130   -2.4744047070   -0.1000326416
H       -2.1202724704    1.2342110931   -0.9164624087
H       -0.6957791561    2.6351940186    0.3391281824
C       -1.0916032128   -0.6176250469   -0.6858200494
H       -1.8454958682   -1.1235678326   -1.2815473187
13   
From optimize.out: Frame 21 / 46, Energy=    -286.9132024715
C        1.5832737414    0.3087926070    0.4494565499
C        0.9605277011   -0.9954615087    0.6969165438
C       -0.1276997958   -1.4166241088   -0.0214323051
C       -1.2113611017    0.7872256827   -0.5508200690
C       -0.3664607370    1.6187969822    0.1625782949
N        0.9955036358    1.4308524922    0.2571239576
H        2.6730388082    0.3200299020    0.3940585210
H        1.5559082727   -1.7330944420    1.2308999488
H       -0.3270163106   -2.4904120868   -0.0368428707
H       -2.1356262364    1.2399931112   -0.9102470993
H       -0.6949909897    2.6175078346    0.4392901651
C       -1.0734364544   -0.5956038751   -0.7556642779
H       -1.8316605336   -1.0920025905   -1.3553173591
13   
From optimize.out: Frame 20 / 46, Energy=    -286.9096968699
C        1.5956600683    0.3097612686    0.4155573199
C        0.9554961087   -0.9855374717    0.6974583057
C       -0.1119488065   -1.4285487892   -0.0250509551
C       -1.2244459370    0.7771819694   -0.5399841269
C       -0.3694660323    1.6149733443    0.2017617078
N        0.9965311480    1.4366642030    0.2866510644
H        2.6812622349    0.2998532608    0.3005775350
H        1.5254706753   -1.6968939847    1.2925573133
H       -0.3364281986   -2.4986279927   -0.0010994763
H       -2.1173433382    1.2503155038   -0.9504662167
H       -0.7038733457    2.6097733679    0.4878529459
C       -1.0723706821   -0.5937207727   -0.7766185388
H       -1.8185438949   -1.0951939067   -1.3891968784
13   
From optimize.out: Frame 19 / 46, Energy=    -286.9071386361
C        1.5866017798    0.3136666681    0.3718023705
C        0.9393951751   -0.9779331642    0.6919634961
C       -0.1670237354   -1.4229399674    0.0285503919
C       -1.2136038039    0.7798526437   -0.5381130007
C       -0.3863264083    1.5955424275    0.2631051649
N        0.9798108770    1.4413013586    0.2646333758
H        2.6641325475    0.2918688864    0.1827604245
H        1.5175773996   -1.6763845558    1.2915905904
H       -0.4047013040   -2.4908314826    0.0885049213
H       -2.0575372801    1.2637919711   -1.0351351280
H       -0.7422387459    2.5628546353    0.6074496754
C       -1.0186967793   -0.5817691394   -0.7712138676
H       -1.6973897222   -1.0990202811   -1.4458984146
13   
From optimize.out: Frame 18 / 46, Energy=    -286.9018802860
C        1.5891024151    0.3151798259    0.3378036621
C        0.9363594104   -0.9739395703    0.6847279694
C       -0.1717920628   -1.4413574278    0.0341393916
C       -1.2000526159    0.7795499537   -0.5405988886
C       -0.3901285012    1.5807773423    0.3014790586
N        0.9939761560    1.4538521043    0.2853134924
H        2.6546046282    0.2875376870    0.0800304399
H        1.4944046130   -1.6400799929    1.3396555715
H       -0.4313741799   -2.4967265575    0.1545907287
H       -2.0129397418    1.2748395236   -1.0832330630
H       -0.7876163996    2.5135938140    0.6888430814
C       -0.9907511280   -0.5686967358   -0.8120387261
H       -1.6837925936   -1.0845299666   -1.4707127178
13   
From optimize.out: Frame 17 / 46, Energy=    -286.8982328416
C        1.5516960937    0.3027824885    0.3368817032
C        0.9920022465   -1.0030937076    0.7078517358
C       -0.1343227483   -1.4248253139    0.0555735495
C       -1.2086033148    0.7675962435   -0.5543685013
C       -0.4002122842    1.5929530220    0.3023073447
N        0.9541267366    1.4251645125    0.2694421015
H        2.6086609961    0.3128714163    0.0346366743
H        1.5713740032   -1.6488214000    1.3531071543
H       -0.4203917117   -2.4819188242    0.1485977984
H       -1.9692296691    1.2653227463   -1.1630578218
H       -0.7407604399    2.5110956756    0.7582282267
C       -1.0542005210   -0.5832397074   -0.7715793332
H       -1.7501393872   -1.0358871518   -1.4776206321
13   
From optimize.out: Frame 16 / 46, Energy=    -286.8917827010
C        1.5237365387    0.2937757208    0.2899690073
C        0.9588503411   -0.9817011208    0.7194990973
C       -0.1121340170   -1.4169327475   -0.0062571047
C       -1.1613536792    0.7435555807   -0.5382193267
C       -0.3991733208    1.6054233330    0.3370954175
N        0.9626381632    1.4430078925    0.2243022846
H        2.5766301393    0.2836650232   -0.0219489191
H        1.4960277548   -1.5966348505    1.4298853288
H       -0.4436768345   -2.4530135205    0.1231964877
H       -1.9198957316    1.2203533558   -1.1676162970
H       -0.7488575076    2.5056683706    0.8176298639
C       -1.0019658426   -0.5953511427   -0.7706279349
H       -1.7308260038   -1.0518158946   -1.4369079046
13   
From optimize.out: Frame 15 / 46, Energy=    -286.8818791435
C        1.4798676099    0.2674392103    0.2702579648
C        0.9991510778   -1.0352351679    0.7046899467
C       -0.0868515598   -1.4463267206    0.0280333215
C       -1.1654569694    0.7884927104   -0.5706916566
C       -0.4479204387    1.6369682951    0.3550439178
N        0.9250500034    1.4232319860    0.2327503607
H        2.5085618231    0.2732328712   -0.1070533320
H        1.5599563059   -1.6199600764    1.4256180665
H       -0.4918819973   -2.4526538138    0.1765267252
H       -1.8570491320    1.2679752649   -1.2628911004
H       -0.7867464983    2.5128299159    0.8922165561
C       -0.9818007664   -0.5459521638   -0.7353111696
H       -1.6548794582   -1.0700423115   -1.4091896007
13   
From optimize.out: Frame 14 / 46, Energy=    -286.8658242303
C        1.4985530661    0.2657081759    0.2310959393
C        0.9791850363   -1.0105725321    0.7072948356
C       -0.0275843194   -1.5139104386   -0.0098099692
C       -1.1511045294    0.8068756070   -0.5878404765
C       -0.4398030883    1.6155990646    0.3630881478
N        0.9486730376    1.4353692518    0.2069797994
H        2.5369185002    0.2583823908   -0.1119078273
H        1.4976826382   -1.5448268885    1.5021503597
H       -0.4388781515   -2.5002225661    0.1965591969
H       -1.8488528346    1.3222332408   -1.2461881854
H       -0.8176009310    2.4500874422    0.9433308127
C       -1.0125838828   -0.5222526534   -0.7906446156
H       -1.7246045415   -1.0624700945   -1.4041080173
13   
From optimize.out: Frame 13 / 46, Energy=    -286.8394757074
C        1.5663968438    0.2716119469    0.2340439609
C        1.0195555248   -1.0068912028    0.7149800107
C        0.0136764983   -1.5487575217    0.0488715276
C       -1.2037601404    0.8459283461   -0.6627930146
C       -0.4278691027    1.5411515215    0.3322693398
N        0.9782635110    1.4201693057    0.2008349696
H        2.6052887411    0.2669823882   -0.1043197510
H        1.5257743539   -1.4949250635    1.5525424630
H       -0.4448400020   -2.5006376285    0.2965770243
H       -1.9631335609    1.4196640427   -1.1894407757
H       -0.8325678302    2.2880946150    1.0143701477
C       -1.0418757443   -0.4640283056   -0.9538761248
H       -1.7949090922   -1.0383624441   -1.4840597776
13   
From optimize.out: Frame 12 / 46, Energy=    -286.8058907222
C        1.6335181642    0.2800542510    0.1955665170
C        1.0502942664   -0.9393595201    0.7487615188
C        0.0102359672   -1.4744964905    0.1429767265
C       -1.2162448496    0.8154981101   -0.7157362263
C       -0.3910459189    1.3831239800    0.3419656077
N        0.9975629753    1.3907778453    0.1899620406
H        2.6612054082    0.2656984424   -0.1759228806
H        1.5477320152   -1.3640076894    1.6295661064
H       -0.5334618495   -2.3640530345    0.4372157445
H       -2.0234800865    1.4466262568   -1.0840453753
H       -0.8238200374    2.0078814623    1.1278195525
C       -1.0551772765   -0.4606253507   -1.1637022327
H       -1.8573187781   -0.9871182627   -1.6744270991
13   
From optimize.out: Frame 11 / 46, Energy=    -286.7723309663
C        1.6072113975    0.2798797020    0.1389676457
C        1.0130129986   -0.9214553277    0.7401319691
C       -0.0419274270   -1.5104826230    0.2134245453
C       -1.2207698283    0.8809592372   -0.7649714358
C       -0.3753440069    1.3216013812    0.3398954683
N        0.9705429099    1.3805940724    0.1857184176
H        2.6274372401    0.2556558331   -0.2536543098
H        1.5406211301   -1.2894653640    1.6314003159
H       -0.5874330847   -2.3756094942    0.5678434306
H       -2.0880461917    1.4946655048   -1.0216065780
H       -0.8129062995    1.8073333020    1.2169737860
C       -0.9365523510   -0.3487706835   -1.2647657880
H       -1.6958464870   -0.9749055402   -1.7293574668
13   
From optimize.out: Frame 10 / 46, Energy=    -286.7679580841
C        1.6325643236    0.2746009325    0.2243980815
C        1.0336092201   -0.9701322428    0.7115541401
C        0.1395914078   -1.6413582427    0.0014713770
C       -1.2497065445    0.9432070861   -0.8077655472
C       -0.3767473440    1.4017564222    0.2647123904
N        0.9537117214    1.3686646885    0.1964732669
H        2.6933673437    0.3043144407   -0.0377204223
H        1.4424246779   -1.3148346183    1.6729674942
H       -0.3930770672   -2.5522207850    0.2432275498
H       -2.0646090326    1.5990549285   -1.1372433427
H       -0.8056514335    1.9826770047    1.0847681009
C       -1.0925023621   -0.3727693343   -1.0605805056
H       -1.9129749104   -1.0229602801   -1.3562625829
13   
From optimize.out: Frame 8 / 46, Energy=    -286.7537220383
C        1.6178753103    0.2764859028    0.2807214851
C        0.9907224401   -0.9870570114    0.6654208061
C        0.2087689487   -1.6515757716   -0.1868981887
C       -1.2460986289    0.9489132141   -0.8186190332
C       -0.3730388072    1.4540805347    0.2076216213
N        0.9469470211    1.3711626044    0.1999606363
H        2.6988834440    0.3201657077    0.1215433762
H        1.2879645773   -1.3543426062    1.6591377573
H       -0.3382766737   -2.5784757678   -0.0637459424
H       -2.0439637956    1.5740236620   -1.2431639448
H       -0.7911185855    2.1102839373    0.9748444421
C       -1.0774820827   -0.3851981484   -0.8148911530
H       -1.8811831678   -1.0984662577   -0.9819318622
13   
From optimize.out: Frame 7 / 46, Energy=    -286.7057789607
C        1.5520892315    0.2227408341    0.2802677772
C        1.1036477836   -1.1385538841    0.6943542808
C        0.4136027735   -1.9509814934   -0.0687441121
C       -1.3825845765    1.1636069615   -0.8843485377
C       -0.4587341806    1.4974894088    0.1628664773
N        0.8631299943    1.2832914597    0.1907696390
H        2.6238167744    0.3306259475    0.0890776638
H        1.4898330555   -1.4236332196    1.6825875158
H        0.0085589325   -2.9506956232    0.0818316397
H       -2.1213453227    1.8608197499   -1.2966720837
H       -0.8044606139    2.1520117797    0.9690108804
C       -1.2411563624   -0.1644453673   -0.8648100626
H       -2.0463974891   -0.8822765536   -1.0361910780
13   
From optimize.out: Frame 6 / 46, Energy=    -286.7002315038
C        1.5356391903    0.2102586393    0.2560110776
C        1.0705249512   -1.1437145289    0.6877288393
C        0.5360917990   -2.0394038542   -0.1049132151
C       -1.3809610209    1.1892784012   -0.8852972351
C       -0.4606071433    1.5078227962    0.1656835587
N        0.8653437530    1.2862638876    0.1727575057
H        2.6143223658    0.3142948888    0.1095797415
H        1.3779004202   -1.3823507905    1.7162518595
H        0.1775635572   -3.0534813992    0.0501061190
H       -2.1070948268    1.9009407431   -1.3023790066
H       -0.8014071751    2.1826582543    0.9550070218
C       -1.2955212405   -0.1404516943   -0.8540317399
H       -2.1317946301   -0.8321153434   -0.9665045263
13   
From optimize.out: Frame 5 / 46, Energy=    -286.6956439038
C        1.5358749798    0.1825769184    0.2073269157
C        1.0942322962   -1.1500989984    0.7297686291
C        0.6447656597   -2.1377270699   -0.0052276660
C       -1.4083251793    1.2508722050   -0.8963161240
C       -0.4801997478    1.4535889103    0.1817602839
N        0.8596795182    1.2607232028    0.1310922489
H        2.6111130414    0.2935430517    0.0402891674
H        1.4062010088   -1.3137845883    1.7733715026
H        0.3428060738   -3.1528511589    0.2214491911
H       -2.1233464020    2.0192681651   -1.2302274830
H       -0.8162330559    2.0778117897    1.0119688628
C       -1.3969848587   -0.0728045571   -1.0156814574
H       -2.2695833339   -0.7111178705   -1.1495740711
13   