13   
From optimize.out: Frame 1 / 1, Energy=    -286.9243386648
C        1.5261120191    0.2823998020    0.6697659773
C        1.0972289682   -1.0098286500    0.4324461205
C       -0.1575940425   -1.4433720349   -0.1271523590
C       -1.2393358011    0.7884342166   -0.5032724649
C       -0.2744246816    1.6673626431   -0.0480740357
N        0.9612499246    1.4976022847    0.4779004187
H        2.5255510377    0.3608900613    1.1033706514
H        1.7990871818   -1.7951192913    0.7028276008
H       -0.2857686699   -2.5193594907   -0.2262905290
H       -2.1516602502    1.2454761228   -0.8790338708
H       -0.5457249603    2.7229459673   -0.1204472999
C       -1.1866370566   -0.6506783505   -0.5403412485
H       -2.0680836691   -1.1467532807   -0.9416989612
13   
From optimize.out: Frame 45 / 46, Energy=    -286.9243386733
C        1.5261120191    0.2823998020    0.6697659773
C        1.0972289682   -1.0098286500    0.4324461205
C       -0.1575940425   -1.4433720349   -0.1271523590
C       -1.2393358011    0.7884342166   -0.5032724649
C       -0.2744246816    1.6673626431   -0.0480740357
N        0.9612499246    1.4976022847    0.4779004187
H        2.5255510377    0.3608900613    1.1033706514
H        1.7990871818   -1.7951192913    0.7028276008
H       -0.2857686699   -2.5193594907   -0.2262905290
H       -2.1516602502    1.2454761228   -0.8790338708
H       -0.5457249603    2.7229459673   -0.1204472999
C       -1.1866370566   -0.6506783505   -0.5403412485
H       -2.0680836691   -1.1467532807   -0.9416989612
13   
From optimize.out: Frame 44 / 46, Energy=    -286.9243384212
C        1.5286637411    0.2862550330    0.6540752241
C        1.0794807348   -1.0095980965    0.4613574016
C       -0.1557886915   -1.4452878967   -0.1338717526
C       -1.2385630542    0.7886056845   -0.4927316369
C       -0.2745001712    1.6679906243   -0.0496768275
N        0.9839961370    1.4995062393    0.4311496424
H        2.5340392980    0.3601999026    1.0751883706
H        1.7686450877   -1.7933082847    0.7656921000
H       -0.2710659754   -2.5218014856   -0.2458024488
H       -2.1647700743    1.2428209236   -0.8368032734
H       -0.5539614219    2.7224538397   -0.0964941465
C       -1.1810326191   -0.6539714639   -0.5540589204
H       -2.0551429910   -1.1438650197   -0.9780237324
13   
From optimize.out: Frame 44 / 46, Energy=    -286.9243384212
C        1.5365945884    0.2904591383    0.6342872685
C        1.0664520421   -1.0139423299    0.4903422041
C       -0.1647152526   -1.4421924851   -0.1048270247
C       -1.2463686321    0.7923038274   -0.4879752467
C       -0.2887585318    1.6666471417   -0.0313415274
N        0.9955909665    1.4932920821    0.4085788620
H        2.5596976519    0.3608388369    1.0135916812
H        1.7522416163   -1.7966023105    0.8036997710
H       -0.2851876191   -2.5173678636   -0.2291804740
H       -2.1720874863    1.2428239814   -0.8396835463
H       -0.5679648467    2.7211367123   -0.0493910082
C       -1.1701811312   -0.6484985250   -0.5704855836
H       -2.0153133654   -1.1488982059   -1.0376153759
13   
From optimize.out: Frame 43 / 46, Energy=    -286.9243378296
C        1.5437507926    0.2934691713    0.6102279064
C        1.0519749326   -1.0145884767    0.5214600480
C       -0.1552935231   -1.4465514931   -0.1088187378
C       -1.2378192390    0.7954366714   -0.4972921662
C       -0.2903995192    1.6650237940   -0.0343049459
N        1.0113807925    1.4886616227    0.3706364633
H        2.5735880753    0.3606889705    0.9711361107
H        1.7258632673   -1.7918586822    0.8691990883
H       -0.2674379048   -2.5249153329   -0.2233351517
H       -2.1746845872    1.2489123112   -0.8153489817
H       -0.5909911034    2.7123349025    0.0063360935
C       -1.1709773367   -0.6477030654   -0.5994956801
H       -2.0189546467   -1.1389103934   -1.0704000467
13   
From optimize.out: Frame 42 / 46, Energy=    -286.9243358068
C        1.5544664706    0.2966532299    0.5835811989
C        1.0320589587   -1.0130940797    0.5610628454
C       -0.1585058233   -1.4368853248   -0.0928380592
C       -1.2350785873    0.7964209709   -0.5084838572
C       -0.3043794278    1.6607029513   -0.0066732837
N        1.0195302195    1.4803626240    0.3392027815
H        2.6046200529    0.3592312007    0.8844749784
H        1.6931250515   -1.7915396812    0.9313837396
H       -0.2827266411   -2.5154373166   -0.1968734911
H       -2.1794888042    1.2431183358   -0.8151427045
H       -0.6133288843    2.7023871088    0.0802011506
C       -1.1484180291   -0.6431982798   -0.6341026996
H       -1.9818745561   -1.1387217394   -1.1257925991
13   
From optimize.out: Frame 42 / 46, Energy=    -286.9243358068
C        1.5643966282    0.2988302798    0.5545186572
C        1.0116415680   -1.0049142950    0.5961617409
C       -0.1656723090   -1.4231513587   -0.0796277173
C       -1.2254474783    0.7964171329   -0.5260680700
C       -0.3129493869    1.6530720776    0.0146215733
N        1.0276275996    1.4751365630    0.3121976967
H        2.6269709213    0.3556319078    0.8095296283
H        1.6623315506   -1.7851754929    0.9802723357
H       -0.3006296619   -2.5010134621   -0.1732241644
H       -2.1756986983    1.2366072641   -0.8239231228
H       -0.6364281688    2.6836672969    0.1590760392
C       -1.1286183825   -0.6421444328   -0.6565699285
H       -1.9475241821   -1.1429634805   -1.1669646682
13   
From optimize.out: Frame 41 / 46, Energy=    -286.9243327025
C        1.5647787759    0.3006723699    0.5416483379
C        0.9920976531   -1.0025252487    0.6264770763
C       -0.1666434338   -1.4293653862   -0.0635140420
C       -1.2224325255    0.7998906218   -0.5385611866
C       -0.3291118574    1.6466978874    0.0573531720
N        1.0227257021    1.4709446558    0.3087167836
H        2.6454820256    0.3452731293    0.7093858126
H        1.6408706932   -1.7798292096    1.0226745239
H       -0.2891050397   -2.5076873407   -0.1446974039
H       -2.1688705467    1.2390484644   -0.8490283409
H       -0.6499785697    2.6772684951    0.2076570810
C       -1.1187849080   -0.6330462545   -0.6680741118
H       -1.9210279691   -1.1273421841   -1.2100377020
13   
From optimize.out: Frame 40 / 46, Energy=    -286.9243224859
C        1.5716601627    0.2993138048    0.5391401720
C        0.9911053439   -1.0024536657    0.6486248889
C       -0.1536776929   -1.4290340352   -0.0582098791
C       -1.2262882408    0.8016493556   -0.5470496377
C       -0.3325377607    1.6406492474    0.0541117230
N        1.0250255501    1.4612821817    0.2919623744
H        2.6528629186    0.3453794719    0.7032850024
H        1.6451024950   -1.7792965468    1.0399766717
H       -0.2754526778   -2.5050605821   -0.1504837341
H       -2.1767208569    1.2440323756   -0.8407799374
H       -0.6521212738    2.6677412348    0.2197088642
C       -1.1301444221   -0.6306112645   -0.6794650669
H       -1.9388135452   -1.1135915775   -1.2208214416
13   
From optimize.out: Frame 40 / 46, Energy=    -286.9243224859
C        1.5851399303    0.2975026094    0.5047162336
C        0.9842372175   -0.9987356673    0.6610113603
C       -0.1518901382   -1.4091351467   -0.0609118742
C       -1.2311641566    0.8024143617   -0.5610819564
C       -0.3361298658    1.6368607066    0.0525687032
N        1.0319155525    1.4478859589    0.2398568924
H        2.6670426703    0.3420967775    0.6730357440
H        1.6140426031   -1.7691251965    1.1012035843
H       -0.3142393686   -2.4838314865   -0.1164396015
H       -2.2021809081    1.2296473631   -0.8083570670
H       -0.6594804895    2.6476662063    0.2972406653
C       -1.0954643332   -0.6195171970   -0.7217493813
H       -1.8918287137   -1.1237292893   -1.2610933029
13   
From optimize.out: Frame 39 / 46, Energy=    -286.9243085986
C        1.5838883918    0.2996034371    0.5055686740
C        0.9814981044   -1.0056871151    0.6665250685
C       -0.1525220274   -1.4167070245   -0.0503390247
C       -1.2277956471    0.8095091213   -0.5716543820
C       -0.3485358425    1.6364783097    0.0671886319
N        1.0210102735    1.4412084487    0.2549834483
H        2.6714678592    0.3413320297    0.6337002893
H        1.6149796786   -1.7715221048    1.1050711324
H       -0.3066811274   -2.4934599279   -0.1028040980
H       -2.1974451265    1.2369810213   -0.8229535124
H       -0.6609107603    2.6517436355    0.3045046416
C       -1.1009084216   -0.6105791946   -0.7141437759
H       -1.8780453546   -1.1189006364   -1.2756470930
13   
From optimize.out: Frame 38 / 46, Energy=    -286.9242391227
C        1.5785167662    0.3070246984    0.5026797651
C        0.9694070477   -1.0052810419    0.6735115177
C       -0.1576417991   -1.4177124740   -0.0352407827
C       -1.2042552880    0.8051653918   -0.5732774308
C       -0.3613971442    1.6294570734    0.1094760151
N        1.0064707762    1.4455780847    0.3069493316
H        2.6710265159    0.3390242725    0.5523366123
H        1.6087988910   -1.7721395446    1.1002652464
H       -0.3036135153   -2.4955229603   -0.1019725017
H       -2.1500062298    1.2445651027   -0.8898320404
H       -0.6789271721    2.6509669500    0.3095063534
C       -1.1101833921   -0.6142120134   -0.6806990593
H       -1.8681954564   -1.1169135393   -1.2737030265
13   
From optimize.out: Frame 38 / 46, Energy=    -286.9242391227
C        1.5800182975    0.3114521199    0.4784025210
C        0.9556221864   -0.9953032683    0.6894539975
C       -0.1502867768   -1.4036567566   -0.0302760169
C       -1.1913233734    0.7919728822   -0.5652950852
C       -0.3662504035    1.6175067405    0.1486169488
N        1.0017945591    1.4438733170    0.3068332540
H        2.6721764522    0.3302939237    0.4551219775
H        1.5747384384   -1.7558223990    1.1559371182
H       -0.3273291645   -2.4780681342   -0.0855711165
H       -2.1237863125    1.2355343579   -0.9150399814
H       -0.6955987774    2.6311463826    0.3620511177
C       -1.0874455932   -0.6125853115   -0.7018045046
H       -1.8423295323   -1.1163438542   -1.2984302300
13   
From optimize.out: Frame 37 / 46, Energy=    -286.9242060203
C        1.5835817056    0.3088166911    0.4486137052
C        0.9604025994   -0.9952147649    0.6969300138
C       -0.1273081752   -1.4169205950   -0.0215222765
C       -1.2116864331    0.7869759634   -0.5505506524
C       -0.3665354584    1.6187019142    0.1635525216
N        0.9955291831    1.4309969901    0.2578580972
H        2.6732432692    0.3195282453    0.3917342807
H        1.5551514954   -1.7321943813    1.2324329507
H       -0.3272503206   -2.4906163608   -0.0359541741
H       -2.1351716643    1.2402497594   -0.9112470769
H       -0.6952118339    2.6173155307    0.4404975933
C       -1.0734099559   -0.5955570551   -0.7561852687
H       -1.8313344115   -1.0920819370   -1.3561597138
13   
From optimize.out: Frame 36 / 46, Energy=    -286.9240257846
C        1.5950646268    0.3100179878    0.4126811129
C        0.9544377229   -0.9850376068    0.6970971075
C       -0.1155691261   -1.4281800965   -0.0215275006
C       -1.2237332355    0.7773575246   -0.5398611295
C       -0.3705743396    1.6136960639    0.2057940856
N        0.9954320504    1.4369690238    0.2852037440
H        2.6801362245    0.2993284124    0.2928328933
H        1.5249518153   -1.6955458089    1.2924937663
H       -0.3409160929   -2.4981154935    0.0047906186
H       -2.1134120205    1.2512013718   -0.9560318801
H       -0.7063952737    2.6066891913    0.4957145699
C       -1.0688424582   -0.5929351388   -0.7762632658
H       -1.8105798933   -1.0954454313   -1.3929241221
13   
From optimize.out: Frame 36 / 46, Energy=    -286.9240257846
C        1.5895975788    0.3123750563    0.3862732096
C        0.9447201503   -0.9804480959    0.6937807650
C       -0.1488091004   -1.4247949429    0.0108231067
C       -1.2171895643    0.7789693859   -0.5387318282
C       -0.3807502668    1.6019687101    0.2428173734
N        0.9853406823    1.4397677371    0.2719151675
H        2.6697977568    0.2945095156    0.2217254436
H        1.5201879002   -1.6831675289    1.2919103095
H       -0.3821217071   -2.4934099805    0.0588705409
H       -2.0773166160    1.2593349715   -1.0071330344
H       -0.7295503634    2.5783718153    0.5678960925
C       -1.0364480604   -0.5857218388   -0.7730013254
H       -1.7374583899   -1.0977548049   -1.4271458206
13   
From optimize.out: Frame 35 / 46, Energy=    -286.9238966381
C        1.5875891145    0.3142641136    0.3583785398
C        0.9381965533   -0.9763563594    0.6891066674
C       -0.1689064310   -1.4302117987    0.0307571165
C       -1.2082533402    0.7797331315   -0.5390945126
C       -0.3878276021    1.5897126764    0.2782564656
N        0.9854038044    1.4462568141    0.2727985797
H        2.6603706053    0.2901587836    0.1421991798
H        1.5084280060   -1.6620502963    1.3105682576
H       -0.4152326503   -2.4931590560    0.1145978153
H       -2.0399286757    1.2681539155   -1.0541258064
H       -0.7601553660    2.5434048103    0.6395865229
C       -1.0076628986   -0.5766077158   -0.7873328915
H       -1.6920211196   -1.0932990188   -1.4556959341
13   
From optimize.out: Frame 34 / 46, Energy=    -286.9235515612
C        1.5796431996    0.3120448187    0.3375705195
C        0.9504302294   -0.9813119945    0.6905754487
C       -0.1623169177   -1.4371768288    0.0395596070
C       -1.2022148949    0.7765271299   -0.5440809133
C       -0.3926784626    1.5838562973    0.3016885135
N        0.9838991360    1.4465976590    0.2812999754
H        2.6429865192    0.2939440161    0.0685513797
H        1.5138684369   -1.6422904977    1.3430571736
H       -0.4285969612   -2.4929820155    0.1530752517
H       -2.0018864496    1.2724329451   -1.1034189452
H       -0.7757675835    2.5129620911    0.7063890207
C       -1.0067960493   -0.5723743255   -0.8018074576
H       -1.7005702022   -1.0722292951   -1.4724595737
13   
From optimize.out: Frame 34 / 46, Energy=    -286.9235515612
C        1.5495972266    0.3021063686    0.3333600621
C        0.9895136001   -1.0014878094    0.7087260796
C       -0.1326570852   -1.4242328349    0.0509320476
C       -1.2050563803    0.7657915597   -0.5531562155
C       -0.4001342913    1.5938891430    0.3049188149
N        0.9547656722    1.4265039789    0.2660535469
H        2.6062565046    0.3106789515    0.0303889084
H        1.5657179130   -1.6449038615    1.3588707363
H       -0.4221396787   -2.4797489616    0.1466909735
H       -1.9655262703    1.2619469853   -1.1634000173
H       -0.7413682704    2.5106882588    0.7626873873
C       -1.0502793695   -0.5841488883   -0.7715079137
H       -1.7486895707   -1.0370828902   -1.4745644102
13   
From optimize.out: Frame 33 / 46, Energy=    -286.9231549263
C        1.5268970131    0.2947938220    0.2952718947
C        0.9625977450   -0.9841192824    0.7181825103
C       -0.1146421726   -1.4178249024    0.0007320694
C       -1.1666946534    0.7462730738   -0.5400447868
C       -0.3992907625    1.6040137219    0.3331630655
N        0.9616760540    1.4409909239    0.2294047704
H        2.5802508228    0.2869664369   -0.0155526329
H        1.5045446960   -1.6025338804    1.4212065265
H       -0.4410447457   -2.4562808998    0.1260677848
H       -1.9254723098    1.2254365771   -1.1671010190
H       -0.7479422364    2.5062818588    0.8109152595
C       -1.0078703128   -0.5939820980   -0.7707354785
H       -1.7330091377   -1.0500153515   -1.4415099640
13   
From optimize.out: Frame 32 / 46, Energy=    -286.9225443165
C        1.4984796548    0.2786128662    0.2786206675
C        0.9820528914   -1.0125225529    0.7109729489
C       -0.0975780180   -1.4338558907    0.0134850986
C       -1.1637160876    0.7694274654   -0.5569147881
C       -0.4272387496    1.6235848762    0.3474289998
N        0.9409973387    1.4316222082    0.2291661389
H        2.5374408177    0.2776588667   -0.0709465202
H        1.5328336681   -1.6100640027    1.4274285159
H       -0.4714302407   -2.4528064247    0.1539005795
H       -1.8837127358    1.2477709623   -1.2224693493
H       -0.7706715310    2.5097915239    0.8605720436
C       -0.9903560996   -0.5669104146   -0.7502948321
H       -1.6871009087   -1.0623094833   -1.4209495030
13   
From optimize.out: Frame 32 / 46, Energy=    -286.9225443165
C        1.4850650835    0.2669577125    0.2593648086
C        0.9935974016   -1.0283751054    0.7054145124
C       -0.0703660155   -1.4651255438    0.0175069795
C       -1.1614647507    0.7936060252   -0.5754617054
C       -0.4456625482    1.6310243133    0.3572814694
N        0.9316208944    1.4266080405    0.2255821219
H        2.5164494057    0.2691021195   -0.1084036394
H        1.5426345055   -1.5990613221    1.4469059905
H       -0.4771386544   -2.4658853523    0.1820988793
H       -1.8547692819    1.2830674517   -1.2582450827
H       -0.7953288469    2.4953777143    0.9064342982
C       -0.9903632779   -0.5393600005   -0.7507025050
H       -1.6742739152   -1.0679360532   -1.4077761273
13   
From optimize.out: Frame 31 / 46, Energy=    -286.9221182089
C        1.5001825828    0.2658499766    0.2311667468
C        0.9801546813   -1.0104841115    0.7074794232
C       -0.0265932898   -1.5147474188   -0.0084005182
C       -1.1523692466    0.8078136015   -0.5896407361
C       -0.4395164499    1.6138109343    0.3623479213
N        0.9493837612    1.4350041694    0.2068322089
H        2.5385606618    0.2585889512   -0.1117255719
H        1.4983573636   -1.5436283135    1.5033607105
H       -0.4390213472   -2.5002325354    0.1989614911
H       -1.8515977046    1.3245733981   -1.2448251886
H       -0.8179604159    2.4461965914    0.9450370824
C       -1.0132874341   -0.5208541825   -0.7945652178
H       -1.7262931627   -1.0618910610   -1.4060283515
13   
From optimize.out: Frame 30 / 46, Energy=    -286.9214304520
C        1.5321322873    0.2686302425    0.2325550601
C        0.9991663759   -1.0087504612    0.7110986066
C       -0.0071623121   -1.5311579733    0.0192343887
C       -1.1771663802    0.8262047277   -0.6249381728
C       -0.4338963720    1.5787513152    0.3478344045
N        0.9633188177    1.4278460511    0.2039384210
H        2.5707582939    0.2626389524   -0.1081521152
H        1.5115866095   -1.5201280218    1.5270918892
H       -0.4418289645   -2.5004280009    0.2460629372
H       -1.9054159848    1.3704565350   -1.2181011022
H       -0.8250087853    2.3699092274    0.9784916724
C       -1.0270818652   -0.4934345610   -0.8714359150
H       -1.7594017203   -1.0505380330   -1.4436800744
13   
From optimize.out: Frame 30 / 46, Energy=    -286.9214304520
C        1.5640819919    0.2714105083    0.2339433734
C        1.0181780705   -1.0070168110    0.7147177900
C        0.0122686656   -1.5475685278    0.0468692957
C       -1.2019635137    0.8445958539   -0.6602356095
C       -0.4282762942    1.5436916961    0.3333208877
N        0.9772538743    1.4206879328    0.2010446332
H        2.6029559261    0.2666889535   -0.1045786586
H        1.5248158553   -1.4966277301    1.5508230679
H       -0.4446365817   -2.5006234664    0.2931643832
H       -1.9592342651    1.4163396718   -1.1913770159
H       -0.8320571547    2.2936218633    1.0119462623
C       -1.0408762964   -0.4660149394   -0.9483066122
H       -1.7925102779   -1.0391850050   -1.4813317973
13   
From optimize.out: Frame 28 / 46, Energy=    -286.9207127484
C        1.5861254056    0.2740933421    0.2227345197
C        1.0285903763   -0.9870420257    0.7249092041
C        0.0126652439   -1.5269304281    0.0765312968
C       -1.2074296951    0.8369841718   -0.6783542911
C       -0.4170458881    1.4947034466    0.3351193049
N        0.9839360852    1.4115304523    0.1976391556
H        2.6217239872    0.2666050058   -0.1253656237
H        1.5322282358   -1.4564453153    1.5751815544
H       -0.4708880831   -2.4604921488    0.3379141086
H       -1.9808708484    1.4275888824   -1.1584625461
H       -0.8299966446    2.2057332659    1.0477156418
C       -1.0457853828   -0.4630280957   -1.0155490375
H       -1.8132527919   -1.0233005533   -1.5400132875
13   
From optimize.out: Frame 27 / 46, Energy=    -286.9199307505
C        1.6073950143    0.2767685651    0.2105416699
C        1.0383309625   -0.9656423801    0.7356139914
C        0.0115749979   -1.5033983661    0.1063516393
C       -1.2113858878    0.8273413458   -0.6951310975
C       -0.4053772453    1.4446271972    0.3381918879
N        0.9900517583    1.4022167967    0.1941937087
H        2.6394430313    0.2661981451   -0.1480554419
H        1.5391862465   -1.4149598185    1.5995890414
H       -0.4989708444   -2.4172108061    0.3824801353
H       -1.9999936395    1.4361327511   -1.1250645302
H       -0.8272246174    2.1169384674    1.0836658352
C       -1.0500004129   -0.4619497570   -1.0820393746
H       -1.8330293635   -1.0070621408   -1.6003374650
13   
From optimize.out: Frame 27 / 46, Energy=    -286.9199307505
C        1.6286646231    0.2794437882    0.1983488201
C        1.0480715487   -0.9442427345    0.7463187788
C        0.0104847519   -1.4798663040    0.1361719817
C       -1.2153420806    0.8176985198   -0.7119079039
C       -0.3937086025    1.3945509479    0.3412644708
N        0.9961674315    1.3929031411    0.1907482619
H        2.6571620753    0.2657912845   -0.1707452600
H        1.5461442572   -1.3734743217    1.6239965285
H       -0.5270536057   -2.3739294633    0.4270461619
H       -2.0191164306    1.4446766197   -1.0916665142
H       -0.8244525901    2.0281436688    1.1196160286
C       -1.0542154430   -0.4608714183   -1.1485297117
H       -1.8528059351   -0.9908237282   -1.6606616425
13   
From optimize.out: Frame 26 / 46, Energy=    -286.9186949962
C        1.6248443215    0.2799966989    0.1769047897
C        1.0380019214   -0.9334561664    0.7459161917
C       -0.0069632988   -1.4863618048    0.1662047159
C       -1.2177368214    0.8370818922   -0.7319700139
C       -0.3858686991    1.3628388058    0.3412830432
N        0.9886539444    1.3874200612    0.1885628372
H        2.6500713992    0.2623872026   -0.2015524153
H        1.5453874207   -1.3394296630    1.6301708802
H       -0.5512571951   -2.3678634196    0.4802861840
H       -2.0447687628    1.4624657131   -1.0634581130
H       -0.8202215699    1.9417569089    1.1572154036
C       -1.0160643761   -0.4237447336   -1.1970248144
H       -1.8040782841   -0.9830914952   -1.6925386890
13   
From optimize.out: Frame 25 / 46, Energy=    -286.9186117043
C        1.6136059881    0.2799221310    0.1527255741
C        1.0220752467   -0.9258074392    0.7422296210
C       -0.0292476647   -1.5017351936    0.1963002454
C       -1.2196699065    0.8650470913   -0.7530034501
C       -0.3791607929    1.3365561583    0.3403986732
N        0.9771108876    1.3830695214    0.1867499481
H        2.6356455316    0.2580969683   -0.2347595261
H        1.5423496283   -1.3075849475    1.6309544603
H       -0.5743138763   -2.3728003755    0.5360907418
H       -2.0723516058    1.4829882307   -1.0367840626
H       -0.8155591868    1.8560821049    1.1953023723
C       -0.9653874353   -0.3759600684   -1.2401994827
H       -1.7350968140   -0.9778741818   -1.7160051146
13   
From optimize.out: Frame 25 / 46, Energy=    -286.9186117043
C        1.6096016077    0.2793820328    0.1470218130
C        1.0149547587   -0.9260444652    0.7374377231
C       -0.0248142865   -1.5228212483    0.1934421320
C       -1.2234979093    0.8868278083   -0.7690059574
C       -0.3754763100    1.3291581974    0.3328073962
N        0.9689561076    1.3794694000    0.1867323578
H        2.6336529649    0.2602432446   -0.2332966044
H        1.5313634148   -1.2918571137    1.6353191652
H       -0.5691096868   -2.3922599638    0.5372394593
H       -2.0858365951    1.5045070779   -1.0325085222
H       -0.8122223289    1.8238642666    1.2045097656
C       -0.9512549270   -0.3510332161   -1.2455157116
H       -1.7163168103   -0.9794360206   -1.6941830167
13   
From optimize.out: Frame 24 / 46, Energy=    -286.9173359841
C        1.6151473152    0.2782273531    0.1657088947
C        1.0194599830   -0.9366920697    0.7311865993
C        0.0148912034   -1.5514490245    0.1470794261
C       -1.2298275362    0.9004439233   -0.7783667554
C       -0.3757832764    1.3466913376    0.3163618249
N        0.9652744479    1.3768599626    0.1890848771
H        2.6480745376    0.2708868445   -0.1860631546
H        1.5098838905   -1.2974063928    1.6444115835
H       -0.5265961874   -2.4308919758    0.4662328745
H       -2.0807099432    1.5273412549   -1.0578029463
H       -0.8106353972    1.8622190060    1.1755910504
C       -0.9853674839   -0.3562826889   -1.2008521555
H       -1.7638115532   -0.9899475303   -1.6125721187
13   
From optimize.out: Frame 23 / 46, Energy=    -286.9167545405
C        1.6206930226    0.2770726733    0.1843959764
C        1.0239652073   -0.9473396742    0.7249354756
C        0.0545966932   -1.5800768007    0.1007167201
C       -1.2361571630    0.9140600383   -0.7877275534
C       -0.3760902428    1.3642244777    0.2999162537
N        0.9615927882    1.3742505253    0.1914373964
H        2.6624961102    0.2815304444   -0.1388297048
H        1.4884043661   -1.3029556718    1.6535040018
H       -0.4840826880   -2.4695239879    0.3952262896
H       -2.0755832913    1.5501754319   -1.0830973704
H       -0.8090484654    1.9005737454    1.1466723352
C       -1.0194800408   -0.3615321617   -1.1561885995
H       -1.8113062962   -1.0004590399   -1.5309612207
13   
From optimize.out: Frame 22 / 46, Energy=    -286.9142731159
C        1.6262387300    0.2759179935    0.2030830581
C        1.0284704316   -0.9579872786    0.7186843518
C        0.0943021830   -1.6087045769    0.0543540142
C       -1.2424867899    0.9276761533   -0.7970883515
C       -0.3763972093    1.3817576178    0.2834706824
N        0.9579111285    1.3716410879    0.1937899156
H        2.6769176828    0.2921740442   -0.0915962550
H        1.4669248418   -1.3085049509    1.6625964201
H       -0.4415691886   -2.5081559999    0.3242197047
H       -2.0704566394    1.5730096089   -1.1083917944
H       -0.8074615336    1.9389284847    1.1177536200
C       -1.0535925977   -0.3667816345   -1.1115250434
H       -1.8588010392   -1.0109705496   -1.4493503227
13   
From optimize.out: Frame 22 / 46, Energy=    -286.9142731159
C        1.6317844374    0.2747633138    0.2217701398
C        1.0329756558   -0.9686348831    0.7124332281
C        0.1340076728   -1.6373323532    0.0079913082
C       -1.2488164167    0.9412922683   -0.8064491495
C       -0.3767041757    1.3992907580    0.2670251111
N        0.9542294688    1.3690316505    0.1961424349
H        2.6913392554    0.3028176441   -0.0443628052
H        1.4454453174   -1.3140542299    1.6716888384
H       -0.3990556892   -2.5467880119    0.2532131199
H       -2.0653299875    1.5958437859   -1.1336862185
H       -0.8058746018    1.9772832241    1.0888349048
C       -1.0877051546   -0.3720311073   -1.0668614874
H       -1.9062957822   -1.0214820592   -1.3677394247
13   
From optimize.out: Frame 21 / 46, Energy=    -286.9132024715
C        1.6291381190    0.2750406009    0.2375354854
C        1.0236059015   -0.9740799361    0.7007935645
C        0.1557270323   -1.6437414758   -0.0424657238
C       -1.2488650001    0.9445380374   -0.8102971170
C       -0.3758823298    1.4139609936    0.2513959989
N        0.9521338587    1.3692473260    0.1972866939
H        2.6946539712    0.3080117402   -0.0005722262
H        1.4063969417   -1.3240498354    1.6697417154
H       -0.3802949046   -2.5583447457    0.1716261463
H       -2.0597935421    1.5932163990   -1.1619492667
H       -0.8022616545    2.0124412537    1.0591284661
C       -1.0889988900   -0.3756683485   -1.0032735950
H       -1.9055595034   -1.0405720092   -1.2689501418
13   
From optimize.out: Frame 20 / 46, Energy=    -286.9096968699
C        1.6251512453    0.2755522172    0.2528227136
C        1.0119656249   -0.9786736357    0.6882721123
C        0.1745031146   -1.6465147049   -0.0935927575
C       -1.2478857441    0.9460867876   -0.8132429567
C       -0.3748757633    1.4281627392    0.2359004932
N        0.9502977921    1.3699253073    0.1982332314
H        2.6961511442    0.3123140715    0.0426549563
H        1.3644735730   -1.3347730444    1.6659880654
H       -0.3654210499   -2.5654708406    0.0883077822
H       -2.0541900375    1.5864224437   -1.1906981050
H       -0.7983171669    2.0470761689    1.0292931231
C       -1.0849221044   -0.3790417618   -0.9365888959
H       -1.8969306281   -1.0610657479   -1.1673497623
13   
From optimize.out: Frame 20 / 46, Energy=    -286.9096968699
C        1.6211643716    0.2760638335    0.2681099419
C        1.0003253483   -0.9832673354    0.6757506600
C        0.1932791969   -1.6492879339   -0.1447197912
C       -1.2469064882    0.9476355378   -0.8161887964
C       -0.3738691969    1.4423644849    0.2204049875
N        0.9484617255    1.3706032885    0.1991797689
H        2.6976483173    0.3166164027    0.0858821388
H        1.3225502042   -1.3454962535    1.6622344154
H       -0.3505471951   -2.5725969354    0.0049894180
H       -2.0485865329    1.5796284884   -1.2194469433
H       -0.7943726793    2.0817110842    0.9994577801
C       -1.0808453188   -0.3824151751   -0.8699041969
H       -1.8883017527   -1.0815594866   -1.0657493828
13   
From optimize.out: Frame 19 / 46, Energy=    -286.9071386361
C        1.6156131720    0.2746378100    0.2807058837
C        0.9946055223   -0.9922664249    0.6664157206
C        0.2158124214   -1.6618712198   -0.1828353099
C       -1.2507918726    0.9562957329   -0.8208792262
C       -0.3759855521    1.4555732043    0.2060826585
N        0.9440648655    1.3681410428    0.1996445921
H        2.6963021806    0.3205253964    0.1204270012
H        1.2949060828   -1.3567252524    1.6599441072
H       -0.3263502883   -2.5912750230   -0.0587400713
H       -2.0466246583    1.5838855119   -1.2450038905
H       -0.7915773682    2.1117188024    0.9746438477
C       -1.0831102319   -0.3776072820   -0.8166076785
H       -1.8868642733   -1.0910322986   -0.9837976347
13   