13   
From optimize.out: Frame 1 / 1, Energy=    -286.9243386648
C        1.5261120191    0.2823998020    0.6697659773
C        1.0972289682   -1.0098286500    0.4324461205
C       -0.1575940425   -1.4433720349   -0.1271523590
C       -1.2393358011    0.7884342166   -0.5032724649
C       -0.2744246816    1.6673626431   -0.0480740357
N        0.9612499246    1.4976022847    0.4779004187
H        2.5255510377    0.3608900613    1.1033706514
H        1.7990871818   -1.7951192913    0.7028276008
H       -0.2857686699   -2.5193594907   -0.2262905290
H       -2.1516602502    1.2454761228   -0.8790338708
H       -0.5457249603    2.7229459673   -0.1204472999
C       -1.1866370566   -0.6506783505   -0.5403412485
H       -2.0680836691   -1.1467532807   -0.9416989612
13   
From optimize.out: Frame 45 / 46, Energy=    -286.9243386733
C        1.5321559921    0.2881062590    0.6453618414
C        1.0737437103   -1.0115110262    0.4741205026
C       -0.1597193928   -1.4439248703   -0.1210822641
C       -1.2420001444    0.7902341162   -0.4906372190
C       -0.2807786648    1.6673990383   -0.0416031038
N        0.9891017775    1.4967699117    0.4212108770
H        2.5453376384    0.3604812494    1.0480650265
H        1.7614220210   -1.7947587685    0.7824283102
H       -0.2772842674   -2.5198491947   -0.2384831668
H       -2.1679922066    1.2428222701   -0.8380715661
H       -0.5601276577    2.7218738589   -0.0757528593
C       -1.1762543000   -0.6515615226   -0.5612921994
H       -2.0376045056   -1.1460813213   -1.0042641792
13   
From optimize.out: Frame 44 / 46, Energy=    -286.9243384212
C        1.5423160360    0.2928656859    0.6150515990
C        1.0548774670   -1.0144589299    0.5152211914
C       -0.1571824978   -1.4456775499   -0.1080184341
C       -1.2395333179    0.7948085635   -0.4954242050
C       -0.2900705155    1.6653492611   -0.0337108063
N        1.0082150699    1.4895899895    0.3782435837
H        2.5708031664    0.3607190174    0.9796480828
H        1.7311518965   -1.7928097384    0.8560670456
H       -0.2709965680   -2.5234021310   -0.2245070879
H       -2.1741638911    1.2476916541   -0.8202278500
H       -0.5863745395    2.7140995887   -0.0048367050
C       -1.1708177045   -0.6478625481   -0.5936794084
H       -2.0182246015   -1.1409128628   -1.0638270058
13   
From optimize.out: Frame 44 / 46, Energy=    -286.9243384212
C        1.5530561237    0.2962341592    0.5870883126
C        1.0346802050   -1.0132907652    0.5558505123
C       -0.1580830355   -1.4381575402   -0.0949413606
C       -1.2354392990    0.7962914221   -0.5070108597
C       -0.3025394583    1.6612716402   -0.0103100325
N        1.0184576304    1.4814548990    0.3433399341
H        2.6005357706    0.3594230654    0.8958809071
H        1.6974339008   -1.7915816666    0.9231992896
H       -0.2807144098   -2.5166847683   -0.2003562498
H       -2.1788564959    1.2438809115   -0.8151698537
H       -0.6103888912    2.7036963904    0.0704793808
C       -1.1513871785   -0.6437911784   -0.6295478872
H       -1.9867548624   -1.1387465692   -1.1185020931
13   
From optimize.out: Frame 43 / 46, Energy=    -286.9243378296
C        1.5641418691    0.2987744273    0.5552642595
C        1.0121653782   -1.0051241482    0.5952612753
C       -0.1654884521   -1.4235037049   -0.0799666299
C       -1.2256945653    0.7964172314   -0.5256169453
C       -0.3127295238    1.6532678484    0.0140752516
N        1.0274198605    1.4752706381    0.3128905148
H        2.6263975076    0.3557242480    0.8114523585
H        1.6631215609   -1.7853387668    0.9790180940
H       -0.3001703581   -2.5013835075   -0.1738308901
H       -2.1757959338    1.2367743062   -0.8236978603
H       -0.6358355544    2.6841475555    0.1570524962
C       -1.1291263444   -0.6421714693   -0.6559935296
H       -1.9484054443   -1.1428546582   -1.1659083948
13   
From optimize.out: Frame 42 / 46, Energy=    -286.9243358068
C        1.5674956533    0.3001359875    0.5406580754
C        0.9917058741   -1.0024969866    0.6352213733
C       -0.1615243599   -1.4292345637   -0.0614198769
C       -1.2239548212    0.8005849969   -0.5419125576
C       -0.3304644567    1.6443097913    0.0560733981
N        1.0236337174    1.4671297624    0.3021018852
H        2.6483961156    0.3453151150    0.7069771189
H        1.6425414736   -1.7796189061    1.0295056780
H       -0.2837148772   -2.5066502560   -0.1469819361
H       -2.1719699699    1.2410161892   -0.8457717443
H       -0.6508245422    2.6735069862    0.2124153104
C       -1.1232698189   -0.6320848830   -0.6725714360
H       -1.9280499881   -1.1219132331   -1.2142952883
13   
From optimize.out: Frame 41 / 46, Energy=    -286.9243327025
C        1.5832525051    0.2977562114    0.5095362433
C        0.9851988865   -0.9992562582    0.6592770174
C       -0.1521404301   -1.4119213716   -0.0605335432
C       -1.2304814351    0.8023072462   -0.5591171634
C       -0.3356269024    1.6373911748    0.0527847555
N        1.0309508204    1.4497616863    0.2471526564
H        2.6650572338    0.3425564175    0.6772712187
H        1.6183915819   -1.7705493801    1.0926306456
H       -0.3088084901   -2.4868039659   -0.1212064311
H       -2.1986160140    1.2316615399   -0.8128968889
H       -0.6584500585    2.6504770942    0.2863847304
C       -1.1003202089   -0.6210705786   -0.7158287687
H       -1.8984074886   -1.1223098158   -1.2554544721
13   
From optimize.out: Frame 40 / 46, Energy=    -286.9243224859
C        1.5804097701    0.3044093865    0.5036978398
C        0.9736680329   -1.0054241454    0.6710494370
C       -0.1558375506   -1.4173581456   -0.0405615242
C       -1.2125510992    0.8066961569   -0.5727054554
C       -0.3568647184    1.6319314133    0.0945736025
N        1.0115946115    1.4440381900    0.2886361380
H        2.6711820488    0.3398375446    0.5810098239
H        1.6109770501   -1.7719219539    1.1019588791
H       -0.3046945664   -2.4947959311   -0.1022655629
H       -2.1667240771    1.2418924117   -0.8662635113
H       -0.6725780442    2.6512406602    0.3077437101
C       -1.1069148182   -0.6129317790   -0.6924852454
H       -1.8716666394   -1.1176138082   -1.2743881311
13   
From optimize.out: Frame 40 / 46, Energy=    -286.9243224859
C        1.5797399722    0.3106314487    0.4829025748
C        0.9581773618   -0.9971527582    0.6864988838
C       -0.1516501109   -1.4062621382   -0.0311962908
C       -1.1937204458    0.7944182588   -0.5667747007
C       -0.3653507986    1.6197218660    0.1413617469
N        1.0026613473    1.4441893144    0.3068547702
H        2.6719632989    0.3319121897    0.4731417778
H        1.5810519174   -1.7588469611    1.1456177253
H       -0.3229332085   -2.4813035779   -0.0886112934
H       -2.1286464621    1.2372083056   -0.9103674127
H       -0.6925085123    2.6348203424    0.3523113685
C       -1.0916602939   -0.6128868386   -0.6978923785
H       -1.8471240655   -1.1164494516   -1.2938467712
13   
From optimize.out: Frame 39 / 46, Energy=    -286.9243085986
C        1.5830222356    0.3092304644    0.4532906744
C        0.9596520545   -0.9952286603    0.6957562478
C       -0.1309159121   -1.4148381167   -0.0228966505
C       -1.2084893472    0.7877605007   -0.5528655903
C       -0.3664907036    1.6185142669    0.1612075739
N        0.9965128735    1.4330186275    0.2655474025
H        2.6730757745    0.3212185020    0.4016864153
H        1.5582267277   -1.7359040793    1.2204227837
H       -0.3272626994   -2.4886462365   -0.0437442424
H       -2.1333841162    1.2395094215   -0.9118425788
H       -0.6952725856    2.6194870325    0.4281811671
C       -1.0756136099   -0.5982305629   -0.7476472604
H       -1.8330606916   -1.0958911599   -1.3470959424
13   
From optimize.out: Frame 38 / 46, Energy=    -286.9242391227
C        1.5936383160    0.3098687729    0.4171443538
C        0.9551786291   -0.9863017269    0.6970763526
C       -0.1170272509   -1.4267815370   -0.0215268517
C       -1.2222368842    0.7785522453   -0.5411888911
C       -0.3700726642    1.6143178480    0.2005471978
N        0.9954441154    1.4362272286    0.2818071004
H        2.6792800402    0.3018374638    0.3051175823
H        1.5287029626   -1.7000979828    1.2850335227
H       -0.3392186469   -2.4971840150   -0.0002703529
H       -2.1161148183    1.2498410557   -0.9504690928
H       -0.7050061620    2.6080091048    0.4888559868
C       -1.0694097939   -0.5932608109   -0.7737693478
H       -1.8131578430   -1.0950276466   -1.3883575600
13   
From optimize.out: Frame 38 / 46, Energy=    -286.9242391227
C        1.5902451087    0.3120958796    0.3894010230
C        0.9458711221   -0.9809916883    0.6941735603
C       -0.1448720806   -1.4251958883    0.0069914256
C       -1.2179646119    0.7787784733   -0.5388655853
C       -0.3795450064    1.6033577251    0.2384322491
N        0.9865359274    1.4394362510    0.2734890974
H        2.6710222690    0.2950802769    0.2301475753
H        1.5207521494   -1.6846336412    1.2919794155
H       -0.3772412184   -2.4939673124    0.0524651892
H       -2.0815918396    1.2583716091   -1.0010804949
H       -0.7268078208    2.5817257911    0.5593467451
C       -1.0402849282   -0.5865761988   -0.7733876772
H       -1.7461190708   -1.0974812773   -1.4230925230
13   
From optimize.out: Frame 37 / 46, Energy=    -286.9242060203
C        1.5877290895    0.3141324603    0.3603225904
C        0.9386511994   -0.9766415229    0.6894324172
C       -0.1675057968   -1.4298342842    0.0293678645
C       -1.2088761285    0.7796799042   -0.5390692362
C       -0.3873343646    1.5905668307    0.2757866249
N        0.9853994053    1.4458045738    0.2727370124
H        2.6610276075    0.2904619972    0.1477415679
H        1.5092475830   -1.6635220101    1.3092679376
H       -0.4129250643   -2.4931765435    0.1107140395
H       -2.0425343366    1.2675393008   -1.0508507603
H       -0.7580224253    2.5458417500    0.6345902340
C       -1.0096690099   -0.5772429023   -0.7863340881
H       -1.6951877588   -1.0936095539   -1.4537062039
13   
From optimize.out: Frame 36 / 46, Energy=    -286.9240257846
C        1.5749814716    0.3105028367    0.3369172537
C        0.9564941382   -0.9844423361    0.6933915766
C       -0.1577151007   -1.4351685272    0.0413240772
C       -1.2026557604    0.7748614721   -0.5454889752
C       -0.3938352581    1.5854129251    0.3021897050
N        0.9793789868    1.4434800608    0.2789344437
H        2.6372877411    0.2965404944    0.0626303514
H        1.5219130474   -1.6426959694    1.3455106980
H       -0.4275950934   -2.4909288653    0.1520847107
H       -1.9962450526    1.2708060152   -1.1127251986
H       -0.7704304211    2.5126092988    0.7151238906
C       -1.0135426242   -0.5742011862   -0.7971063874
H       -1.7080360747   -1.0667762190   -1.4727861457
13   
From optimize.out: Frame 36 / 46, Energy=    -286.9240257846
C        1.5442984669    0.3003994496    0.3244693948
C        0.9832308112   -0.9974335898    0.7109334313
C       -0.1284519841   -1.4227370739    0.0392142008
C       -1.1961018578    0.7612354894   -0.5500957020
C       -0.3999373920    1.5962524561    0.3115116823
N        0.9563787166    1.4298855701    0.2574988670
H        2.6001861714    0.3051438971    0.0196650803
H        1.5514386562   -1.6350137188    1.3734213649
H       -0.4265525627   -2.4742709681    0.1418770399
H       -1.9561767409    1.2534246037   -1.1642639175
H       -0.7429027875    2.5096597022    0.7739448984
C       -1.0403801057   -0.5864441890   -0.7713276093
H       -1.7450293916   -1.0401016286   -1.4668487308
13   
From optimize.out: Frame 35 / 46, Energy=    -286.9238966381
C        1.5193642598    0.2905046426    0.2908580577
C        0.9677548331   -0.9916483014    0.7162714302
C       -0.1101188786   -1.4220743291    0.0041125885
C       -1.1659051077    0.7524107422   -0.5445166155
C       -0.4066990969    1.6092015608    0.3369446191
N        0.9561946275    1.4385075043    0.2293415150
H        2.5689029274    0.2844992255   -0.0302362106
H        1.5120434173   -1.6045299334    1.4228558252
H       -0.4490992044   -2.4553599006    0.1334455845
H       -1.9144028582    1.2313568816   -1.1817778222
H       -0.7539672218    2.5072121860    0.8240780702
C       -1.0032277191   -0.5868060505   -0.7653171583
H       -1.7208399782   -1.0532742280   -1.4360598838
13   
From optimize.out: Frame 34 / 46, Energy=    -286.9235515612
C        1.4915643855    0.2726045842    0.2686941892
C        0.9880041362   -1.0206946121    0.7081075509
C       -0.0835501134   -1.4499755317    0.0155583955
C       -1.1625555137    0.7818916172   -0.5664758040
C       -0.4367362972    1.6274199381    0.3525079904
N        0.9361637412    1.4290373832    0.2273185627
H        2.5266196543    0.2732478267   -0.0902558267
H        1.5378860421   -1.6043920734    1.4374692380
H       -0.4743729526   -2.4595486682    0.1684369246
H       -1.8687922605    1.2659664548   -1.2409118941
H       -0.7833824837    2.5023611429    0.8842142336
C       -0.9903598001   -0.5527080573   -0.7505049892
H       -1.6804885382   -1.0652100043   -1.4141585711
13   
From optimize.out: Frame 33 / 46, Energy=    -286.9231549263
C        1.4954576486    0.2661961965    0.2399799760
C        0.9843561678   -1.0160758940    0.7068340408
C       -0.0402743388   -1.4992382338   -0.0003031987
C       -1.1552120222    0.8033730613   -0.5852091178
C       -0.4414373966    1.6191909302    0.3607644152
N        0.9438320244    1.4323799817    0.2126924443
H        2.5316498475    0.2618748140   -0.1106873107
H        1.5121960665   -1.5609537528    1.4857159379
H       -0.4509348102   -2.4894974147    0.1936911266
H       -1.8525889726    1.3116008250   -1.2490195408
H       -0.8108869792    2.4615680206    0.9329718849
C       -1.0061225501   -0.5266381267   -0.7808560436
H       -1.7100346853   -1.0637804072   -1.4065746142
13   
From optimize.out: Frame 32 / 46, Energy=    -286.9225443165
C        1.5224132201    0.2677844885    0.2321327366
C        0.9933830380   -1.0092778358    0.7099976548
C       -0.0130731955   -1.5261658995    0.0108278785
C       -1.1696231177    0.8206101660   -0.6142007289
C       -0.4356059939    1.5894164152    0.3522494013
N        0.9590797879    1.4300235433    0.2048187083
H        2.5609638074    0.2614069462   -0.1092391571
H        1.5075622865   -1.5272767863    1.5198728891
H       -0.4409748902   -2.5003685405    0.2317347258
H       -1.8890445194    1.3564989320   -1.2262305418
H       -0.8228646786    2.3931157650    0.9683148206
C       -1.0228856135   -0.5017755816   -0.8480519281
H       -1.7493301311   -1.0539916125   -1.4322264591
13   
From optimize.out: Frame 32 / 46, Energy=    -286.9225443165
C        1.5544096643    0.2705688216    0.2335230809
C        1.0124225451   -1.0075416494    0.7136221327
C        0.0063862081   -1.5426004613    0.0385032130
C       -1.1944565273    0.8390281969   -0.6495498027
C       -0.4299776944    1.5543055069    0.3377146525
N        0.9730352302    1.4228549533    0.2019206871
H        2.5932085419    0.2654628721   -0.1056604728
H        1.5208108856   -1.5037421157    1.5436387845
H       -0.4437866148   -2.5005642920    0.2789050772
H       -1.9429415312    1.4024491919   -1.1994673604
H       -0.8299233591    2.3167167991    1.0018183517
C       -1.0367002247   -0.4743158475   -0.9250350805
H       -1.7824871237   -1.0426219760   -1.4699332632
13   
From optimize.out: Frame 31 / 46, Energy=    -286.9221182089
C        1.5796955087    0.2733107798    0.2260040575
C        1.0255531855   -0.9928685194    0.7219364458
C        0.0125495650   -1.5329504056    0.0678791156
C       -1.2058352514    0.8392044418   -0.6730692088
C       -0.4203217125    1.5089929482    0.3345947202
N        0.9819869349    1.4142016201    0.1986325077
H        2.6162494858    0.2666294927   -0.1193022233
H        1.5300661005   -1.4681662215    1.5680763683
H       -0.4632307188   -2.4721981504    0.3248609524
H       -1.9745596209    1.4243075729   -1.1680634478
H       -0.8305976798    2.2313697045    1.0372819846
C       -1.0443534395   -0.4638993354   -0.9959349310
H       -1.8072023576   -1.0279339276   -1.5228963410
13   
From optimize.out: Frame 30 / 46, Energy=    -286.9214304520
C        1.6013057946    0.2760026826    0.2140323284
C        1.0355423560   -0.9717688278    0.7325493463
C        0.0118871215   -1.5101352975    0.0978144527
C       -1.2102532799    0.8301019648   -0.6903281102
C       -0.4087178300    1.4589633935    0.3373122463
N        0.9883009185    1.4048831784    0.1951800966
H        2.6343702933    0.2663146242   -0.1415596342
H        1.5371942561   -1.4268365911    1.5926014869
H       -0.4909311053   -2.4296017066    0.3697214460
H       -1.9945190265    1.4336867497   -1.1346259594
H       -0.8280182137    2.1423592942    1.0733737499
C       -1.0487937032   -0.4622584717   -1.0630040327
H       -1.8273675814   -1.0117109927   -1.5830674166
13   
From optimize.out: Frame 30 / 46, Energy=    -286.9214304520
C        1.6226067742    0.2786818514    0.2018214953
C        1.0452973087   -0.9503376196    0.7432699223
C        0.0107952675   -1.4865685277    0.1276787776
C       -1.2142153077    0.8204449165   -0.7071296609
C       -0.3970319770    1.4088132860    0.3403893610
N        0.9944256117    1.3955557860    0.1917295679
H        2.6521154714    0.2659071634   -0.1642829178
H        1.5441625293   -1.3852899067    1.6170449728
H       -0.5190552863   -2.3862565276    0.4143532036
H       -2.0136700220    1.4422432198   -1.1011786842
H       -0.8252420979    2.0534335310    1.1093769668
C       -1.0530149501   -0.4611785425   -1.1295924373
H       -1.8471733217   -0.9954486299   -1.6434805671
13   
From optimize.out: Frame 28 / 46, Energy=    -286.9207127484
C        1.6257150914    0.2798706727    0.1817925758
C        1.0402971142   -0.9359147732    0.7460079543
C       -0.0029863253   -1.4848812706    0.1593592872
C       -1.2171909827    0.8326637965   -0.7273972120
C       -0.3876556659    1.3700670257    0.3412788100
N        0.9903665104    1.3886698319    0.1890609659
H        2.6516875929    0.2631631026   -0.1945304711
H        1.5455599282   -1.3471895387    1.6287635463
H       -0.5457404165   -2.3692460666    0.4681510659
H       -2.0389217689    1.4584110050   -1.0698877174
H       -0.8211859558    1.9614472376    1.1486452934
C       -1.0247602347   -0.4322071024   -1.1859712164
H       -1.8151848873   -0.9848539204   -1.6852728820
13   
From optimize.out: Frame 27 / 46, Energy=    -286.9199307505
C        1.6159673181    0.2799377987    0.1578059633
C        1.0254216624   -0.9274145431    0.7430042207
C       -0.0245654097   -1.4985050310    0.1899767565
C       -1.2192637384    0.8591712144   -0.7485840329
C       -0.3805702172    1.3420785078    0.3405844916
N        0.9795362442    1.3839836303    0.1871308613
H        2.6386766069    0.2589984062   -0.2277822507
H        1.5429879107   -1.3142759647    1.6307898192
H       -0.5694693472   -2.3717630525    0.5243654287
H       -2.0665560672    1.4786761646   -1.0423886513
H       -0.8165388182    1.8740835717    1.1872997709
C       -0.9760353648   -0.3860002906   -1.2311278849
H       -1.7495907795   -0.9789704118   -1.7110744925
13   
From optimize.out: Frame 27 / 46, Energy=    -286.9199307505
C        1.6117122817    0.2789425664    0.1541340411
C        1.0166694290   -0.9300969006    0.7350585705
C       -0.0097025369   -1.5337168646    0.1757966728
C       -1.2259069398    0.8920100469   -0.7725686394
C       -0.3755931402    1.3358312400    0.3265482780
N        0.9675548828    1.3784762587    0.1876277172
H        2.6391417574    0.2642941559   -0.2153197435
H        1.5231883943   -1.2939691470    1.6387797030
H       -0.5529292200   -2.4069631521    0.5102146389
H       -2.0838854120    1.5131976737   -1.0421354782
H       -0.8116183491    1.8384619260    1.1935034190
C       -0.9642380288   -0.3530311444   -1.2285169419
H       -1.7343931183   -0.9834366589   -1.6631222374
13   
From optimize.out: Frame 26 / 46, Energy=    -286.9186949962
C        1.6172661084    0.2777861961    0.1728484819
C        1.0211812492   -0.9407600939    0.7287982947
C        0.0300610845   -1.5623865539    0.1293660887
C       -1.2322458337    0.9056460968   -0.7819431423
C       -0.3759005560    1.3533900498    0.3100786293
N        0.9638678328    1.3758630009    0.1899836807
H        2.6535844442    0.2749533387   -0.1680171407
H        1.5016774225   -1.2995265506    1.6478854332
H       -0.5103534780   -2.4456517240    0.4391040956
H       -2.0787512544    1.5360652815   -1.0674669350
H       -0.8100290939    1.8768728193    1.1645423648
C       -0.9984005288   -0.3582883027   -1.1837879954
H       -1.7819573968   -0.9939635581   -1.5813918555
13   
From optimize.out: Frame 25 / 46, Energy=    -286.9186117043
C        1.6228199010    0.2766298329    0.1915628078
C        1.0256930417   -0.9514232217    0.7225380574
C        0.0698244616   -1.5910560670    0.0829357898
C       -1.2385846886    0.9192820629   -0.7913175876
C       -0.3762079700    1.3709487518    0.2936090817
N        0.9601808056    1.3732497592    0.1923396298
H        2.6680270423    0.2856124561   -0.1207148285
H        1.4801665828   -1.3050839200    1.6569911075
H       -0.4677779975   -2.4843400583    0.3679939891
H       -2.0736171282    1.5589327488   -1.0927982363
H       -0.8084398485    1.9152834767    1.1355814886
C       -1.0325628190   -0.3635454288   -1.1390593236
H       -1.8295213831   -1.0044903926   -1.4996619757
13   
From optimize.out: Frame 24 / 46, Energy=    -286.9173359841
C        1.6283736455    0.2754734797    0.2102769715
C        1.0302047951   -0.9620862571    0.7162778743
C        0.1095874941   -1.6197253317    0.0365058933
C       -1.2449234886    0.9329179109   -0.8006919516
C       -0.3765153813    1.3885073016    0.2771396770
N        0.9564938103    1.3706365401    0.1946955584
H        2.6824695152    0.2962714810   -0.0734129263
H        1.4586559295   -1.3106412413    1.6660967029
H       -0.4252028859   -2.5230280572    0.2968844989
H       -2.0684830466    1.5818000180   -1.1181293179
H       -0.8068506169    1.9536938012    1.1066208633
C       -1.0667248130   -0.3688025093   -1.0943310395
H       -1.8770849572   -1.0150171360   -1.4179328042
13   
From optimize.out: Frame 23 / 46, Energy=    -286.9167545405
C        1.6307408367    0.2748726646    0.2279873530
C        1.0292806045   -0.9707821913    0.7078430166
C        0.1425729078   -1.6398598513   -0.0119068999
C       -1.2488355760    0.9425722681   -0.8079666319
C       -0.3763800730    1.4050761042    0.2608616228
N        0.9534030451    1.3691167042    0.1965936843
H        2.6926464449    0.3048659851   -0.0270935759
H        1.4300462209   -1.3179960915    1.6709209720
H       -0.3916571963   -2.5513455193    0.2210385247
H       -2.0631466379    1.5948076510   -1.1448320191
H       -0.8044498018    1.9911481258    1.0771198895
C       -1.0882153514   -0.3734654878   -1.0417850002
H       -1.9060054237   -1.0290103616   -1.3287809360
13   
From optimize.out: Frame 22 / 46, Energy=    -286.9142731159
C        1.6275114393    0.2752493448    0.2437728099
C        1.0188565656   -0.9759542062    0.6956847012
C        0.1633878402   -1.6448729778   -0.0633260063
C       -1.2484654550    0.9451699412   -0.8114990457
C       -0.3754716418    1.4197554316    0.2450736954
N        0.9513847272    1.3695239484    0.1976728896
H        2.6952648310    0.3097671295    0.0170648470
H        1.3892918361   -1.3284249996    1.6682101930
H       -0.3742262402   -2.5612522555    0.1376315160
H       -2.0575072626    1.5904444050   -1.1736790473
H       -0.8006522686    2.0265726058    1.0469553819
C       -1.0873355253   -0.3770447310   -0.9760656473
H       -1.9020388458   -1.0489336360   -1.2274962873
13   
From optimize.out: Frame 22 / 46, Energy=    -286.9142731159
C        1.6235187694    0.2757617049    0.2590822629
C        1.0071993662   -0.9805545843    0.6831450451
C        0.1821912193   -1.6476502386   -0.1145273690
C       -1.2474847754    0.9467209430   -0.8144491681
C       -0.3744636119    1.4339778238    0.2295556622
N        0.9495459914    1.3702029153    0.1986208032
H        2.6967641807    0.3140757155    0.0603548737
H        1.3473075187   -1.3391637982    1.6644510859
H       -0.3593307616   -2.5683887104    0.0541920227
H       -2.0518956116    1.5836405726   -1.2024696810
H       -0.7967020465    2.0612578736    1.0170766640
C       -1.0832528129   -0.3804230486   -0.9092840013
H       -1.8933974258   -1.0694571687   -1.1257482001
13   
From optimize.out: Frame 21 / 46, Energy=    -286.9132024715
C        1.6183610435    0.2753436987    0.2744708295
C        0.9974368648   -0.9878118306    0.6710365623
C        0.2046583625   -1.6556424303   -0.1639679374
C       -1.2488685878    0.9520088929   -0.8185574400
C       -0.3749379457    1.4490348221    0.2131722830
N        0.9462413332    1.3693598667    0.1994145023
H        2.6969685250    0.3185904249    0.1033271214
H        1.3085900612   -1.3511668417    1.6610778212
H       -0.3383278782   -2.5820292762   -0.0271936552
H       -2.0475957961    1.5817782640   -1.2323530738
H       -0.7929610612    2.0968648317    0.9869268684
C       -1.0819890886   -0.3799872131   -0.8429897218
H       -1.8875758328   -1.0863432092   -1.0243641601
13   
From optimize.out: Frame 20 / 46, Energy=    -286.9096968699
C        1.6078739244    0.2683150986    0.2806525083
C        1.0078903571   -1.0100889160    0.6698195307
C        0.2399096120   -1.6970940974   -0.1689353531
C       -1.2668484389    0.9815528707   -0.8286118182
C       -0.3860669815    1.4606799385    0.2008175455
N        0.9342044098    1.3578036499    0.1985633390
H        2.6874711399    0.3217559665    0.1166076493
H        1.3186544222   -1.3648767826    1.6627027985
H       -0.2855476342   -2.6350639470   -0.0416139411
H       -2.0557280249    1.6176249589   -1.2512987288
H       -0.7931469595    2.1166277757    0.9739575721
C       -1.1023653052   -0.3516373435   -0.8224802705
H       -1.9063005211   -1.0655991725   -0.9901808317
13   
From optimize.out: Frame 20 / 46, Energy=    -286.9096968699
C        1.5949284750    0.2577390910    0.2805632273
C        1.0301119174   -1.0399006198    0.6755130884
C        0.2802170138   -1.7560114503   -0.1456848776
C       -1.2937062781    1.0238005178   -0.8415461348
C       -0.4029302015    1.4692219795    0.1920105842
N        0.9177108127    1.3405122795    0.1967547255
H        2.6726994468    0.3238143428    0.1102190144
H        1.3583783002   -1.3785118578    1.6673172651
H       -0.2172969820   -2.7083097368   -0.0129670411
H       -2.0709552380    1.6740609756   -1.2618281131
H       -0.7957724170    2.1248390216    0.9728096381
C       -1.1345732912   -0.3081973938   -0.8323033627
H       -1.9388115580   -1.0230571495   -1.0008580137
13   
From optimize.out: Frame 19 / 46, Energy=    -286.9071386361
C        1.5819848187    0.2471645484    0.2804739585
C        1.0523303998   -1.0697081944    0.6812058574
C        0.3205188326   -1.8149206423   -0.1224376224
C       -1.3205603972    1.0660423130   -0.8544786599
C       -0.4197910857    1.4777628374    0.1832048427
N        0.9012195002    1.3232233042    0.1949463625
H        2.6579297996    0.3258724340    0.1038312645
H        1.3980966759   -1.3921450443    1.6719310925
H       -0.1490557833   -2.7815453812    0.0156758909
H       -2.0861803420    1.7304891752   -1.2723560390
H       -0.7983975109    2.1330491302    0.9716618631
C       -1.1667768160   -0.2647634611   -0.8421250942
H       -1.9713180917   -0.9805210192   -1.0115337167
13   
From optimize.out: Frame 18 / 46, Energy=    -286.9018802860
C        1.5690428743    0.2365914042    0.2803847016
C        1.0745459437   -1.0995118268    0.6868978736
C        0.3608153214   -1.8738220436   -0.0991934418
C       -1.3474109648    1.1082785218   -0.8674094747
C       -0.4366497401    1.4863025657    0.1744002659
N        0.8847303686    1.3059366154    0.1931382387
H        2.6431621058    0.3279302530    0.0974443593
H        1.4378097988   -1.4057764279    1.6765443097
H       -0.0808236096   -2.8547713400    0.0443150349
H       -2.1014034324    1.7869099121   -1.2828825725
H       -0.8010222575    2.1412581530    0.9705142398
C       -1.1989760818   -0.2213352725   -0.8519455269
H       -2.0038203264   -0.9379905143   -1.0222080078
13   
From optimize.out: Frame 18 / 46, Energy=    -286.9018802860
C        1.5560107208    0.2259732328    0.2795714817
C        1.0950779610   -1.1285428450    0.6922143031
C        0.4035279525   -1.9335401143   -0.0777560575
C       -1.3733775344    1.1499698340   -0.8799664185
C       -0.4530400148    1.4948862043    0.1659540115
N        0.8688205602    1.2892767926    0.1908467176
H        2.6285693978    0.3294347659    0.0918704090
H        1.4729338513   -1.4177468843    1.6820226004
H       -0.0096507836   -2.9287986463    0.0711126698
H       -2.1157259627    1.8427773677   -1.2932525936
H       -0.8034738628    2.1501299626    0.9689827597
C       -1.2318023796   -0.1785393310   -0.8611375106
H       -2.0378699057   -0.8952803390   -1.0304623725
13   
From optimize.out: Frame 16 / 46, Energy=    -286.8917827010
C        1.5453686479    0.2176412947    0.2703578216
C        1.0901156130   -1.1406622402    0.6916474892
C        0.4636450638   -1.9871060150   -0.0835208216
C       -1.3819212808    1.1740949022   -0.8847361234
C       -0.4594993703    1.5017110635    0.1640173821
N        0.8640344145    1.2845058305    0.1834108703
H        2.6199378803    0.3239539736    0.0974536870
H        1.4441035266   -1.4067674858    1.6963409182
H        0.0776049426   -2.9926882476    0.0688703339
H       -2.1155233525    1.8772109848   -1.2990036190
H       -0.8032131465    2.1645322465    0.9632896727
C       -1.2633668666   -0.1546428700   -0.8604066317
H       -2.0812860720   -0.8617834373   -1.0077209793
13   