13   
Frame   0 IRC: Energy =  -286.8793120000 ; +0.0000 kcal/mol
C       -0.1013920000    0.6057260000   -0.0000000000
C       -0.1720080000   -0.0505010000    0.0000000000
C       -0.0142570000    0.0812750000   -0.0000000000
C       -0.1724890000   -0.0505310000    0.0000000000
C       -0.1011300000    0.6056690000   -0.0000000000
N       -0.2164790000   -0.2019060000   -0.0000000000
H        0.1242880000   -0.0322820000   -0.0000000000
H        0.1303330000    0.0008020000    0.0000000000
H        0.1414110000   -0.0039950000   -0.0000000000
H        0.1303940000    0.0008010000    0.0000000000
H        0.1242490000   -0.0322840000   -0.0000000000
C       -0.0143880000    0.0812190000    0.0000000000
H        0.1414690000   -0.0039920000    0.0000000000
13   
Frame   1 IRC: Energy =  -286.8793090000 ; +0.0019 kcal/mol
C       -0.1012970000    0.6057930000   -0.0000000000
C       -0.1721860000   -0.0503820000    0.0000000000
C       -0.0140250000    0.0812750000   -0.0000000000
C       -0.1723680000   -0.0506480000    0.0000000000
C       -0.1012070000    0.6055900000   -0.0000000000
N       -0.2165060000   -0.2018950000   -0.0000000000
H        0.1242930000   -0.0322840000   -0.0000000000
H        0.1303000000    0.0007970000    0.0000000000
H        0.1413990000   -0.0039940000   -0.0000000000
H        0.1304120000    0.0008060000    0.0000000000
H        0.1242360000   -0.0322750000   -0.0000000000
C       -0.0145200000    0.0812090000    0.0000000000
H        0.1414680000   -0.0039920000    0.0000000000
13   
Frame   2 IRC: Energy =  -286.8791580000 ; +0.0966 kcal/mol
C       -0.1011840000    0.6041680000   -0.0000000000
C       -0.1731320000   -0.0505830000    0.0000000000
C       -0.0139090000    0.0815820000   -0.0000000000
C       -0.1736080000   -0.0506610000    0.0000000000
C       -0.1010690000    0.6045080000   -0.0000000000
N       -0.2159290000   -0.1997220000   -0.0000000000
H        0.1243120000   -0.0322220000   -0.0000000000
H        0.1304700000    0.0007930000    0.0000000000
H        0.1414340000   -0.0040110000   -0.0000000000
H        0.1305360000    0.0007920000    0.0000000000
H        0.1242870000   -0.0322430000   -0.0000000000
C       -0.0137010000    0.0816070000    0.0000000000
H        0.1414960000   -0.0040100000    0.0000000000
13   
Frame   3 IRC: Energy =  -286.8791520000 ; +0.1004 kcal/mol
C       -0.1006200000    0.6022390000   -0.0000000000
C       -0.1733300000   -0.0503380000    0.0000000000
C       -0.0138170000    0.0815620000   -0.0000000000
C       -0.1736230000   -0.0508280000    0.0000000000
C       -0.1017240000    0.6064910000   -0.0000000000
N       -0.2159180000   -0.1996930000   -0.0000000000
H        0.1242470000   -0.0321230000   -0.0000000000
H        0.1304710000    0.0007850000    0.0000000000
H        0.1414660000   -0.0040090000   -0.0000000000
H        0.1305520000    0.0007970000    0.0000000000
H        0.1243490000   -0.0323440000   -0.0000000000
C       -0.0135860000    0.0814630000    0.0000000000
H        0.1415330000   -0.0040040000    0.0000000000
13   
Frame   4 IRC: Energy =  -286.8790750000 ; +0.1487 kcal/mol
C       -0.1012670000    0.6039930000   -0.0000000000
C       -0.1737370000   -0.0506770000    0.0000000000
C       -0.0136090000    0.0817170000   -0.0000000000
C       -0.1742290000   -0.0506640000    0.0000000000
C       -0.1008430000    0.6032380000   -0.0000000000
N       -0.2156450000   -0.1985550000   -0.0000000000
H        0.1243340000   -0.0322230000   -0.0000000000
H        0.1305420000    0.0007890000    0.0000000000
H        0.1414490000   -0.0040180000   -0.0000000000
H        0.1306090000    0.0007870000    0.0000000000
H        0.1242720000   -0.0321870000   -0.0000000000
C       -0.0133830000    0.0818210000    0.0000000000
H        0.1415050000   -0.0040200000    0.0000000000
13   
Frame   5 IRC: Energy =  -286.8790650000 ; +0.1550 kcal/mol
C       -0.1006050000    0.6017300000   -0.0000000000
C       -0.1739230000   -0.0504450000    0.0000000000
C       -0.0134990000    0.0817720000   -0.0000000000
C       -0.1742250000   -0.0508750000    0.0000000000
C       -0.1015580000    0.6054060000   -0.0000000000
N       -0.2156210000   -0.1984580000   -0.0000000000
H        0.1242630000   -0.0321070000   -0.0000000000
H        0.1305460000    0.0007820000    0.0000000000
H        0.1414610000   -0.0040190000   -0.0000000000
H        0.1306260000    0.0007920000    0.0000000000
H        0.1243450000   -0.0322980000   -0.0000000000
C       -0.0133350000    0.0817380000    0.0000000000
H        0.1415250000   -0.0040170000    0.0000000000
13   
Frame   6 IRC: Energy =  -286.8789730000 ; +0.2127 kcal/mol
C       -0.1012220000    0.6032440000   -0.0000000000
C       -0.1744520000   -0.0507560000    0.0000000000
C       -0.0133180000    0.0818940000   -0.0000000000
C       -0.1749480000   -0.0507260000    0.0000000000
C       -0.1007120000    0.6022430000   -0.0000000000
N       -0.2152980000   -0.1971540000   -0.0000000000
H        0.1243530000   -0.0321980000   -0.0000000000
H        0.1306310000    0.0007830000    0.0000000000
H        0.1414630000   -0.0040270000   -0.0000000000
H        0.1306980000    0.0007810000    0.0000000000
H        0.1242840000   -0.0321470000   -0.0000000000
C       -0.0129910000    0.0820960000    0.0000000000
H        0.1415130000   -0.0040330000    0.0000000000
13   
Frame   7 IRC: Energy =  -286.8789600000 ; +0.2209 kcal/mol
C       -0.1004420000    0.6006590000   -0.0000000000
C       -0.1747170000   -0.0504820000    0.0000000000
C       -0.0132210000    0.0819860000   -0.0000000000
C       -0.1749760000   -0.0509760000    0.0000000000
C       -0.1015030000    0.6046710000   -0.0000000000
N       -0.2152760000   -0.1970080000   -0.0000000000
H        0.1242720000   -0.0320660000   -0.0000000000
H        0.1306360000    0.0007740000    0.0000000000
H        0.1414830000   -0.0040300000   -0.0000000000
H        0.1307220000    0.0007870000    0.0000000000
H        0.1243660000   -0.0322710000   -0.0000000000
C       -0.0128880000    0.0819850000    0.0000000000
H        0.1415440000   -0.0040290000    0.0000000000
13   
Frame   8 IRC: Energy =  -286.8788850000 ; +0.2679 kcal/mol
C       -0.1012350000    0.6027480000   -0.0000000000
C       -0.1750580000   -0.0508290000    0.0000000000
C       -0.0130390000    0.0820190000   -0.0000000000
C       -0.1755650000   -0.0507590000    0.0000000000
C       -0.1005690000    0.6012870000   -0.0000000000
N       -0.2150060000   -0.1959740000   -0.0000000000
H        0.1243680000   -0.0321840000   -0.0000000000
H        0.1307080000    0.0007780000    0.0000000000
H        0.1414770000   -0.0040340000   -0.0000000000
H        0.1307720000    0.0007750000    0.0000000000
H        0.1242860000   -0.0321070000   -0.0000000000
C       -0.0126590000    0.0823230000    0.0000000000
H        0.1415200000   -0.0040440000    0.0000000000
13   
Frame   9 IRC: Energy =  -286.8788680000 ; +0.2786 kcal/mol
C       -0.1003300000    0.5998410000   -0.0000000000
C       -0.1753880000   -0.0505330000    0.0000000000
C       -0.0128850000    0.0821690000   -0.0000000000
C       -0.1755990000   -0.0510550000    0.0000000000
C       -0.1014260000    0.6038940000   -0.0000000000
N       -0.2149830000   -0.1957470000   -0.0000000000
H        0.1242770000   -0.0320350000   -0.0000000000
H        0.1307130000    0.0007680000    0.0000000000
H        0.1414900000   -0.0040390000   -0.0000000000
H        0.1308020000    0.0007830000    0.0000000000
H        0.1243730000   -0.0322410000   -0.0000000000
C       -0.0125940000    0.0822370000    0.0000000000
H        0.1415490000   -0.0040420000    0.0000000000
13   
Frame  10 IRC: Energy =  -286.8788090000 ; +0.3156 kcal/mol
C       -0.1012820000    0.6023940000   -0.0000000000
C       -0.1755700000   -0.0508980000    0.0000000000
C       -0.0128500000    0.0821110000   -0.0000000000
C       -0.1760930000   -0.0507840000    0.0000000000
C       -0.1004280000    0.6004340000   -0.0000000000
N       -0.2147440000   -0.1949810000   -0.0000000000
H        0.1243910000   -0.0321760000   -0.0000000000
H        0.1307740000    0.0007740000    0.0000000000
H        0.1414910000   -0.0040390000   -0.0000000000
H        0.1308360000    0.0007710000    0.0000000000
H        0.1242960000   -0.0320710000   -0.0000000000
C       -0.0123520000    0.0825170000    0.0000000000
H        0.1415290000   -0.0040520000    0.0000000000
13   
Frame  11 IRC: Energy =  -286.8787920000 ; +0.3263 kcal/mol
C       -0.1026760000    0.6063520000   -0.0000000000
C       -0.1755570000   -0.0512830000    0.0000000000
C       -0.0125880000    0.0816240000   -0.0000000000
C       -0.1766720000   -0.0501860000    0.0000000000
C       -0.0992350000    0.5967030000   -0.0000000000
N       -0.2147570000   -0.1949530000   -0.0000000000
H        0.1245100000   -0.0323730000   -0.0000000000
H        0.1308200000    0.0007860000    0.0000000000
H        0.1415900000   -0.0040190000   -0.0000000000
H        0.1308150000    0.0007520000    0.0000000000
H        0.1241750000   -0.0318770000   -0.0000000000
C       -0.0120250000    0.0825230000    0.0000000000
H        0.1416000000   -0.0040490000    0.0000000000
13   
Frame  12 IRC: Energy =  -286.8784600000 ; +0.5346 kcal/mol
C       -0.1007540000    0.5983170000   -0.0000000000
C       -0.1779630000   -0.0509420000    0.0000000000
C       -0.0120070000    0.0825440000   -0.0000000000
C       -0.1782520000   -0.0511970000    0.0000000000
C       -0.1004170000    0.5989370000   -0.0000000000
N       -0.2136480000   -0.1904860000   -0.0000000000
H        0.1243860000   -0.0320190000   -0.0000000000
H        0.1310660000    0.0007450000    0.0000000000
H        0.1415510000   -0.0040600000   -0.0000000000
H        0.1311240000    0.0007600000    0.0000000000
H        0.1243980000   -0.0320240000   -0.0000000000
C       -0.0110180000    0.0835260000    0.0000000000
H        0.1415340000   -0.0041010000    0.0000000000
13   
Frame  13 IRC: Energy =  -286.8784290000 ; +0.5541 kcal/mol
C       -0.1020160000    0.6019950000   -0.0000000000
C       -0.1778800000   -0.0514250000    0.0000000000
C       -0.0119410000    0.0822170000   -0.0000000000
C       -0.1787320000   -0.0507190000    0.0000000000
C       -0.0990800000    0.5949200000   -0.0000000000
N       -0.2135750000   -0.1901490000   -0.0000000000
H        0.1245120000   -0.0322070000   -0.0000000000
H        0.1311140000    0.0007580000    0.0000000000
H        0.1415720000   -0.0040490000   -0.0000000000
H        0.1311040000    0.0007440000    0.0000000000
H        0.1242900000   -0.0318210000   -0.0000000000
C       -0.0108840000    0.0838490000    0.0000000000
H        0.1415170000   -0.0041120000    0.0000000000
13   
Frame  14 IRC: Energy =  -286.8779810000 ; +0.8352 kcal/mol
C       -0.1012410000    0.5958280000   -0.0000000000
C       -0.1807940000   -0.0512740000    0.0000000000
C       -0.0111830000    0.0826060000   -0.0000000000
C       -0.1810930000   -0.0514500000    0.0000000000
C       -0.0993340000    0.5944900000   -0.0000000000
N       -0.2122320000   -0.1848250000   -0.0000000000
H        0.1244500000   -0.0319730000   -0.0000000000
H        0.1314720000    0.0007100000    0.0000000000
H        0.1416460000   -0.0040660000   -0.0000000000
H        0.1314600000    0.0007420000    0.0000000000
H        0.1244780000   -0.0318270000   -0.0000000000
C       -0.0091290000    0.0852200000    0.0000000000
H        0.1415010000   -0.0041790000    0.0000000000
13   
Frame  15 IRC: Energy =  -286.8779320000 ; +0.8660 kcal/mol
C       -0.1026660000    0.5989660000   -0.0000000000
C       -0.1806340000   -0.0517830000    0.0000000000
C       -0.0112740000    0.0821720000   -0.0000000000
C       -0.1818220000   -0.0509700000    0.0000000000
C       -0.0976600000    0.5907230000   -0.0000000000
N       -0.2120810000   -0.1842400000   -0.0000000000
H        0.1245710000   -0.0321590000   -0.0000000000
H        0.1315880000    0.0007220000    0.0000000000
H        0.1416650000   -0.0040540000   -0.0000000000
H        0.1313890000    0.0007240000    0.0000000000
H        0.1243570000   -0.0316190000   -0.0000000000
C       -0.0089000000    0.0857150000    0.0000000000
H        0.1414680000   -0.0041970000    0.0000000000
13   
Frame  16 IRC: Energy =  -286.8773750000 ; +1.2155 kcal/mol
C       -0.1024630000    0.5940980000   -0.0000000000
C       -0.1840100000   -0.0517020000   -0.0000000000
C       -0.0103410000    0.0822420000   -0.0000000000
C       -0.1843810000   -0.0516730000    0.0000000000
C       -0.0974780000    0.5885860000   -0.0000000000
N       -0.2106130000   -0.1784990000   -0.0000000000
H        0.1245380000   -0.0319920000   -0.0000000000
H        0.1319660000    0.0006620000    0.0000000000
H        0.1417860000   -0.0040520000   -0.0000000000
H        0.1318160000    0.0007240000    0.0000000000
H        0.1245760000   -0.0315470000   -0.0000000000
C       -0.0068330000    0.0874330000    0.0000000000
H        0.1414380000   -0.0042800000    0.0000000000
13   
Frame  17 IRC: Energy =  -286.8773050000 ; +1.2594 kcal/mol
C       -0.1037340000    0.5952250000   -0.0000000000
C       -0.1838580000   -0.0520510000   -0.0000000000
C       -0.0106110000    0.0818450000   -0.0000000000
C       -0.1852340000   -0.0513810000    0.0000000000
C       -0.0959900000    0.5865880000   -0.0000000000
N       -0.2103520000   -0.1777200000   -0.0000000000
H        0.1246100000   -0.0321150000   -0.0000000000
H        0.1321450000    0.0006670000    0.0000000000
H        0.1418040000   -0.0040420000   -0.0000000000
H        0.1317280000    0.0007110000    0.0000000000
H        0.1244910000   -0.0314080000   -0.0000000000
C       -0.0064150000    0.0879820000    0.0000000000
H        0.1414170000   -0.0043010000    0.0000000000
13   
Frame  18 IRC: Energy =  -286.8766280000 ; +1.6842 kcal/mol
C       -0.1045100000    0.5933450000   -0.0000000000
C       -0.1875050000   -0.0522060000   -0.0000000000
C       -0.0094170000    0.0814540000   -0.0000000000
C       -0.1880340000   -0.0518600000    0.0000000000
C       -0.0947660000    0.5813980000   -0.0000000000
N       -0.2088400000   -0.1718010000   -0.0000000000
H        0.1246510000   -0.0320870000   -0.0000000000
H        0.1325410000    0.0006020000    0.0000000000
H        0.1419700000   -0.0040170000   -0.0000000000
H        0.1321730000    0.0007080000    0.0000000000
H        0.1246880000   -0.0311890000   -0.0000000000
C       -0.0043060000    0.0900530000    0.0000000000
H        0.1413530000   -0.0043990000    0.0000000000
13   
Frame  19 IRC: Energy =  -286.8765240000 ; +1.7495 kcal/mol
C       -0.1056030000    0.5924970000   -0.0000000000
C       -0.1874020000   -0.0523770000   -0.0000000000
C       -0.0098570000    0.0810990000   -0.0000000000
C       -0.1889600000   -0.0517660000    0.0000000000
C       -0.0935550000    0.5812000000   -0.0000000000
N       -0.2084390000   -0.1708380000   -0.0000000000
H        0.1246660000   -0.0321480000   -0.0000000000
H        0.1327630000    0.0005980000    0.0000000000
H        0.1419840000   -0.0040090000   -0.0000000000
H        0.1320890000    0.0007010000    0.0000000000
H        0.1246500000   -0.0311240000   -0.0000000000
C       -0.0036780000    0.0905870000    0.0000000000
H        0.1413420000   -0.0044210000    0.0000000000
13   
Frame  20 IRC: Energy =  -286.8757270000 ; +2.2496 kcal/mol
C       -0.1072610000    0.5937800000   -0.0000000000
C       -0.1911910000   -0.0527590000   -0.0000000000
C       -0.0083140000    0.0803310000   -0.0000000000
C       -0.1918950000   -0.0520070000    0.0000000000
C       -0.0913020000    0.5730730000   -0.0000000000
N       -0.2069830000   -0.1650160000   -0.0000000000
H        0.1247970000   -0.0322520000   -0.0000000000
H        0.1331700000    0.0005310000    0.0000000000
H        0.1422030000   -0.0039630000   -0.0000000000
H        0.1325300000    0.0006930000    0.0000000000
H        0.1248090000   -0.0307640000   -0.0000000000
C       -0.0018210000    0.0928820000    0.0000000000
H        0.1412580000   -0.0045290000    0.0000000000
13   
Frame  21 IRC: Energy =  -286.8755660000 ; +2.3507 kcal/mol
C       -0.1081160000    0.5907680000   -0.0000000000
C       -0.1912140000   -0.0527460000   -0.0000000000
C       -0.0088830000    0.0800150000   -0.0000000000
C       -0.1929650000   -0.0521150000    0.0000000000
C       -0.0903740000    0.5748420000   -0.0000000000
N       -0.2064380000   -0.1638250000   -0.0000000000
H        0.1247500000   -0.0322430000   -0.0000000000
H        0.1334280000    0.0005160000   -0.0000000000
H        0.1422100000   -0.0039540000   -0.0000000000
H        0.1324580000    0.0006930000    0.0000000000
H        0.1248340000   -0.0307810000   -0.0000000000
C       -0.0009450000    0.0933800000    0.0000000000
H        0.1412560000   -0.0045520000    0.0000000000
13   
Frame  22 IRC: Energy =  -286.8746410000 ; +2.9311 kcal/mol
C       -0.1106380000    0.5954290000   -0.0000000000
C       -0.1950280000   -0.0533440000   -0.0000000000
C       -0.0069990000    0.0789480000   -0.0000000000
C       -0.1958940000   -0.0521100000    0.0000000000
C       -0.0871540000    0.5636480000   -0.0000000000
N       -0.2050560000   -0.1581910000   -0.0000000000
H        0.1249890000   -0.0324750000   -0.0000000000
H        0.1338460000    0.0004500000   -0.0000000000
H        0.1424960000   -0.0038940000   -0.0000000000
H        0.1328980000    0.0006780000    0.0000000000
H        0.1249300000   -0.0302760000   -0.0000000000
C        0.0004420000    0.0958020000    0.0000000000
H        0.1411670000   -0.0046650000    0.0000000000
13   
Frame  23 IRC: Energy =  -286.8743890000 ; +3.0892 kcal/mol
C       -0.1111720000    0.5901080000   -0.0000000000
C       -0.1953040000   -0.0531330000   -0.0000000000
C       -0.0076140000    0.0786620000   -0.0000000000
C       -0.1972120000   -0.0524180000    0.0000000000
C       -0.0864320000    0.5674380000   -0.0000000000
N       -0.2043840000   -0.1566870000   -0.0000000000
H        0.1248830000   -0.0323890000   -0.0000000000
H        0.1341310000    0.0004210000   -0.0000000000
H        0.1425010000   -0.0038810000   -0.0000000000
H        0.1328430000    0.0006830000    0.0000000000
H        0.1250300000   -0.0303730000   -0.0000000000
C        0.0015570000    0.0962600000    0.0000000000
H        0.1411710000   -0.0046890000    0.0000000000
13   
Frame  24 IRC: Energy =  -286.8733120000 ; +3.7651 kcal/mol
C       -0.1145490000    0.5979770000   -0.0000000000
C       -0.1990240000   -0.0539080000   -0.0000000000
C       -0.0055060000    0.0773720000   -0.0000000000
C       -0.2000420000   -0.0521980000    0.0000000000
C       -0.0823750000    0.5533590000   -0.0000000000
N       -0.2030420000   -0.1512440000   -0.0000000000
H        0.1252480000   -0.0327310000   -0.0000000000
H        0.1345730000    0.0003550000   -0.0000000000
H        0.1428710000   -0.0038110000   -0.0000000000
H        0.1332950000    0.0006580000    0.0000000000
H        0.1250620000   -0.0297360000   -0.0000000000
C        0.0024010000    0.0987120000    0.0000000000
H        0.1410880000   -0.0048050000    0.0000000000
13   
Frame  25 IRC: Energy =  -286.8729280000 ; +4.0060 kcal/mol
C       -0.1147420000    0.5904150000   -0.0000000000
C       -0.1996350000   -0.0534780000   -0.0000000000
C       -0.0060850000    0.0771010000   -0.0000000000
C       -0.2016640000   -0.0526890000    0.0000000000
C       -0.0817690000    0.5590560000   -0.0000000000
N       -0.2022600000   -0.1493810000   -0.0000000000
H        0.1250990000   -0.0325710000   -0.0000000000
H        0.1348760000    0.0003100000   -0.0000000000
H        0.1428870000   -0.0037910000   -0.0000000000
H        0.1332680000    0.0006680000    0.0000000000
H        0.1252380000   -0.0299060000   -0.0000000000
C        0.0036880000    0.0990950000    0.0000000000
H        0.1410980000   -0.0048290000    0.0000000000
13   
Frame  26 IRC: Energy =  -286.8716640000 ; +4.7992 kcal/mol
C       -0.1188440000    0.6009040000   -0.0000000000
C       -0.2031760000   -0.0543500000   -0.0000000000
C       -0.0039460000    0.0756920000   -0.0000000000
C       -0.2043950000   -0.0523100000    0.0000000000
C       -0.0770030000    0.5425890000   -0.0000000000
N       -0.2009300000   -0.1440600000   -0.0000000000
H        0.1255940000   -0.0329820000    0.0000000000
H        0.1353530000    0.0002410000   -0.0000000000
H        0.1433600000   -0.0037180000   -0.0000000000
H        0.1337500000    0.0006340000    0.0000000000
H        0.1252180000   -0.0291620000   -0.0000000000
C        0.0039880000    0.1014670000    0.0000000000
H        0.1410310000   -0.0049450000    0.0000000000
13   
Frame  27 IRC: Energy =  -286.8711090000 ; +5.1475 kcal/mol
C       -0.1187340000    0.5912080000   -0.0000000000
C       -0.2041000000   -0.0536610000   -0.0000000000
C       -0.0044240000    0.0754550000   -0.0000000000
C       -0.2063250000   -0.0529630000    0.0000000000
C       -0.0765240000    0.5501870000   -0.0000000000
N       -0.2001110000   -0.1419420000   -0.0000000000
H        0.1254390000   -0.0327490000    0.0000000000
H        0.1356670000    0.0001790000   -0.0000000000
H        0.1434100000   -0.0036870000   -0.0000000000
H        0.1337590000    0.0006460000    0.0000000000
H        0.1254740000   -0.0293990000   -0.0000000000
C        0.0054150000    0.1016920000    0.0000000000
H        0.1410530000   -0.0049670000    0.0000000000
13   
Frame  28 IRC: Energy =  -286.8695710000 ; +6.1126 kcal/mol
C       -0.1232660000    0.6031340000   -0.0000000000
C       -0.2075230000   -0.0544300000   -0.0000000000
C       -0.0025860000    0.0739990000   -0.0000000000
C       -0.2092100000   -0.0524880000    0.0000000000
C       -0.0710170000    0.5321380000   -0.0000000000
N       -0.1987210000   -0.1364230000   -0.0000000000
H        0.1260530000   -0.0331690000    0.0000000000
H        0.1362060000    0.0000960000   -0.0000000000
H        0.1440280000   -0.0036130000   -0.0000000000
H        0.1343010000    0.0006000000    0.0000000000
H        0.1254320000   -0.0285840000   -0.0000000000
C        0.0052810000    0.1038200000    0.0000000000
H        0.1410220000   -0.0050800000    0.0000000000
13   
Frame  29 IRC: Energy =  -286.8688940000 ; +6.5374 kcal/mol
C       -0.1227170000    0.5912940000   -0.0000000000
C       -0.2082070000   -0.0535310000   -0.0000000000
C       -0.0031530000    0.0740450000   -0.0000000000
C       -0.2110370000   -0.0533560000    0.0000000000
C       -0.0708970000    0.5420940000   -0.0000000000
N       -0.1980950000   -0.1346440000   -0.0000000000
H        0.1259360000   -0.0328500000    0.0000000000
H        0.1364930000    0.0000230000   -0.0000000000
H        0.1440440000   -0.0035770000   -0.0000000000
H        0.1343180000    0.0006170000    0.0000000000
H        0.1257880000   -0.0289120000   -0.0000000000
C        0.0065450000    0.1038920000    0.0000000000
H        0.1409810000   -0.0050950000    0.0000000000
13   
Frame  30 IRC: Energy =  -286.8671360000 ; +7.6406 kcal/mol
C       -0.1272890000    0.6045940000   -0.0000000000
C       -0.2117340000   -0.0538770000   -0.0000000000
C       -0.0019100000    0.0724960000   -0.0000000000
C       -0.2143610000   -0.0526120000    0.0000000000
C       -0.0650430000    0.5226560000   -0.0000000000
N       -0.1967440000   -0.1289940000   -0.0000000000
H        0.1266290000   -0.0332500000    0.0000000000
H        0.1370930000   -0.0000770000   -0.0000000000
H        0.1449450000   -0.0035070000   -0.0000000000
H        0.1349490000    0.0005560000    0.0000000000
H        0.1256860000   -0.0280460000   -0.0000000000
C        0.0066110000    0.1052490000    0.0000000000
H        0.1411680000   -0.0051870000    0.0000000000
13   
Frame  31 IRC: Energy =  -286.8662600000 ; +8.1903 kcal/mol
C       -0.1265630000    0.5927120000   -0.0000000000
C       -0.2116180000   -0.0530620000   -0.0000000000
C       -0.0028800000    0.0730670000   -0.0000000000
C       -0.2156800000   -0.0537130000    0.0000000000
C       -0.0644550000    0.5321020000   -0.0000000000
N       -0.1963070000   -0.1272890000   -0.0000000000
H        0.1266650000   -0.0329020000    0.0000000000
H        0.1373670000   -0.0001570000   -0.0000000000
H        0.1448450000   -0.0034700000   -0.0000000000
H        0.1349860000    0.0005730000    0.0000000000
H        0.1261220000   -0.0283490000   -0.0000000000
C        0.0066790000    0.1057040000    0.0000000000
H        0.1408390000   -0.0052160000    0.0000000000
13   
Frame  32 IRC: Energy =  -286.8642680000 ; +9.4403 kcal/mol
C       -0.1303700000    0.6026970000   -0.0000000000
C       -0.2153850000   -0.0522720000   -0.0000000000
C       -0.0028200000    0.0715580000   -0.0000000000
C       -0.2200800000   -0.0528470000    0.0000000000
C       -0.0593290000    0.5160690000   -0.0000000000
N       -0.1951910000   -0.1217370000   -0.0000000000
H        0.1273530000   -0.0331300000    0.0000000000
H        0.1381040000   -0.0002940000   -0.0000000000
H        0.1461120000   -0.0034070000   -0.0000000000
H        0.1356970000    0.0005060000    0.0000000000
H        0.1260800000   -0.0276180000   -0.0000000000
C        0.0083890000    0.1057410000    0.0000000000
H        0.1414410000   -0.0052670000    0.0000000000
13   
Frame  33 IRC: Energy =  -286.8630300000 ; +10.2171 kcal/mol
C       -0.1296730000    0.5920970000   -0.0000000000
C       -0.2144640000   -0.0513460000   -0.0000000000
C       -0.0043760000    0.0725440000   -0.0000000000
C       -0.2212000000   -0.0539830000    0.0000000000
C       -0.0578890000    0.5230730000   -0.0000000000
N       -0.1949060000   -0.1196870000   -0.0000000000
H        0.1276210000   -0.0327760000    0.0000000000
H        0.1384750000   -0.0003910000   -0.0000000000
H        0.1460630000   -0.0033610000   -0.0000000000
H        0.1358240000    0.0005180000    0.0000000000
H        0.1265680000   -0.0278280000   -0.0000000000
C        0.0070760000    0.1064480000    0.0000000000
H        0.1408810000   -0.0053080000    0.0000000000
13   
Frame  34 IRC: Energy =  -286.8606690000 ; +11.6987 kcal/mol
C       -0.1324150000    0.5949640000   -0.0000000000
C       -0.2171890000   -0.0488010000   -0.0000000000
C       -0.0072920000    0.0717200000   -0.0000000000
C       -0.2269370000   -0.0533170000    0.0000000000
C       -0.0537030000    0.5128000000   -0.0000000000
N       -0.1942840000   -0.1140040000   -0.0000000000
H        0.1283240000   -0.0327110000    0.0000000000
H        0.1394780000   -0.0005780000   -0.0000000000
H        0.1476230000   -0.0033140000   -0.0000000000
H        0.1366230000    0.0004550000    0.0000000000
H        0.1267390000   -0.0273000000   -0.0000000000
C        0.0112560000    0.1054170000    0.0000000000
H        0.1417760000   -0.0053330000    0.0000000000
13   
Frame  35 IRC: Energy =  -286.8575780000 ; +13.6383 kcal/mol
C       -0.1329890000    0.5761950000   -0.0000000000
C       -0.2133930000   -0.0445110000   -0.0000000000
C       -0.0121010000    0.0742670000   -0.0000000000
C       -0.2324010000   -0.0542550000    0.0000000000
C       -0.0513020000    0.5190320000   -0.0000000000
N       -0.1951110000   -0.1076820000   -0.0000000000
H        0.1291970000   -0.0319260000    0.0000000000
H        0.1409760000   -0.0008260000   -0.0000000000
H        0.1488330000   -0.0032600000   -0.0000000000
H        0.1372290000    0.0004570000    0.0000000000
H        0.1272980000   -0.0274490000   -0.0000000000
C        0.0121000000    0.1053570000    0.0000000000
H        0.1416630000   -0.0053990000    0.0000000000
13   
Frame  36 IRC: Energy =  -286.8537060000 ; +16.0680 kcal/mol
C       -0.1358890000    0.5568070000   -0.0000000000
C       -0.2077140000   -0.0379160000   -0.0000000000
C       -0.0194310000    0.0776110000   -0.0000000000
C       -0.2393770000   -0.0542710000    0.0000000000
C       -0.0500320000    0.5213530000   -0.0000000000
N       -0.1962820000   -0.0992970000   -0.0000000000
H        0.1302400000   -0.0309580000    0.0000000000
H        0.1428980000   -0.0011370000   -0.0000000000
H        0.1509200000   -0.0032210000   -0.0000000000
H        0.1380790000    0.0004330000    0.0000000000
H        0.1276420000   -0.0274450000   -0.0000000000
C        0.0164700000    0.1034650000    0.0000000000
H        0.1424790000   -0.0054230000    0.0000000000
13   
Frame  37 IRC: Energy =  -286.8489010000 ; +19.0832 kcal/mol
C       -0.1409610000    0.5234850000   -0.0000000000
C       -0.1960180000   -0.0281520000   -0.0000000000
C       -0.0238050000    0.0880700000   -0.0000000000
C       -0.2491670000   -0.0532250000    0.0000000000
C       -0.0525580000    0.5261260000   -0.0000000000
N       -0.1995110000   -0.0876840000   -0.0000000000
H        0.1315130000   -0.0290660000    0.0000000000
H        0.1453000000   -0.0015350000   -0.0000000000
H        0.1541480000   -0.0031660000   -0.0000000000
H        0.1387890000    0.0004240000    0.0000000000
H        0.1273140000   -0.0276910000   -0.0000000000
C        0.0207240000    0.0976420000    0.0000000000
H        0.1442310000   -0.0052280000    0.0000000000
13   
Frame  38 IRC: Energy =  -286.8424850000 ; +23.1093 kcal/mol
C       -0.1489850000    0.4821550000   -0.0000000000
C       -0.1795000000   -0.0148450000   -0.0000000000
C       -0.0277230000    0.1094920000   -0.0000000000
C       -0.2596640000   -0.0508430000    0.0000000000
C       -0.0569290000    0.5252810000   -0.0000000000
N       -0.2033950000   -0.0726140000   -0.0000000000
H        0.1329390000   -0.0261980000    0.0000000000
H        0.1477550000   -0.0020990000   -0.0000000000
H        0.1577970000   -0.0029280000   -0.0000000000
H        0.1396320000    0.0003300000    0.0000000000
H        0.1265660000   -0.0277830000   -0.0000000000
C        0.0247770000    0.0844970000    0.0000000000
H        0.1467300000   -0.0044430000    0.0000000000
13   