13   
Frame   0 IRC: Energy =  -286.8793120000 ; +0.0000 kcal/mol
C        1.5416823520    0.4345515156   -0.3547560222
C        0.8414183369   -0.8018218203    0.0679501629
C       -0.5894582632   -1.0218467898   -0.3929946855
C       -1.1159098153    0.3149951241    0.1092592345
C       -0.4288241129    1.5408520214   -0.3633114267
N        0.8870633713    1.5749436167   -0.5726297064
H        2.6221306185    0.4385102453   -0.4781805896
H        1.4504309340   -1.6944704329    0.1969641511
H       -1.0776959209   -1.8591588892   -0.8703581753
H       -2.1885397965    0.3845228938    0.2791743495
H       -0.9984778444    2.4436848592   -0.5709460682
C       -0.3513303913   -0.6485901863    1.0006492974
H       -0.5924894688   -1.1061721571    1.9491794791
13   
Frame   1 IRC: Energy =  -286.8793090000 ; +0.0019 kcal/mol
C        1.5416283968    0.4346569580   -0.3544796881
C        0.8410264639   -0.8021807365    0.0677993723
C       -0.5893182604   -1.0219584416   -0.3929641941
C       -1.1158075745    0.3154140639    0.1092211293
C       -0.4289596192    1.5409375134   -0.3632647385
N        0.8869178492    1.5749401951   -0.5727762880
H        2.6222837798    0.4387149472   -0.4775868089
H        1.4502907126   -1.6944064176    0.1965615068
H       -1.0778891841   -1.8590016007   -0.8703421421
H       -2.1885490661    0.3846121727    0.2795824917
H       -0.9983607138    2.4432324911   -0.5715191614
C       -0.3509912977   -0.6486969525    1.0006463980
H       -0.5922714866   -1.1062641923    1.9491221231
13   
Frame   2 IRC: Energy =  -286.8791580000 ; +0.0966 kcal/mol
C        1.5426686122    0.4363137315   -0.3487799196
C        0.8395414325   -0.8046634385    0.0558265687
C       -0.5949003606   -1.0180167764   -0.3932177045
C       -1.1137137786    0.3184103563    0.1210729171
C       -0.4297827419    1.5390618622   -0.3698110693
N        0.8870240845    1.5747537394   -0.5723906598
H        2.6264707199    0.4485941205   -0.4377528954
H        1.4463444288   -1.7005145156    0.1729284404
H       -1.0905336072   -1.8513737915   -0.8698994316
H       -2.1841758370    0.3911153895    0.3027927066
H       -1.0044803145    2.4307597633   -0.6098845337
C       -0.3452496067   -0.6512048244    1.0004472598
H       -0.5792130315   -1.1132356164    1.9486683210
13   
Frame   3 IRC: Energy =  -286.8791520000 ; +0.1004 kcal/mol
C        1.5428694524    0.4367251513   -0.3487814472
C        0.8393424368   -0.8046314860    0.0555940815
C       -0.5949732305   -1.0177818208   -0.3930791408
C       -1.1138140534    0.3184132464    0.1213561712
C       -0.4300703782    1.5387237418   -0.3698033315
N        0.8875654186    1.5744678082   -0.5723896013
H        2.6263078348    0.4487887748   -0.4369235649
H        1.4463669464   -1.7007828118    0.1724696997
H       -1.0908232192   -1.8512820885   -0.8699244635
H       -2.1839189776    0.3912491128    0.3032268367
H       -1.0047282289    2.4307104891   -0.6107066867
C       -0.3451532215   -0.6511799248    1.0002129643
H       -0.5789707797   -1.1134201925    1.9487484826
13   
Frame   4 IRC: Energy =  -286.8790750000 ; +0.1487 kcal/mol
C        1.5429276436    0.4368951840   -0.3463247372
C        0.8387717545   -0.8057712981    0.0511367187
C       -0.5969241532   -1.0164798176   -0.3933483588
C       -1.1127520964    0.3197472086    0.1255078336
C       -0.4300463111    1.5384390691   -0.3722896016
N        0.8867807337    1.5746800347   -0.5724026494
H        2.6278088170    0.4524717716   -0.4220210498
H        1.4446714489   -1.7026874412    0.1635849643
H       -1.0954805328   -1.8483422124   -0.8696372900
H       -2.1824291004    0.3936599229    0.3118844990
H       -1.0065353089    2.4253451420   -0.6247364946
C       -0.3427929873   -0.6521111801    1.0002924226
H       -0.5739999075   -1.1158463836    1.9483537432
13   
Frame   5 IRC: Energy =  -286.8790650000 ; +0.1550 kcal/mol
C        1.5431637516    0.4373778128   -0.3461883860
C        0.8385982817   -0.8057232292    0.0506535196
C       -0.5971600267   -1.0162473318   -0.3932939578
C       -1.1128473691    0.3198162206    0.1259573176
C       -0.4303689679    1.5380126019   -0.3723233686
N        0.8873956451    1.5743303889   -0.5724343169
H        2.6276084311    0.4528337539   -0.4205090934
H        1.4446264218   -1.7030696078    0.1627253680
H       -1.0959561368   -1.8480745702   -0.8696219902
H       -2.1820427943    0.3938980646    0.3127003565
H       -1.0068798909    2.4250778468   -0.6262045071
C       -0.3426213450   -0.6521167589    1.0001719800
H       -0.5735160007   -1.1161151917    1.9483670784
13   
Frame   6 IRC: Energy =  -286.8789730000 ; +0.2127 kcal/mol
C        1.5432654834    0.4375824689   -0.3438500047
C        0.8379796430   -0.8068727101    0.0461155161
C       -0.5991108501   -1.0148364176   -0.3935153088
C       -1.1117667596    0.3211549253    0.1301737926
C       -0.4303938559    1.5377093490   -0.3749623405
N        0.8866645157    1.5745495509   -0.5723608215
H        2.6290348411    0.4565049716   -0.4051853994
H        1.4429113312   -1.7050113328    0.1536411619
H       -1.1007241673   -1.8451430679   -0.8692895623
H       -2.1804980683    0.3963593888    0.3214681347
H       -1.0087582977    2.4195751064   -0.6403752459
C       -0.3401854639   -0.6530263568    1.0001285905
H       -0.5684183515   -1.1185458754    1.9480114872
13   
Frame   7 IRC: Energy =  -286.8789600000 ; +0.2209 kcal/mol
C        1.5435389826    0.4381512619   -0.3437274000
C        0.8377730601   -0.8068195117    0.0455729770
C       -0.5993592576   -1.0145584216   -0.3934431325
C       -1.1118578266    0.3213044200    0.1306897137
C       -0.4307649550    1.5372362088   -0.3750404122
N        0.8873397190    1.5741364249   -0.5723602853
H        2.6288146278    0.4569102249   -0.4034080633
H        1.4428545701   -1.7054526943    0.1526323836
H       -1.1012945086   -1.8448605245   -0.8692774781
H       -2.1800718771    0.3966318148    0.3224159343
H       -1.0091556193    2.4192340378   -0.6420670131
C       -0.3399584839   -0.6530436314    0.9999499301
H       -0.5678584315   -1.1188696096    1.9480628457
13   
Frame   8 IRC: Energy =  -286.8788850000 ; +0.2679 kcal/mol
C        1.5434756936    0.4380746012   -0.3419445020
C        0.8373583960   -0.8077046597    0.0423076973
C       -0.6007374503   -1.0135595861   -0.3936567748
C       -1.1109885786    0.3221981267    0.1336403069
C       -0.4306279897    1.5371614510   -0.3769785728
N        0.8865284620    1.5744464881   -0.5723602510
H        2.6297981240    0.4595417651   -0.3923752937
H        1.4415460047   -1.7067204325    0.1460838516
H       -1.1046873325   -1.8427304401   -0.8689672216
H       -2.1789972887    0.3983926617    0.3286796629
H       -1.0103482209    2.4150776762   -0.6520947798
C       -0.3381731261   -0.6536657380    0.9999530553
H       -0.5641466935   -1.1205119135    1.9477128217
13   
Frame   9 IRC: Energy =  -286.8788680000 ; +0.2786 kcal/mol
C        1.5437666543    0.4387290404   -0.3417260874
C        0.8371241986   -0.8076443785    0.0415931678
C       -0.6010392456   -1.0132715044   -0.3935895329
C       -1.1110618261    0.3224496716    0.1342164153
C       -0.4310232758    1.5366318525   -0.3770719007
N        0.8872495782    1.5739394246   -0.5723803853
H        2.6295099791    0.4600525744   -0.3901361433
H        1.4414340328   -1.7072241670    0.1448073012
H       -1.1053892018   -1.8423457575   -0.8689232009
H       -2.1784983169    0.3987291354    0.3298778311
H       -1.0107901775    2.4145566848   -0.6541872302
C       -0.3378519553   -0.6537094062    0.9997737875
H       -0.5634304439   -1.1208931703    1.9477459779
13   
Frame  10 IRC: Energy =  -286.8788090000 ; +0.3156 kcal/mol
C        1.5436791746    0.4384445414   -0.3405273410
C        0.8368615879   -0.8083742901    0.0392643460
C       -0.6020461037   -1.0125488708   -0.3937557702
C       -1.1103646122    0.3230221366    0.1363995862
C       -0.4308331416    1.5367507268   -0.3786497637
N        0.8864126792    1.5744072792   -0.5723036437
H        2.6304050197    0.4619674204   -0.3821023301
H        1.4404554404   -1.7080927406    0.1400477123
H       -1.1078606682   -1.8408418092   -0.8687002191
H       -2.1778156675    0.4000073358    0.3344096521
H       -1.0115996884    2.4114915216   -0.6613937970
C       -0.3365598358   -0.6541694678    0.9998106201
H       -0.5607341845   -1.1220637832    1.9475009477
13   
Frame  11 IRC: Energy =  -286.8787920000 ; +0.3263 kcal/mol
C        1.5435600989    0.4376386749   -0.3402042403
C        0.8369741823   -0.8085819052    0.0389847732
C       -0.6019844518   -1.0119895994   -0.3933598423
C       -1.1099714903    0.3225297511    0.1368058526
C       -0.4303825925    1.5374014650   -0.3791753508
N        0.8854351935    1.5750147991   -0.5722798432
H        2.6308112185    0.4622274641   -0.3810959159
H        1.4402306326   -1.7080195264    0.1394111012
H       -1.1083051006   -1.8408612417   -0.8687936612
H       -2.1779877285    0.4002206705    0.3350302192
H       -1.0115063382    2.4107933531   -0.6622266800
C       -0.3364502530   -0.6540831129    0.9992839305
H       -0.5604233708   -1.1222907922    1.9476196570
13   
Frame  12 IRC: Energy =  -286.8784600000 ; +0.5346 kcal/mol
C        1.5443564437    0.4403028432   -0.3352087099
C        0.8347107360   -0.8108787880    0.0266548031
C       -0.6073063410   -1.0089978432   -0.3944332419
C       -1.1081194045    0.3262128505    0.1459648017
C       -0.4318725333    1.5346476193   -0.3852150395
N        0.8865233134    1.5736914937   -0.5722000770
H        2.6313725920    0.4711992215   -0.3403136871
H        1.4361400049   -1.7135352160    0.1157067298
H       -1.1204640053   -1.8344744468   -0.8663709278
H       -2.1728646546    0.4060757500    0.3555910414
H       -1.0162082354    2.3979344994   -0.6956109819
C       -0.3299630961   -0.6556418926    0.9987080118
H       -0.5463048197   -1.1265360909    1.9467272774
13   
Frame  13 IRC: Energy =  -286.8784290000 ; +0.5541 kcal/mol
C        1.5442239714    0.4396123689   -0.3346683827
C        0.8348787590   -0.8111658572    0.0257403765
C       -0.6076852149   -1.0086359604   -0.3944322711
C       -1.1077075093    0.3260717926    0.1467216148
C       -0.4314064505    1.5351816356   -0.3860624707
N        0.8855019589    1.5742237742   -0.5721617721
H        2.6318222211    0.4718671582   -0.3373582761
H        1.4356931472   -1.7136959369    0.1139560115
H       -1.1213886026   -1.8340822802   -0.8662317021
H       -2.1727719872    0.4065342886    0.3571334295
H       -1.0163224032    2.3966469074   -0.6979101268
C       -0.3295766923   -0.6557453997    0.9986647861
H       -0.5452611975   -1.1268124910    1.9466087832
13   
Frame  14 IRC: Energy =  -286.8779810000 ; +0.8352 kcal/mol
C        1.5446548643    0.4416466836   -0.3302552083
C        0.8323620975   -0.8138275062    0.0120521067
C       -0.6131770607   -1.0058090002   -0.3954630925
C       -1.1055693237    0.3291819080    0.1545074924
C       -0.4327507611    1.5325887588   -0.3931583928
N        0.8860876095    1.5732454736   -0.5721205805
H        2.6307333435    0.4808119348   -0.2924883312
H        1.4312324476   -1.7192260221    0.0884239764
H       -1.1342768210   -1.8294379595   -0.8619383467
H       -2.1675036354    0.4122518449    0.3766485212
H       -1.0203451692    2.3841488363   -0.7289686723
C       -0.3223853207   -0.6565306771    0.9967893148
H       -0.5290622706   -1.1290442749    1.9459712129
13   
Frame  15 IRC: Energy =  -286.8779320000 ; +0.8660 kcal/mol
C        1.5439944040    0.4408762044   -0.3297404100
C        0.8325017755   -0.8138019925    0.0108280304
C       -0.6136391630   -1.0054865265   -0.3955278273
C       -1.1052325262    0.3288992307    0.1553449009
C       -0.4322531963    1.5334492253   -0.3943604361
N        0.8850662115    1.5736384813   -0.5720197845
H        2.6313285569    0.4816082632   -0.2886765624
H        1.4307885853   -1.7196276828    0.0862570371
H       -1.1354102954   -1.8291045477   -0.8615961430
H       -2.1672626161    0.4127705709    0.3783228892
H       -1.0203594654    2.3825719791   -0.7313690305
C       -0.3218521917   -0.6566286282    0.9967204681
H       -0.5276700790   -1.1291645772    1.9458168680
13   
Frame  16 IRC: Energy =  -286.8773750000 ; +1.2155 kcal/mol
C        1.5446254706    0.4426286277   -0.3261759306
C        0.8298164232   -0.8170156559   -0.0037639037
C       -0.6192542898   -1.0034516434   -0.3967825898
C       -1.1030409817    0.3316931988    0.1609027136
C       -0.4335714093    1.5305757206   -0.4019076671
N        0.8854956516    1.5729025159   -0.5721193104
H        2.6275876260    0.4898503994   -0.2414124601
H        1.4262254305   -1.7248986525    0.0599648582
H       -1.1482387752   -1.8267961541   -0.8550829777
H       -2.1619887833    0.4180118541    0.3955166550
H       -1.0236769597    2.3721428463   -0.7583124167
C       -0.3142435426   -0.6566367292    0.9938893884
H       -0.5097358602   -1.1290063278    1.9452836409
13   
Frame  17 IRC: Energy =  -286.8773050000 ; +1.2594 kcal/mol
C        1.5433176568    0.4419620672   -0.3257912898
C        0.8298723865   -0.8168189252   -0.0052962305
C       -0.6197953341   -1.0032264395   -0.3969089319
C       -1.1027004070    0.3313811630    0.1616771136
C       -0.4333695556    1.5315995632   -0.4033643426
N        0.8848439638    1.5730508625   -0.5720023210
H        2.6282602768    0.4907498862   -0.2366130839
H        1.4257690362   -1.7255043000    0.0573437923
H       -1.1495587242   -1.8266063729   -0.8544282258
H       -2.1616271926    0.4185784339    0.3972411586
H       -1.0235795283    2.3704331933   -0.7606760315
C       -0.3135023427   -0.6566763804    0.9936634453
H       -0.5079302357   -1.1289227513    1.9451549472
13   
Frame  18 IRC: Energy =  -286.8766280000 ; +1.6842 kcal/mol
C        1.5441641919    0.4432364108   -0.3229516834
C        0.8271394854   -0.8203531366   -0.0205148032
C       -0.6253891372   -1.0020344377   -0.3983597990
C       -1.1005982248    0.3337079597    0.1650222299
C       -0.4342924443    1.5287906667   -0.4112627559
N        0.8848136135    1.5727873394   -0.5720861472
H        2.6215323479    0.4978325153   -0.1881018858
H        1.4213362056   -1.7304072137    0.0308576997
H       -1.1619023781   -1.8267654494   -0.8456813904
H       -2.1564107022    0.4232631134    0.4117556736
H       -1.0261247209    2.3625548192   -0.7832551743
C       -0.3056518995   -0.6559760566    0.9900733108
H       -0.4886163375   -1.1266365307    1.9445047254
13   
Frame  19 IRC: Energy =  -286.8765240000 ; +1.7495 kcal/mol
C        1.5422993803    0.4427273481   -0.3227587821
C        0.8270835737   -0.8201996317   -0.0224508379
C       -0.6260805698   -1.0019273426   -0.3985745125
C       -1.1001368642    0.3333391282    0.1656841762
C       -0.4344181495    1.5298602193   -0.4129872982
N        0.8845662199    1.5727586654   -0.5719573387
H        2.6220641605    0.4988245510   -0.1818821603
H        1.4208125530   -1.7311626149    0.0275614303
H       -1.1634443878   -1.8267770810   -0.8445408281
H       -2.1559447455    0.4239062269    0.4135665051
H       -1.0259393680    2.3608309765   -0.7856618471
C       -0.3046718278   -0.6559001397    0.9896418028
H       -0.4861899749   -1.1262803055    1.9443596905
13   
Frame  20 IRC: Energy =  -286.8757270000 ; +2.2496 kcal/mol
C        1.5433606236    0.4435512213   -0.3203590344
C        0.8244146815   -0.8237509621   -0.0377662401
C       -0.6313938250   -1.0014781756   -0.4001342240
C       -1.0982818225    0.3352985476    0.1670107196
C       -0.4348487272    1.5273320242   -0.4208427254
N        0.8840822348    1.5730251468   -0.5718240625
H        2.6124515898    0.5043490140   -0.1340632107
H        1.4167579245   -1.7355728981    0.0017436005
H       -1.1748555098   -1.8291744136   -0.8339147743
H       -2.1508893338    0.4279262751    0.4252678052
H       -1.0277141320    2.3555835598   -0.8040425857
C       -0.2967766115   -0.6546441961    0.9854817497
H       -0.4663070923   -1.1224451432    1.9434429822
13   
Frame  21 IRC: Energy =  -286.8755660000 ; +2.3507 kcal/mol
C        1.5410418758    0.4432779509   -0.3203915809
C        0.8242977263   -0.8237327459   -0.0403548897
C       -0.6324071923   -1.0014750627   -0.4004674282
C       -1.0976054872    0.3348072408    0.1675045169
C       -0.4353700162    1.5284243299   -0.4229241455
N        0.8843036047    1.5728091737   -0.5716412003
H        2.6124546921    0.5054106647   -0.1256552241
H        1.4161201026   -1.7365095187   -0.0026287750
H       -1.1767356669   -1.8295198805   -0.8320037362
H       -2.1502525648    0.4286868108    0.4272414001
H       -1.0274486245    2.3539140628   -0.8066684783
C       -0.2954939378   -0.6543728973    0.9847627818
H       -0.4629045117   -1.1217201286    1.9432267595
13   
Frame  22 IRC: Energy =  -286.8746410000 ; +2.9311 kcal/mol
C        1.5422095479    0.4436289357   -0.3181137165
C        0.8216313046   -0.8271582173   -0.0555800769
C       -0.6372391876   -1.0016397733   -0.4021260383
C       -1.0960821513    0.3365549016    0.1671854999
C       -0.4351993250    1.5262882807   -0.4305149142
N        0.8833263986    1.5737417753   -0.5710719102
H        2.6002953146    0.5092671001   -0.0793890506
H        1.4125157978   -1.7403700858   -0.0275041679
H       -1.1870920474   -1.8337648602   -0.8197250653
H       -2.1454286371    0.4320068409    0.4364630700
H       -1.0284908422    2.3509372209   -0.8216195771
C       -0.2875517146   -0.6526857686    0.9801292567
H       -0.4428944584   -1.1168063501    1.9418666903
13   
Frame  23 IRC: Energy =  -286.8743890000 ; +3.0892 kcal/mol
C        1.5395441932    0.4436878188   -0.3183675904
C        0.8215539660   -0.8273585888   -0.0591266679
C       -0.6387152064   -1.0017412960   -0.4026113420
C       -1.0951122898    0.3359233487    0.1673679687
C       -0.4361550876    1.5274799868   -0.4330585295
N        0.8840472302    1.5733116407   -0.5707235133
H        2.5992102299    0.5102805420   -0.0680304345
H        1.4117070835   -1.7414757731   -0.0333595819
H       -1.1894139764   -1.8346778528   -0.8166551755
H       -2.1445850750    0.4328836455    0.4386129874
H       -1.0280899736    2.3493965731   -0.8245509768
C       -0.2858583467   -0.6521277300    0.9790022723
H       -0.4381327473   -1.1155823149    1.9415005834
13   
Frame  24 IRC: Energy =  -286.8733120000 ; +3.7651 kcal/mol
C        1.5406712092    0.4435778759   -0.3159671643
C        0.8187363321   -0.8305610065   -0.0743480873
C       -0.6430148908   -1.0023986727   -0.4044567026
C       -1.0939660446    0.3375339080    0.1657318835
C       -0.4353789720    1.5257515807   -0.4403018707
N        0.8826173735    1.5750694988   -0.5694323891
H        2.5848149169    0.5124025561   -0.0233003530
H        1.4085422695   -1.7448544483   -0.0574472403
H       -1.1987701990   -1.8404497749   -0.8026517514
H       -2.1399596537    0.4354448121    0.4458260034
H       -1.0284880704    2.3483275160   -0.8369771986
C       -0.2777674163   -0.6500182273    0.9738514274
H       -0.4180368546   -1.1098256179    1.9394734430
13   
Frame  25 IRC: Energy =  -286.8729280000 ; +4.0060 kcal/mol
C        1.5377349681    0.4440331440   -0.3163810953
C        0.8187712862   -0.8310658791   -0.0790882800
C       -0.6449795885   -1.0026215336   -0.4051486280
C       -1.0926723680    0.3367584155    0.1654183668
C       -0.4367673438    1.5271890140   -0.4433593027
N        0.8838260068    1.5744884799   -0.5687149119
H        2.5820946375    0.5131039464   -0.0086026146
H        1.4075207229   -1.7460475683   -0.0650183171
H       -1.2015364002   -1.8421851816   -0.7979868735
H       -2.1389270573    0.4363476256    0.4480749767
H       -1.0278561736    2.3470363901   -0.8401763807
C       -0.2755606889   -0.6490726056    0.9721779207
H       -0.4116480013   -1.1079642474    1.9388051396
13   
Frame  26 IRC: Energy =  -286.8716640000 ; +4.7992 kcal/mol
C        1.5387053673    0.4435882456   -0.3136534757
C        0.8157131850   -0.8339609329   -0.0945636535
C       -0.6487878469   -1.0036135788   -0.4073624789
C       -1.0919105706    0.3382872202    0.1626497618
C       -0.4354262284    1.5258673284   -0.4501970745
N        0.8820283656    1.5771506443   -0.5663335697
H        2.5655862153    0.5132938766    0.0349008456
H        1.4046951517   -1.7490903885   -0.0885249047
H       -1.2099521627   -1.8492557661   -0.7819424588
H       -2.1344059594    0.4379418146    0.4537148088
H       -1.0277522884    2.3476079499   -0.8508343760
C       -0.2671560154   -0.6464095799    0.9663360779
H       -0.3913372132   -1.1014068335    1.9358104979
13   
Frame  27 IRC: Energy =  -286.8711090000 ; +5.1475 kcal/mol
C        1.5355620967    0.4444084632   -0.3140725026
C        0.8158813774   -0.8347679474   -0.1005915172
C       -0.6511339834   -1.0039244152   -0.4083357694
C       -1.0902706814    0.3373408777    0.1616883046
C       -0.4373172859    1.5277406281   -0.4536984647
N        0.8837339714    1.5765904751   -0.5649784057
H        2.5608734296    0.5132857973    0.0526415382
H        1.4034328897   -1.7502721126   -0.0976708761
H       -1.2130044746   -1.8519520219   -0.7753213499
H       -2.1332528946    0.4386368255    0.4559309043
H       -1.0267926200    2.3466598207   -0.8541424212
C       -0.2643834936   -0.6449400438    0.9639540929
H       -0.3833283314   -1.0988063467    1.9345964669
13   
Frame  28 IRC: Energy =  -286.8695710000 ; +6.1126 kcal/mol
C        1.5361943951    0.4439598545   -0.3109532356
C        0.8126142427   -0.8374236739   -0.1170848332
C       -0.6545374279   -1.0049983882   -0.4112735201
C       -1.0898214934    0.3388377247    0.1577392416
C       -0.4354726923    1.5270411312   -0.4602260242
N        0.8816642792    1.5801900416   -0.5608602150
H        2.5419139801    0.5109958591    0.0962981068
H        1.4005799019   -1.7533260780   -0.1211377378
H       -1.2206282949   -1.8602936123   -0.7562534731
H       -2.1286284743    0.4387753615    0.4605179273
H       -1.0264954202    2.3486903981   -0.8637892612
C       -0.2552141219   -0.6412858924    0.9569180963
H       -0.3621688741   -1.0911627257    1.9301049282
13   
Frame  29 IRC: Energy =  -286.8688940000 ; +6.5374 kcal/mol
C        1.5330396481    0.4449323577   -0.3113276832
C        0.8131843685   -0.8382164753   -0.1235527164
C       -0.6571414301   -1.0055105512   -0.4127212067
C       -1.0878998590    0.3378139088    0.1562153129
C       -0.4380786306    1.5294706308   -0.4636165376
N        0.8839131062    1.5798257033   -0.5588188808
H        2.5361388787    0.5099547285    0.1140189878
H        1.3991522763   -1.7544020019   -0.1301491881
H       -1.2232123507   -1.8632636149   -0.7484280922
H       -2.1276184887    0.4388590685    0.4623994768
H       -1.0253323192    2.3480399768   -0.8666029012
C       -0.2522606654   -0.6394271793    0.9545001443
H       -0.3538845342   -1.0880765518    1.9280832844
13   
Frame  30 IRC: Energy =  -286.8671360000 ; +7.6406 kcal/mol
C        1.5335669816    0.4447018181   -0.3075921046
C        0.8096666132   -0.8407561718   -0.1402391190
C       -0.6591732719   -1.0056221082   -0.4162301689
C       -1.0878039121    0.3392333398    0.1514551528
C       -0.4355521829    1.5292990368   -0.4692979834
N        0.8813252812    1.5841582304   -0.5528535461
H        2.5159842459    0.5049200888    0.1549322828
H        1.3960010816   -1.7577853345   -0.1517960766
H       -1.2296361233   -1.8720347945   -0.7272706762
H       -2.1229265297    0.4369679395    0.4661164533
H       -1.0255629743    2.3511913320   -0.8751148004
C       -0.2426192370   -0.6344586134    0.9455740373
H       -0.3332699724   -1.0798147629    1.9223165490
13   
Frame  31 IRC: Energy =  -286.8662600000 ; +8.1903 kcal/mol
C        1.5306898903    0.4456112110   -0.3075178054
C        0.8107282641   -0.8414464438   -0.1479480177
C       -0.6624117672   -1.0069224947   -0.4190798958
C       -1.0859102917    0.3387971724    0.1491029181
C       -0.4384243621    1.5321192663   -0.4726839782
N        0.8835389772    1.5844017179   -0.5497029735
H        2.5084695658    0.5023882144    0.1737972049
H        1.3941032958   -1.7592168402   -0.1611559431
H       -1.2316149146   -1.8749298246   -0.7172073612
H       -2.1216484488    0.4359735033    0.4679271488
H       -1.0246342616    2.3509927603   -0.8779112210
C       -0.2388562648   -0.6321481716    0.9438069793
H       -0.3240296825   -1.0756200707    1.9185729448
13   
Frame  32 IRC: Energy =  -286.8642680000 ; +9.4403 kcal/mol
C        1.5304432297    0.4457371327   -0.3029435497
C        0.8073861882   -0.8443067813   -0.1644760288
C       -0.6624949584   -1.0049050471   -0.4232161776
C       -1.0854878929    0.3397435276    0.1436987774
C       -0.4364873432    1.5331284753   -0.4776842070
N        0.8809718777    1.5887657227   -0.5418160432
H        2.4883794029    0.4945172004    0.2110410820
H        1.3902777517   -1.7637410394   -0.1801867178
H       -1.2365999017   -1.8831529409   -0.6942458324
H       -2.1169341212    0.4317712330    0.4712799332
H       -1.0261499841    2.3545952811   -0.8852450663
C       -0.2288471495   -0.6253080657    0.9321295645
H       -0.3044570991   -1.0668446985    1.9116642657
13   
Frame  33 IRC: Energy =  -286.8630300000 ; +10.2171 kcal/mol
C        1.5277107609    0.4464174272   -0.3015131026
C        0.8086866599   -0.8453694858   -0.1743095278
C       -0.6658385233   -1.0064068491   -0.4282015452
C       -1.0838143952    0.3400343698    0.1401016479
C       -0.4392418761    1.5363371143   -0.4811721622
N        0.8825556930    1.5898872500   -0.5368366173
H        2.4783852384    0.4895741387    0.2321523677
H        1.3875213414   -1.7665153539   -0.1902670378
H       -1.2378199741   -1.8856657469   -0.6804598635
H       -2.1149242612    0.4289593031    0.4733703852
H       -1.0264831741    2.3552707125   -0.8884840865
C       -0.2232795231   -0.6217016545    0.9301832494
H       -0.2934579664   -1.0608212256    1.9054362927
13   
Frame  34 IRC: Energy =  -286.8606690000 ; +11.6987 kcal/mol
C        1.5260243487    0.4462617380   -0.2951192912
C        0.8065599603   -0.8494319085   -0.1905136944
C       -0.6637158504   -1.0014524330   -0.4341202700
C       -1.0825662003    0.3414481029    0.1341226915
C       -0.4393712360    1.5390184288   -0.4861421777
N        0.8794939864    1.5930787968   -0.5265763897
H        2.4589863701    0.4785341007    0.2655960528
H        1.3832034098   -1.7739052024   -0.2065523118
H       -1.2404324811   -1.8913687880   -0.6548947675
H       -2.1096583026    0.4222180169    0.4768585692
H       -1.0308302375    2.3592467753   -0.8948513566
C       -0.2131772970   -0.6128483842    0.9156508259
H       -0.2745164705   -1.0507992433    1.8965421196
13   
Frame  35 IRC: Energy =  -286.8575780000 ; +13.6383 kcal/mol
C        1.5169348735    0.4446891227   -0.2819734079
C        0.8077955872   -0.8562146700   -0.2098589811
C       -0.6636431515   -0.9965670577   -0.4487458583
C       -1.0794689028    0.3435492907    0.1264681362
C       -0.4448867163    1.5445566518   -0.4915532075
N        0.8774009229    1.5930024701   -0.5155106313
H        2.4390513966    0.4646684136    0.2985304234
H        1.3788969134   -1.7852982112   -0.2217149637
H       -1.2383843565   -1.8908516293   -0.6243004108
H       -2.1034132218    0.4136443730    0.4808344723
H       -1.0371444260    2.3620729715   -0.9003283528
C       -0.1994274531   -0.6008689487    0.9060659786
H       -0.2537114656   -1.0363827765    1.8820868029
13   
Frame  36 IRC: Energy =  -286.8537060000 ; +16.0680 kcal/mol
C        1.5062944753    0.4417514139   -0.2646418895
C        0.8080615929   -0.8652447025   -0.2287942512
C       -0.6602120782   -0.9875580775   -0.4644267931
C       -1.0763710075    0.3462914282    0.1192303221
C       -0.4504651861    1.5494996315   -0.4964800411
N        0.8727242590    1.5914323089   -0.5041892061
H        2.4192063846    0.4496382101    0.3285439573
H        1.3755035614   -1.7991204631   -0.2355203229
H       -1.2349825477   -1.8885920063   -0.5927368603
H       -2.0961495036    0.4043419422    0.4847257885
H       -1.0456490196    2.3654819346   -0.9056524341
C       -0.1849290077   -0.5865465712    0.8920108486
H       -0.2330319227   -1.0213750489    1.8679308818
13   
Frame  37 IRC: Energy =  -286.8489010000 ; +19.0832 kcal/mol
C        1.4865820365    0.4365969396   -0.2356506674
C        0.8058017111   -0.8782640984   -0.2447406056
C       -0.6572174713   -0.9770905602   -0.4918229704
C       -1.0727090851    0.3468835679    0.1140577688
C       -0.4573849900    1.5527638342   -0.4978312994
N        0.8672635220    1.5860272557   -0.4995475305
H        2.4041465657    0.4379516976    0.3469310177
H        1.3750885920   -1.8126171273   -0.2439281640
H       -1.2301856327   -1.8840610713   -0.5685379358
H       -2.0898908427    0.3976393337    0.4868368468
H       -1.0522579724    2.3662768301   -0.9083271382
C       -0.1627186232   -0.5649211633    0.8853734547
H       -0.2165178100   -1.0071854382    1.8571872233
13   
Frame  38 IRC: Energy =  -286.8424850000 ; +23.1093 kcal/mol
C        1.4638465669    0.4310926631   -0.2020912943
C        0.8007002881   -0.8927930487   -0.2573863957
C       -0.6556480614   -0.9677863573   -0.5259634145
C       -1.0692345583    0.3458067710    0.1106145244
C       -0.4635732992    1.5545551788   -0.4969475594
N        0.8621990496    1.5801830156   -0.4994712245
H        2.3927761326    0.4295449373    0.3589200373
H        1.3759741803   -1.8236697164   -0.2493929842
H       -1.2269580926   -1.8813708302   -0.5512503596
H       -2.0856659110    0.3931695208    0.4878724769
H       -1.0563948696    2.3655618819   -0.9095376073
C       -0.1349187255   -0.5393150753    0.8840012219
H       -0.2031026998   -0.9949789406    1.8506325791
13   