
Running Job 1 of 1 irc_transition.in
qchem irc_transition.in_18520.0 ./irc_transition.d/ 1
/home/leeping/opt/qchem/5.0.2-openmp/exe/qcprog.exe_s irc_transition.in_18520.0 ./irc_transition.d/
Check license passed

                  Welcome to Q-Chem
     A Quantum Leap Into The Future Of Chemistry


 Q-Chem 5.0, Q-Chem, Inc., Pleasanton, CA (2017)

 Yihan Shao,  Zhengting Gan,  E. Epifanovsky,  A. T. B. Gilbert,  M. Wormit,  
 J. Kussmann,  A. W. Lange,  A. Behn,  Jia Deng,  Xintian Feng,  D. Ghosh,  
 M. Goldey,  P. R. Horn,  L. D. Jacobson,  I. Kaliman,  T. Kus,  A. Landau,  
 Jie Liu,  E. I. Proynov,  R. M. Richard,  R. P. Steele,  E. J. Sundstrom,  
 H. L. Woodcock III,  P. M. Zimmerman,  D. Zuev,  B. Albrecht,  E. Alguire,  
 S. A. Baeppler,  D. Barton,  Z. Benda,  Y. A. Bernard,  E. J. Berquist,  
 K. B. Bravaya,  H. Burton,  D. Casanova,  Chun-Min Chang,  Yunqing Chen,  
 A. Chien,  K. D. Closser,  M. P. Coons,  S. Dasgupta,  A. L. Dempwolff,  
 M. Diedenhofen,  Hainam Do,  R. G. Edgar,  Po-Tung Fang,  S. Fatehi,  
 Qingguo Feng,  J. Fosso-Tande,  Qinghui Ge,  A. Ghysels,  G. Gidofalvi,  
 J. Gomes,  J. Gonthier,  A. Gunina,  M. W. D. Hanson-Heine,  
 P. H. P. Harbach,  A. W. Hauser,  J. E. Herr,  E. G. Hohenstein,  
 Z. C. Holden,  Kerwin Hui,  T.-C. Jagau,  Hyunjun Ji,  B. Kaduk,  
 K. Khistyaev,  Jaehoon Kim,  P. Klunzinger,  K. Koh,  D. Kosenkov,  
 L. Koulias,  T. Kowalczyk,  C. M. Krauter,  A. Kunitsa,  Ka Un Lao,  
 A. Laurent,  K. V. Lawler,  Joonho Lee,  D. Lefrancois,  S. Lehtola,  
 D. S. Levine,  Yi-Pei Li,  You-Sheng Lin,  Fenglai Liu,  E. Livshits,  
 A. Luenser,  P. Manohar,  E. Mansoor,  S. F. Manzer,  Shan-Ping Mao,  
 Yuezhi Mao,  N. Mardirossian,  A. V. Marenich,  T. Markovich,  
 L. A. Martinez-Martinez,  S. A. Maurer,  N. J. Mayhall,  S. C. McKenzie,  
 J.-M. Mewes,  A. F. Morrison,  J. W. Mullinax,  K. Nanda,  
 T. S. Nguyen-Beck,  R. Olivares-Amaya,  J. A. Parkhill,  T. M. Perrine,  
 F. Plasser,  S. Prager,  A. Prociuk,  E. Ramos,  D. R. Rehn,  F. Rob,  
 M. Schneider,  N. Sergueev,  S. M. Sharada,  S. Sharma,  D. W. Small,  
 T. Stauch,  T. Stein,  Yu-Chuan Su,  A. J. W. Thom,  A. Tkatchenko,  
 T. Tsuchimochi,  L. Vogt,  O. Vydrov,  M. A. Watson,  J. Wenzel,  
 M. de Wergifosse,  T. A. Wesolowski,  A. White,  J. Witte,  A. Yamada,  
 Jun Yang,  K. Yao,  S. Yeganeh,  S. R. Yost,  Zhi-Qiang You,  A. Zech,  
 Igor Ying Zhang,  Xing Zhang,  Yan Zhao,  Ying Zhu,  B. R. Brooks,  
 G. K. L. Chan,  C. J. Cramer,  M. S. Gordon,  W. J. Hehre,  A. Klamt,  
 M. W. Schmidt,  C. D. Sherrill,  D. G. Truhlar,  A. Aspuru-Guzik,  R. Baer,  
 A. T. Bell,  N. A. Besley,  Jeng-Da Chai,  R. A. DiStasio Jr.,  A. Dreuw,  
 B. D. Dunietz,  T. R. Furlani,  Chao-Ping Hsu,  Yousung Jung,  Jing Kong,  
 D. S. Lambrecht,  WanZhen Liang,  C. Ochsenfeld,  V. A. Rassolov,  
 L. V. Slipchenko,  J. E. Subotnik,  T. Van Voorhis,  J. M. Herbert,  
 A. I. Krylov,  P. M. W. Gill,  M. Head-Gordon

 Contributors to earlier versions of Q-Chem not listed above: 
 R. D. Adamson,  B. Austin,  J. Baker,  G. J. O. Beran,  K. Brandhorst,  
 S. T. Brown,  E. F. C. Byrd,  A. K. Chakraborty,  C.-L. Cheng,  
 Siu Hung Chien,  D. M. Chipman,  D. L. Crittenden,  H. Dachsel,  
 R. J. Doerksen,  A. D. Dutoi,  L. Fusti-Molnar,  W. A. Goddard III,  
 A. Golubeva-Zadorozhnaya,  S. R. Gwaltney,  G. Hawkins,  A. Heyden,  
 S. Hirata,  G. Kedziora,  F. J. Keil,  C. Kelley,  Jihan Kim,  R. A. King,  
 R. Z. Khaliullin,  P. P. Korambath,  W. Kurlancheek,  A. M. Lee,  M. S. Lee,  
 S. V. Levchenko,  Ching Yeh Lin,  D. Liotard,  R. C. Lochan,  I. Lotan,  
 P. E. Maslen,  N. Nair,  D. P. O'Neill,  D. Neuhauser,  E. Neuscamman,  
 C. M. Oana,  R. Olson,  B. Peters,  R. Peverati,  P. A. Pieniazek,  
 Y. M. Rhee,  J. Ritchie,  M. A. Rohrdanz,  E. Rosta,  N. J. Russ,  
 H. F. Schaefer III,  N. E. Schultz,  N. Shenvi,  A. C. Simmonett,  A. Sodt,  
 D. Stuck,  K. S. Thanthiriwatte,  V. Vanovschi,  Tao Wang,  A. Warshel,  
 C. F. Williams,  Q. Wu,  X. Xu,  W. Zhang

 Please cite Q-Chem as follows:
 Y. Shao et al., Mol. Phys. 113, 184-215 (2015)
 DOI: 10.1080/00268976.2014.952696

 Q-Chem 5.0.2 for Intel X86 EM64T Linux

 Parts of Q-Chem use Armadillo 5.200.1 (Boston Tea Smuggler).
 http://arma.sourceforge.net/

 Q-Chem begins on Thu Mar  3 07:21:32 2022  

Host: 
0

     Scratch files written to ./irc_transition.d//
 Dec517 15110_ 26548  26544 5633   
Processing $rem in /home/leeping/opt/qchem/5.0.2-openmp/config/preferences.
 MEM_STATIC 2000
 MEM_TOTAL  8000
 SYMMETRY   OFF
 SYM_IGNORE TRUE 

Checking the input file for inconsistencies... 	...done.

--------------------------------------------------------------
User input:
--------------------------------------------------------------
$molecule
0 2
C        1.3753758541    0.3969482137   -0.0639618535
C        0.7603872189   -0.9539701218   -0.2805048926
C       -0.6747272642   -0.9554674551   -0.6844018817
C       -1.0635046515    0.3359837711    0.1091190986
C       -0.4690142653    1.5472433738   -0.4949097924
N        0.8375368022    1.5652285722   -0.5313411733
H        2.3707947868    0.4106219006    0.3684677189
H        1.3727962332   -1.8485253915   -0.2561169097
H       -1.2313563220   -1.8768831266   -0.5152154619
H       -2.0812147576    0.3925018213    0.4892913312
H       -1.0557630129    2.3561733827   -0.9190907797
C       -0.0009257587   -0.4294013513    0.9066865037
H       -0.1624268971   -0.9492570952    1.8488115144
$end

$rem
method                b3lyp
basis                 6-31+g(d,p)
unrestricted          true
symmetry              off
sym_ignore            true
incdft                false
incfock               0
scf_convergence       6
thresh                14
jobtype               sp
scf_guess             read
scf_algorithm         diis
max_scf_cycles        100
stability_analysis    true
max_cis_cycles        100
cis_n_roots           4
$end

--------------------------------------------------------------
 ----------------------------------------------------------------
             Standard Nuclear Orientation (Angstroms)
    I     Atom           X                Y                Z
 ----------------------------------------------------------------
    1      C       1.3753758541     0.3969482137    -0.0639618535
    2      C       0.7603872189    -0.9539701218    -0.2805048926
    3      C      -0.6747272642    -0.9554674551    -0.6844018817
    4      C      -1.0635046515     0.3359837711     0.1091190986
    5      C      -0.4690142653     1.5472433738    -0.4949097924
    6      N       0.8375368022     1.5652285722    -0.5313411733
    7      H       2.3707947868     0.4106219006     0.3684677189
    8      H       1.3727962332    -1.8485253915    -0.2561169097
    9      H      -1.2313563220    -1.8768831266    -0.5152154619
   10      H      -2.0812147576     0.3925018213     0.4892913312
   11      H      -1.0557630129     2.3561733827    -0.9190907797
   12      C      -0.0009257587    -0.4294013513     0.9066865037
   13      H      -0.1624268971    -0.9492570952     1.8488115144
 ----------------------------------------------------------------
 Nuclear Repulsion Energy =   280.5307646894 hartrees
 There are       25 alpha and       24 beta electrons
 Requested basis set is 6-31+G(d,p)
 There are 53 shells and 163 basis functions

 Total QAlloc Memory Limit   8000 MB
 Mega-Array Size      1956 MB
 MEM_STATIC part      2000 MB

                       Distance Matrix (Angstroms)
             C (  1)   C (  2)   C (  3)   C (  4)   C (  5)   N (  6)
   C (  2)  1.500027
   C (  3)  2.533159  1.490868
   C (  4)  2.445774  2.267679  1.564823
   C (  5)  2.216003  2.795258  2.518290  1.478316
   N (  6)  1.368427  2.532831  2.943515  2.352699  1.307183
   H (  7)  1.085376  2.208323  3.499991  3.444887  3.178340  2.119824
   H (  8)  2.253682  1.084375  2.274496  3.292573  3.870469  3.466406
   H (  9)  3.488408  2.207691  1.089709  2.305374  3.508022  4.016057
   H ( 10)  3.500590  3.237325  2.274376  1.087869  2.213881  3.306976
   H ( 11)  3.237321  3.829261  3.341741  2.266813  1.085620  2.088188
   C ( 12)  1.875958  1.504724  1.806188  1.533298  2.467935  2.597978
   H ( 13)  2.799251  2.320689  2.584504  2.343142  3.437956  3.603844
             H (  7)   H (  8)   H (  9)   H ( 10)   H ( 11)   C ( 12)
   H (  8)  2.547519
   H (  9)  4.357645  2.617164
   H ( 10)  4.453686  4.184260  2.623243
   H ( 11)  4.145392  4.900707  4.255904  2.625090
   C ( 12)  2.573009  2.291972  2.372966  2.275378  3.493647
   H ( 13)  3.233868  2.756142  2.755308  2.707464  4.402863  1.088086

 
 A cutoff of  1.0D-14 yielded   1398 shell pairs
 There are     13494 function pairs
 Smallest overlap matrix eigenvalue = 4.01E-05

 Scale SEOQF with 1.000000e-01/1.000000e-01/1.000000e-01

 Standard Electronic Orientation quadrupole field applied
 Nucleus-field energy     =     0.0000000040 hartrees
 Guess MOs from SCF MO coefficient file
 Reading MOs from coefficient file
 Reading MOs from coefficient file
 An unrestricted hybrid HF-DFT SCF calculation will be
 performed using Pulay DIIS extrapolation
 Exchange:     0.2000 Hartree-Fock + 0.0800 Slater + 0.7200 B88
 Correlation:  0.1900 VWN1RPA + 0.8100 LYP
 Using SG-1 standard quadrature grid
 SCF converges when DIIS error is below 1.0E-06
Using Q-Chem read-in guess as SCF_GUESS READ specified.

 -------------------------------------------------------
 OpenMP BLAS3 based DFT computing Module                
 -------------------------------------------------------
 ---------------------------------------
  Cycle       Energy         DIIS Error
 ---------------------------------------
    1    -286.8141634466      3.33E-09
    2    -286.8141634466      3.70E-09 Convergence criterion met
 ---------------------------------------
 <S^2> = 0.7751
 SCF time:  CPU 6.37 s  wall 6.57 s
 SCF   energy in the final basis set = -286.81416345
 Total energy in the final basis set = -286.81416345
 
 Direct TDDFT/TDA calculation will be performed
 Exchange:     0.2000 Hartree-Fock + 0.0800 Slater + 0.7200 B88
 Correlation:  0.1900 VWN1RPA + 0.8100 LYP
 Using SG-1 standard quadrature grid
 CIS energy converged when residual is below 10e- 6
 ---------------------------------------------------
 Iter    Rts Conv    Rts Left    Ttl Dev     Max Dev
 ---------------------------------------------------
   1         0           4      0.003000    0.001498
   2         0           4      0.000754    0.000280
   3         0           4      0.000380    0.000198
   4         0           4      0.000140    0.000082
   5         0           4      0.000052    0.000030
   6         0           4      0.000018    0.000012
   7         3           1      0.000007    0.000005
   8         3           1      0.000003    0.000001
   9         4           0      0.000002    0.000001    Roots Converged
 ---------------------------------------------------
 
 ---------------------------------------------------
         TDDFT/TDA Excitation Energies              
 ---------------------------------------------------

 Excited state   1: excitation energy (eV) =    1.7155
 Total energy for state  1:                  -286.75112108 au
    <S**2>     :  0.7759
    Trans. Mom.: -0.1450 X  -0.6731 Y  -0.1111 Z
    Strength   :     0.0204451863
    S(  1) --> V(  1) amplitude =  0.9723 alpha
    D( 24) --> S(  1) amplitude = -0.1603 beta

 Excited state   2: excitation energy (eV) =    2.6341
 Total energy for state  2:                  -286.71736199 au
    <S**2>     :  0.7876
    Trans. Mom.: -0.1095 X  -0.2775 Y   0.2651 Z
    Strength   :     0.0102773430
    S(  1) --> V(  2) amplitude =  0.9951 alpha

 Excited state   3: excitation energy (eV) =    3.1199
 Total energy for state  3:                  -286.69950836 au
    <S**2>     :  0.8024
    Trans. Mom.: -0.2482 X   0.1590 Y   0.0501 Z
    Strength   :     0.0068333361
    S(  1) --> V(  3) amplitude =  0.7764 alpha
    S(  1) --> V(  4) amplitude = -0.5542 alpha
    S(  1) --> V(  6) amplitude = -0.1598 alpha

 Excited state   4: excitation energy (eV) =    3.3110
 Total energy for state  4:                  -286.69248640 au
    <S**2>     :  0.7875
    Trans. Mom.: -0.1307 X   0.1283 Y  -0.0204 Z
    Strength   :     0.0027548684
    S(  1) --> V(  3) amplitude =  0.5897 alpha
    S(  1) --> V(  4) amplitude =  0.8029 alpha
 
 ---------------------------------------------------

 Stability analysis will be performed
 ---------------------------------------------------
 Iter    Rts Conv    Rts Left    Ttl Dev     Max Dev
 ---------------------------------------------------
   1         0           8      0.003134    0.000727
   2         0           8      0.001015    0.000332
   3         0           8      0.000633    0.000291
   4         3           5      0.000903    0.000516
   5         4           4      0.000653    0.000362
   6         4           4      0.000259    0.000145
   7         4           4      0.000078    0.000043
   8         6           2      0.000030    0.000016
   9         6           2      0.000011    0.000004
  10         7           1      0.000005    0.000001
  11         8           0      0.000004    0.000001    Roots Converged
 UKS-> UKS   stable,    smallest eigenvalue:      0.0544515
 UKS->CUKS   stable,    smallest eigenvalue:      0.0578639
 ---------------------------------------------------
  SETman timing summary (seconds)
  CPU time               173.51s
  System time              0.00s
  Wall time              174.91s
 
 --------------------------------------------------------------
 
                    Orbital Energies (a.u.)
 --------------------------------------------------------------
 
 Alpha MOs
 -- Occupied --
-14.331 -10.252 -10.246 -10.232 -10.230 -10.228 -10.219  -0.979
 -0.888  -0.767  -0.655  -0.636  -0.613  -0.557  -0.506  -0.461
 -0.450  -0.433  -0.422  -0.380  -0.374  -0.321  -0.280  -0.257
 -0.136
 -- Virtual --
 -0.034  -0.008   0.015   0.016   0.027   0.038   0.052   0.053
  0.065   0.069   0.074   0.096   0.098   0.102   0.109   0.111
  0.120   0.129   0.142   0.149   0.157   0.166   0.172   0.183
  0.187   0.200   0.207   0.217   0.231   0.240   0.244   0.250
  0.253   0.266   0.280   0.284   0.307   0.317   0.325   0.340
  0.360   0.365   0.437   0.461   0.616   0.621   0.638   0.672
  0.692   0.705   0.719   0.739   0.746   0.753   0.771   0.791
  0.808   0.839   0.873   0.891   0.918   0.928   0.960   0.977
  0.997   1.019   1.038   1.070   1.084   1.104   1.135   1.149
  1.179   1.223   1.304   1.340   1.358   1.404   1.444   1.483
  1.520   1.588   1.593   1.679   1.708   1.736   1.808   1.837
  1.861   1.905   1.940   1.982   2.038   2.061   2.100   2.161
  2.176   2.190   2.264   2.267   2.297   2.340   2.363   2.365
  2.415   2.423   2.453   2.491   2.511   2.517   2.537   2.554
  2.577   2.593   2.627   2.649   2.678   2.708   2.713   2.754
  2.824   2.881   2.959   3.081   3.109   3.288   3.312   3.375
  3.446   3.502   3.673   4.193   4.382   4.456   4.531   4.582
  4.654   4.705
 
 Beta MOs
 -- Occupied --
-14.331 -10.253 -10.243 -10.228 -10.227 -10.224 -10.215  -0.974
 -0.883  -0.760  -0.648  -0.627  -0.610  -0.553  -0.501  -0.458
 -0.444  -0.430  -0.412  -0.374  -0.366  -0.303  -0.273  -0.247
 -- Virtual --
 -0.051  -0.019  -0.007   0.015   0.020   0.029   0.040   0.053
  0.060   0.065   0.072   0.076   0.096   0.098   0.103   0.110
  0.112   0.122   0.131   0.143   0.152   0.158   0.167   0.174
  0.184   0.190   0.201   0.211   0.218   0.233   0.245   0.247
  0.251   0.256   0.269   0.283   0.290   0.309   0.320   0.328
  0.343   0.365   0.371   0.442   0.467   0.620   0.626   0.641
  0.669   0.698   0.719   0.731   0.747   0.751   0.758   0.776
  0.797   0.814   0.844   0.881   0.895   0.922   0.931   0.962
  0.979   1.002   1.021   1.039   1.073   1.086   1.109   1.142
  1.155   1.185   1.227   1.310   1.347   1.365   1.406   1.451
  1.488   1.525   1.594   1.600   1.683   1.717   1.745   1.823
  1.841   1.866   1.909   1.944   1.986   2.045   2.065   2.110
  2.168   2.182   2.195   2.269   2.273   2.303   2.343   2.369
  2.373   2.418   2.426   2.457   2.497   2.518   2.520   2.544
  2.568   2.584   2.597   2.634   2.656   2.683   2.711   2.717
  2.759   2.828   2.885   2.964   3.084   3.111   3.289   3.313
  3.380   3.448   3.504   3.676   4.195   4.389   4.471   4.536
  4.590   4.655   4.709
 --------------------------------------------------------------
 
          Ground-State Mulliken Net Atomic Charges

     Atom                 Charge (a.u.)    Spin (a.u.)
  --------------------------------------------------------
      1 C                    -0.247439       0.247558
      2 C                    -0.063087       0.044548
      3 C                    -0.144348       0.606341
      4 C                    -0.261756      -0.043695
      5 C                     0.015136       0.245492
      6 N                    -0.198751      -0.006412
      7 H                     0.142863      -0.009168
      8 H                     0.150855      -0.007302
      9 H                     0.152874      -0.004921
     10 H                     0.139622      -0.002858
     11 H                     0.128425      -0.013457
     12 C                     0.036779      -0.071050
     13 H                     0.148827       0.014924
  --------------------------------------------------------
  Sum of atomic charges =     0.000000
  Sum of spin   charges =     1.000000

 -----------------------------------------------------------------
                    Cartesian Multipole Moments
 -----------------------------------------------------------------
    Charge (ESU x 10^10)
                -0.0000
    Dipole Moment (Debye)
         X      -1.0665      Y      -2.7089      Z       1.8883
       Tot       3.4700
    Quadrupole Moments (Debye-Ang)
        XX     -39.0287     XY      -4.7508     YY     -43.6321
        XZ       0.7080     YZ      -0.5694     ZZ     -44.3312
    Octopole Moments (Debye-Ang^2)
       XXX      -9.6244    XXY     -10.5145    XYY     -12.1953
       YYY     -34.5947    XXZ       8.7153    XYZ       4.1045
       YYZ       5.7860    XZZ      -4.5195    YZZ      -8.9858
       ZZZ      22.3418
    Hexadecapole Moments (Debye-Ang^3)
      XXXX    -249.0394   XXXY     -15.5071   XXYY    -103.2354
      XYYY     -32.8684   YYYY    -349.6997   XXXZ       3.7215
      XXYZ      10.2089   XYYZ       8.5831   YYYZ      22.7910
      XXZZ     -72.1888   XYZZ      -8.0265   YYZZ     -82.7887
      XZZZ      -2.0849   YZZZ      16.0958   ZZZZ    -141.4160
 -----------------------------------------------------------------
Archival summary:
1\1\c8-90\SP\ProcedureUnspecified\6-31+G**\166(2)\hpark21\ThuMar307:24:352022ThuMar307:24:352022\0\\#,ProcedureUnspecified,6-31+G**,\\0,2\N\C,1,1.30718\H,2,1.08562,1,121.27\C,1,1.36843,2,111.813,3,-173.973,0\H,4,1.08538,1,119.064,2,-153.343,0\C,2,1.47832,1,115.126,3,177.691,0\H,6,1.08787,2,118.452,1,158.728,0\C,4,1.50003,1,123.947,2,35.6714,0\H,8,1.08437,4,120.541,1,155.508,0\C,8,1.49087,4,115.764,1,-17.4414,0\H,10,1.08971,8,116.775,4,-159.417,0\C,8,1.50472,4,77.266,1,-82.6212,0\H,12,1.08809,8,126.276,4,-129.159,0\\\@

 Total job time:  182.14s(wall), 180.08s(cpu) 
 Thu Mar  3 07:24:35 2022

        *************************************************************
        *                                                           *
        *  Thank you very much for using Q-Chem.  Have a nice day.  *
        *                                                           *
        *************************************************************


