
Running Job 1 of 1 irc_reactant.in
qchem irc_reactant.in_18176.0 ./irc_reactant.d/ 1
/home/leeping/opt/qchem/5.0.2-openmp/exe/qcprog.exe_s irc_reactant.in_18176.0 ./irc_reactant.d/
Check license passed

                  Welcome to Q-Chem
     A Quantum Leap Into The Future Of Chemistry


 Q-Chem 5.0, Q-Chem, Inc., Pleasanton, CA (2017)

 Yihan Shao,  Zhengting Gan,  E. Epifanovsky,  A. T. B. Gilbert,  M. Wormit,  
 J. Kussmann,  A. W. Lange,  A. Behn,  Jia Deng,  Xintian Feng,  D. Ghosh,  
 M. Goldey,  P. R. Horn,  L. D. Jacobson,  I. Kaliman,  T. Kus,  A. Landau,  
 Jie Liu,  E. I. Proynov,  R. M. Richard,  R. P. Steele,  E. J. Sundstrom,  
 H. L. Woodcock III,  P. M. Zimmerman,  D. Zuev,  B. Albrecht,  E. Alguire,  
 S. A. Baeppler,  D. Barton,  Z. Benda,  Y. A. Bernard,  E. J. Berquist,  
 K. B. Bravaya,  H. Burton,  D. Casanova,  Chun-Min Chang,  Yunqing Chen,  
 A. Chien,  K. D. Closser,  M. P. Coons,  S. Dasgupta,  A. L. Dempwolff,  
 M. Diedenhofen,  Hainam Do,  R. G. Edgar,  Po-Tung Fang,  S. Fatehi,  
 Qingguo Feng,  J. Fosso-Tande,  Qinghui Ge,  A. Ghysels,  G. Gidofalvi,  
 J. Gomes,  J. Gonthier,  A. Gunina,  M. W. D. Hanson-Heine,  
 P. H. P. Harbach,  A. W. Hauser,  J. E. Herr,  E. G. Hohenstein,  
 Z. C. Holden,  Kerwin Hui,  T.-C. Jagau,  Hyunjun Ji,  B. Kaduk,  
 K. Khistyaev,  Jaehoon Kim,  P. Klunzinger,  K. Koh,  D. Kosenkov,  
 L. Koulias,  T. Kowalczyk,  C. M. Krauter,  A. Kunitsa,  Ka Un Lao,  
 A. Laurent,  K. V. Lawler,  Joonho Lee,  D. Lefrancois,  S. Lehtola,  
 D. S. Levine,  Yi-Pei Li,  You-Sheng Lin,  Fenglai Liu,  E. Livshits,  
 A. Luenser,  P. Manohar,  E. Mansoor,  S. F. Manzer,  Shan-Ping Mao,  
 Yuezhi Mao,  N. Mardirossian,  A. V. Marenich,  T. Markovich,  
 L. A. Martinez-Martinez,  S. A. Maurer,  N. J. Mayhall,  S. C. McKenzie,  
 J.-M. Mewes,  A. F. Morrison,  J. W. Mullinax,  K. Nanda,  
 T. S. Nguyen-Beck,  R. Olivares-Amaya,  J. A. Parkhill,  T. M. Perrine,  
 F. Plasser,  S. Prager,  A. Prociuk,  E. Ramos,  D. R. Rehn,  F. Rob,  
 M. Schneider,  N. Sergueev,  S. M. Sharada,  S. Sharma,  D. W. Small,  
 T. Stauch,  T. Stein,  Yu-Chuan Su,  A. J. W. Thom,  A. Tkatchenko,  
 T. Tsuchimochi,  L. Vogt,  O. Vydrov,  M. A. Watson,  J. Wenzel,  
 M. de Wergifosse,  T. A. Wesolowski,  A. White,  J. Witte,  A. Yamada,  
 Jun Yang,  K. Yao,  S. Yeganeh,  S. R. Yost,  Zhi-Qiang You,  A. Zech,  
 Igor Ying Zhang,  Xing Zhang,  Yan Zhao,  Ying Zhu,  B. R. Brooks,  
 G. K. L. Chan,  C. J. Cramer,  M. S. Gordon,  W. J. Hehre,  A. Klamt,  
 M. W. Schmidt,  C. D. Sherrill,  D. G. Truhlar,  A. Aspuru-Guzik,  R. Baer,  
 A. T. Bell,  N. A. Besley,  Jeng-Da Chai,  R. A. DiStasio Jr.,  A. Dreuw,  
 B. D. Dunietz,  T. R. Furlani,  Chao-Ping Hsu,  Yousung Jung,  Jing Kong,  
 D. S. Lambrecht,  WanZhen Liang,  C. Ochsenfeld,  V. A. Rassolov,  
 L. V. Slipchenko,  J. E. Subotnik,  T. Van Voorhis,  J. M. Herbert,  
 A. I. Krylov,  P. M. W. Gill,  M. Head-Gordon

 Contributors to earlier versions of Q-Chem not listed above: 
 R. D. Adamson,  B. Austin,  J. Baker,  G. J. O. Beran,  K. Brandhorst,  
 S. T. Brown,  E. F. C. Byrd,  A. K. Chakraborty,  C.-L. Cheng,  
 Siu Hung Chien,  D. M. Chipman,  D. L. Crittenden,  H. Dachsel,  
 R. J. Doerksen,  A. D. Dutoi,  L. Fusti-Molnar,  W. A. Goddard III,  
 A. Golubeva-Zadorozhnaya,  S. R. Gwaltney,  G. Hawkins,  A. Heyden,  
 S. Hirata,  G. Kedziora,  F. J. Keil,  C. Kelley,  Jihan Kim,  R. A. King,  
 R. Z. Khaliullin,  P. P. Korambath,  W. Kurlancheek,  A. M. Lee,  M. S. Lee,  
 S. V. Levchenko,  Ching Yeh Lin,  D. Liotard,  R. C. Lochan,  I. Lotan,  
 P. E. Maslen,  N. Nair,  D. P. O'Neill,  D. Neuhauser,  E. Neuscamman,  
 C. M. Oana,  R. Olson,  B. Peters,  R. Peverati,  P. A. Pieniazek,  
 Y. M. Rhee,  J. Ritchie,  M. A. Rohrdanz,  E. Rosta,  N. J. Russ,  
 H. F. Schaefer III,  N. E. Schultz,  N. Shenvi,  A. C. Simmonett,  A. Sodt,  
 D. Stuck,  K. S. Thanthiriwatte,  V. Vanovschi,  Tao Wang,  A. Warshel,  
 C. F. Williams,  Q. Wu,  X. Xu,  W. Zhang

 Please cite Q-Chem as follows:
 Y. Shao et al., Mol. Phys. 113, 184-215 (2015)
 DOI: 10.1080/00268976.2014.952696

 Q-Chem 5.0.2 for Intel X86 EM64T Linux

 Parts of Q-Chem use Armadillo 5.200.1 (Boston Tea Smuggler).
 http://arma.sourceforge.net/

 Q-Chem begins on Thu Mar  3 07:12:26 2022  

Host: 
0

     Scratch files written to ./irc_reactant.d//
 Dec517 15110_ 26548  26544 5633   
Processing $rem in /home/leeping/opt/qchem/5.0.2-openmp/config/preferences.
 MEM_STATIC 2000
 MEM_TOTAL  8000
 SYMMETRY   OFF
 SYM_IGNORE TRUE 

Checking the input file for inconsistencies... 	...done.

--------------------------------------------------------------
User input:
--------------------------------------------------------------
$molecule
0 2
C        1.5416823520    0.4345515156   -0.3547560222
C        0.8414183369   -0.8018218203    0.0679501629
C       -0.5894582632   -1.0218467898   -0.3929946855
C       -1.1159098153    0.3149951241    0.1092592345
C       -0.4288241129    1.5408520214   -0.3633114267
N        0.8870633713    1.5749436167   -0.5726297064
H        2.6221306185    0.4385102453   -0.4781805896
H        1.4504309340   -1.6944704329    0.1969641511
H       -1.0776959209   -1.8591588892   -0.8703581753
H       -2.1885397965    0.3845228938    0.2791743495
H       -0.9984778444    2.4436848592   -0.5709460682
C       -0.3513303913   -0.6485901863    1.0006492974
H       -0.5924894688   -1.1061721571    1.9491794791
$end

$rem
method                b3lyp
basis                 6-31+g(d,p)
unrestricted          true
symmetry              off
sym_ignore            true
incdft                false
incfock               0
scf_convergence       8
thresh                14
jobtype               sp
scf_guess             core
scf_guess_mix         5
scf_algorithm         diis
max_scf_cycles        100
$end

--------------------------------------------------------------
 ----------------------------------------------------------------
             Standard Nuclear Orientation (Angstroms)
    I     Atom           X                Y                Z
 ----------------------------------------------------------------
    1      C       1.5416823520     0.4345515156    -0.3547560222
    2      C       0.8414183369    -0.8018218203     0.0679501629
    3      C      -0.5894582632    -1.0218467898    -0.3929946855
    4      C      -1.1159098153     0.3149951241     0.1092592345
    5      C      -0.4288241129     1.5408520214    -0.3633114267
    6      N       0.8870633713     1.5749436167    -0.5726297064
    7      H       2.6221306185     0.4385102453    -0.4781805896
    8      H       1.4504309340    -1.6944704329     0.1969641511
    9      H      -1.0776959209    -1.8591588892    -0.8703581753
   10      H      -2.1885397965     0.3845228938     0.2791743495
   11      H      -0.9984778444     2.4436848592    -0.5709460682
   12      C      -0.3513303913    -0.6485901863     1.0006492974
   13      H      -0.5924894688    -1.1061721571     1.9491794791
 ----------------------------------------------------------------
 Nuclear Repulsion Energy =   277.1287341647 hartrees
 There are       25 alpha and       24 beta electrons
 Requested basis set is 6-31+G(d,p)
 There are 53 shells and 163 basis functions

 Total QAlloc Memory Limit   8000 MB
 Mega-Array Size      1956 MB
 MEM_STATIC part      2000 MB

                       Distance Matrix (Angstroms)
             C (  1)   C (  2)   C (  3)   C (  4)   C (  5)   N (  6)
   C (  2)  1.482454
   C (  3)  2.581534  1.519305
   C (  4)  2.700444  2.253912  1.522024
   C (  5)  2.259838  2.699560  2.567900  1.482611
   N (  6)  1.332850  2.461999  2.992608  2.462589  1.332868
   H (  7)  1.087482  2.237771  3.529051  3.785933  3.246025  2.076261
   H (  8)  2.201240  1.088284  2.227470  3.260636  3.783229  3.405690
   H (  9)  3.519673  2.383565  1.080437  2.384965  3.498315  3.967617
   H ( 10)  3.784036  3.260778  2.233103  1.088228  2.201473  3.406172
   H ( 11)  3.245885  3.785065  3.494120  2.237809  1.087531  2.076049
   C ( 12)  2.567843  1.521860  1.462282  1.519097  2.580708  2.992144
   H ( 13)  3.498091  2.384899  2.343694  2.383064  3.518684  3.966986
             H (  7)   H (  8)   H (  9)   H ( 10)   H ( 11)   C ( 12)
   H (  8)  2.525531
   H (  9)  4.372848  2.749132
   H ( 10)  4.870221  4.191787  2.754906
   H ( 11)  4.139823  4.869412  4.313976  2.525688
   C ( 12)  3.494309  2.232962  2.343876  2.227821  3.528580
   H ( 13)  4.314151  2.754973  2.958413  2.749266  4.372339  1.080393

 
 A cutoff of  1.0D-14 yielded   1391 shell pairs
 There are     13471 function pairs
 
 -------------------------------------------------------
 OpenMP Integral Computing Module                       
 Release: version 1.0, May 2013, Q-Chem Inc. Pittsburgh 
 -------------------------------------------------------
 Integral Job Info:
 Integral job number is                      11
 Integral operator is                         1
 short-range coefficients                     0
 long-range coefficients              100000000
 Omega coefficients                           0
 if combine SR and LR in K                    0
 Integral screening is                        0
 Integral computing path is                   2
 max size of driver memory is            800000
 size of driver memory is                593474
 size of scratch memory is              2361544
 max col of scratch BK array               1296
 max len of scratch array in speh3          155
 max len of scratch index in speh4           18
 max int batch size is                      520
 min int batch size is                       52
 fixed nKL is                                52
 max L of basis functions is                  2
 order of int derivative is                   0
 number of shells is                         53
 number of basis is                         163
 number of cartesian basis is               163
 number of contracted shell pairs          1391
 number of primitive shell pairs           4772
 maxK2 (contraction) of shell pair           36
 max number of K2 of shell pair               1
 max number of CS2 of shell pair            126
 max number of PS2 of shell pair            660
 mem total for path MDJ                  535308
 -------------------------------------------------------
 Smallest overlap matrix eigenvalue = 4.90E-05

 Scale SEOQF with 1.000000e-01/1.000000e-01/1.000000e-01

 Standard Electronic Orientation quadrupole field applied
 Nucleus-field energy     =     0.0000000044 hartrees
 Guess MOs from core Hamiltonian diagonalization
 Mixing HOMO and LUMO in initial guess
 Adding  50% of the LUMO to the HOMO
 An unrestricted hybrid HF-DFT SCF calculation will be
 performed using Pulay DIIS extrapolation
 Exchange:     0.2000 Hartree-Fock + 0.0800 Slater + 0.7200 B88
 Correlation:  0.1900 VWN1RPA + 0.8100 LYP
 Using SG-1 standard quadrature grid
 SCF converges when DIIS error is below 1.0E-08
 using 4 threads for integral computing
 -------------------------------------------------------
 OpenMP Integral computing Module                
 Release: version 1.0, May 2013, Q-Chem Inc. Pittsburgh 
 -------------------------------------------------------
 -------------------------------------------------------
 OpenMP BLAS3 based DFT computing Module                
 Release: version 1.0, May 2013, Q-Chem Inc. Pittsburgh 
 -------------------------------------------------------
 ---------------------------------------
  Cycle       Energy         DIIS Error
 ---------------------------------------
    1    -240.0942028094      9.44E-02
    2    -218.7854610941      6.84E-02
    3    -275.5207726630      5.14E-02
    4    -263.1141815539      7.65E-02
    5    -285.3432239149      1.99E-02
    6    -286.1843242423      1.45E-02
    7    -286.6675376473      8.01E-03
    8    -286.8191421645      4.12E-03
    9    -286.8761127710      8.53E-04
   10    -286.8782111808      5.21E-04
   11    -286.8792423833      6.84E-05
   12    -286.8792941261      1.97E-05
   13    -286.8793064543      1.03E-05
   14    -286.8793111496      6.47E-06
   15    -286.8793122008      1.28E-06
   16    -286.8793122375      4.45E-07
   17    -286.8793122422      1.79E-07
   18    -286.8793122428      1.01E-07
   19    -286.8793122430      2.05E-08
   20    -286.8793122430      5.44E-09 Convergence criterion met
 ---------------------------------------
 <S^2> = 0.7726
 SCF time:  CPU 100.03 s  wall 27.01 s
 SCF   energy in the final basis set = -286.87931224
 Total energy in the final basis set = -286.87931224
 
 --------------------------------------------------------------
 
                    Orbital Energies (a.u.)
 --------------------------------------------------------------
 
 Alpha MOs
 -- Occupied --
-14.331 -10.226 -10.226 -10.226 -10.225 -10.225 -10.225  -0.970
 -0.907  -0.760  -0.652  -0.645  -0.597  -0.553  -0.490  -0.482
 -0.473  -0.417  -0.405  -0.373  -0.348  -0.310  -0.309  -0.239
 -0.184
 -- Virtual --
 -0.009  -0.001   0.017   0.023   0.030   0.044   0.053   0.062
  0.064   0.077   0.087   0.095   0.097   0.114   0.116   0.118
  0.123   0.143   0.147   0.149   0.162   0.173   0.179   0.186
  0.193   0.198   0.211   0.224   0.228   0.236   0.251   0.258
  0.259   0.269   0.309   0.309   0.313   0.317   0.322   0.324
  0.344   0.368   0.455   0.474   0.632   0.638   0.641   0.661
  0.675   0.711   0.736   0.740   0.745   0.751   0.784   0.786
  0.820   0.839   0.860   0.903   0.936   0.954   0.958   0.977
  1.011   1.023   1.044   1.088   1.113   1.136   1.153   1.155
  1.193   1.205   1.326   1.354   1.401   1.402   1.467   1.505
  1.545   1.562   1.594   1.653   1.729   1.775   1.789   1.810
  1.849   1.906   1.940   1.958   1.983   2.078   2.079   2.162
  2.165   2.175   2.195   2.272   2.334   2.348   2.367   2.395
  2.410   2.419   2.436   2.478   2.513   2.531   2.545   2.555
  2.598   2.608   2.614   2.660   2.677   2.705   2.762   2.882
  2.911   2.928   2.962   3.141   3.149   3.277   3.295   3.425
  3.521   3.570   3.684   4.171   4.315   4.400   4.600   4.606
  4.712   4.740
 
 Beta MOs
 -- Occupied --
-14.334 -10.226 -10.226 -10.223 -10.223 -10.218 -10.218  -0.966
 -0.905  -0.748  -0.641  -0.640  -0.592  -0.550  -0.484  -0.476
 -0.472  -0.413  -0.387  -0.370  -0.333  -0.309  -0.305  -0.239
 -- Virtual --
 -0.080  -0.001   0.001   0.017   0.024   0.038   0.045   0.053
  0.062   0.065   0.079   0.087   0.097   0.106   0.114   0.117
  0.118   0.130   0.144   0.148   0.151   0.163   0.173   0.181
  0.192   0.196   0.199   0.211   0.231   0.232   0.238   0.250
  0.264   0.265   0.269   0.310   0.311   0.316   0.318   0.328
  0.329   0.345   0.372   0.459   0.479   0.637   0.643   0.660
  0.662   0.680   0.738   0.745   0.746   0.754   0.756   0.788
  0.788   0.824   0.846   0.862   0.909   0.939   0.955   0.958
  0.980   1.006   1.024   1.044   1.086   1.126   1.142   1.155
  1.155   1.195   1.207   1.339   1.355   1.408   1.417   1.475
  1.508   1.559   1.570   1.595   1.664   1.735   1.777   1.793
  1.813   1.863   1.907   1.950   1.966   1.987   2.080   2.080
  2.167   2.170   2.189   2.210   2.275   2.334   2.354   2.371
  2.398   2.413   2.430   2.436   2.480   2.526   2.537   2.549
  2.566   2.600   2.610   2.626   2.665   2.685   2.713   2.762
  2.883   2.913   2.932   2.966   3.143   3.152   3.278   3.297
  3.427   3.523   3.572   3.686   4.167   4.329   4.409   4.604
  4.610   4.721   4.744
 --------------------------------------------------------------
 
          Ground-State Mulliken Net Atomic Charges

     Atom                 Charge (a.u.)    Spin (a.u.)
  --------------------------------------------------------
      1 C                    -0.101392       0.605726
      2 C                    -0.172008      -0.050501
      3 C                    -0.014257       0.081275
      4 C                    -0.172489      -0.050531
      5 C                    -0.101130       0.605669
      6 N                    -0.216479      -0.201906
      7 H                     0.124288      -0.032282
      8 H                     0.130333       0.000802
      9 H                     0.141411      -0.003995
     10 H                     0.130394       0.000801
     11 H                     0.124249      -0.032284
     12 C                    -0.014388       0.081219
     13 H                     0.141469      -0.003992
  --------------------------------------------------------
  Sum of atomic charges =    -0.000000
  Sum of spin   charges =     1.000000

 -----------------------------------------------------------------
                    Cartesian Multipole Moments
 -----------------------------------------------------------------
    Charge (ESU x 10^10)
                -0.0000
    Dipole Moment (Debye)
         X      -1.5224      Y      -2.7035      Z       0.9831
       Tot       3.2547
    Quadrupole Moments (Debye-Ang)
        XX     -38.5108     XY      -3.9786     YY     -43.4047
        XZ       0.5398     YZ       0.7907     ZZ     -42.9211
    Octopole Moments (Debye-Ang^2)
       XXX     -10.4498    XXY     -10.6272    XYY     -14.1551
       YYY     -33.3846    XXZ       2.7653    XYZ       2.1170
       YYZ       4.8131    XZZ      -6.9275    YZZ     -11.9819
       ZZZ      12.7613
    Hexadecapole Moments (Debye-Ang^3)
      XXXX    -275.0288   XXXY     -22.7540   XXYY    -110.8840
      XYYY     -41.1558   YYYY    -354.0422   XXXZ      16.8769
      XXYZ      14.4500   XYYZ      16.4845   YYYZ      43.1751
      XXZZ     -75.1074   XYZZ      -5.3674   YYZZ     -80.9252
      XZZZ      19.9513   YZZZ      34.5717   ZZZZ    -126.2008
 -----------------------------------------------------------------
Archival summary:
1\1\c8-90\SP\ProcedureUnspecified\6-31+G**\166(2)\hpark21\ThuMar307:12:552022ThuMar307:12:552022\0\\#,ProcedureUnspecified,6-31+G**,\\0,2\N\C,1,1.33285\H,2,1.08748,1,117.794\C,1,1.33287,2,115.934,3,-177.629,0\H,4,1.08753,1,117.769,2,-177.561,0\C,2,1.48245,1,121.883,3,178.827,0\H,6,1.08828,2,116.971,1,178.372,0\C,4,1.48261,1,121.92,2,1.17908,0\H,8,1.08823,4,116.983,1,178.401,0\C,8,1.5191,4,118.571,1,30.6348,0\H,10,1.08039,8,132.181,4,129.316,0\C,10,1.46228,8,61.3606,4,-105.962,0\H,12,1.08044,10,133.828,8,-122.135,0\\\@

 Total job time:  28.13s(wall), 101.90s(cpu) 
 Thu Mar  3 07:12:55 2022

        *************************************************************
        *                                                           *
        *  Thank you very much for using Q-Chem.  Have a nice day.  *
        *                                                           *
        *************************************************************


