13   
Frame  89 IRC: Energy =  -286.8568830000 ; +14.0744 kcal/mol
C        1.2495551699    0.3389750283    0.1778005905
C        0.6708581651   -1.0453487099   -0.2388912651
C       -0.6712172310   -0.9027659458   -0.8204916817
C       -1.0485186997    0.2218108601    0.1562543388
C       -0.4927988167    1.4836210039   -0.4886893422
N        0.7887234714    1.5232100901   -0.5168968377
H        2.2837461598    0.3299321067    0.5034090820
H        1.3325875695   -1.9022636840   -0.3014600992
H       -1.3209131627   -1.7213484572   -1.1058995740
H       -2.0604529468    0.2553746251    0.5591483988
H       -1.0992199296    2.2288862140   -1.0000479475
C        0.1717115744   -0.2616104887    1.0145504969
H        0.1959386762   -0.5484726424    2.0612138403
