
Running Job 1 of 1 qcirc.in
qchem qcirc.in_11481.0 ./qcirc.d/ 1
/home/leeping/opt/qchem/5.0.2-openmp/exe/qcprog.exe_s qcirc.in_11481.0 ./qcirc.d/
Check license passed

                  Welcome to Q-Chem
     A Quantum Leap Into The Future Of Chemistry


 Q-Chem 5.0, Q-Chem, Inc., Pleasanton, CA (2017)

 Yihan Shao,  Zhengting Gan,  E. Epifanovsky,  A. T. B. Gilbert,  M. Wormit,  
 J. Kussmann,  A. W. Lange,  A. Behn,  Jia Deng,  Xintian Feng,  D. Ghosh,  
 M. Goldey,  P. R. Horn,  L. D. Jacobson,  I. Kaliman,  T. Kus,  A. Landau,  
 Jie Liu,  E. I. Proynov,  R. M. Richard,  R. P. Steele,  E. J. Sundstrom,  
 H. L. Woodcock III,  P. M. Zimmerman,  D. Zuev,  B. Albrecht,  E. Alguire,  
 S. A. Baeppler,  D. Barton,  Z. Benda,  Y. A. Bernard,  E. J. Berquist,  
 K. B. Bravaya,  H. Burton,  D. Casanova,  Chun-Min Chang,  Yunqing Chen,  
 A. Chien,  K. D. Closser,  M. P. Coons,  S. Dasgupta,  A. L. Dempwolff,  
 M. Diedenhofen,  Hainam Do,  R. G. Edgar,  Po-Tung Fang,  S. Fatehi,  
 Qingguo Feng,  J. Fosso-Tande,  Qinghui Ge,  A. Ghysels,  G. Gidofalvi,  
 J. Gomes,  J. Gonthier,  A. Gunina,  M. W. D. Hanson-Heine,  
 P. H. P. Harbach,  A. W. Hauser,  J. E. Herr,  E. G. Hohenstein,  
 Z. C. Holden,  Kerwin Hui,  T.-C. Jagau,  Hyunjun Ji,  B. Kaduk,  
 K. Khistyaev,  Jaehoon Kim,  P. Klunzinger,  K. Koh,  D. Kosenkov,  
 L. Koulias,  T. Kowalczyk,  C. M. Krauter,  A. Kunitsa,  Ka Un Lao,  
 A. Laurent,  K. V. Lawler,  Joonho Lee,  D. Lefrancois,  S. Lehtola,  
 D. S. Levine,  Yi-Pei Li,  You-Sheng Lin,  Fenglai Liu,  E. Livshits,  
 A. Luenser,  P. Manohar,  E. Mansoor,  S. F. Manzer,  Shan-Ping Mao,  
 Yuezhi Mao,  N. Mardirossian,  A. V. Marenich,  T. Markovich,  
 L. A. Martinez-Martinez,  S. A. Maurer,  N. J. Mayhall,  S. C. McKenzie,  
 J.-M. Mewes,  A. F. Morrison,  J. W. Mullinax,  K. Nanda,  
 T. S. Nguyen-Beck,  R. Olivares-Amaya,  J. A. Parkhill,  T. M. Perrine,  
 F. Plasser,  S. Prager,  A. Prociuk,  E. Ramos,  D. R. Rehn,  F. Rob,  
 M. Schneider,  N. Sergueev,  S. M. Sharada,  S. Sharma,  D. W. Small,  
 T. Stauch,  T. Stein,  Yu-Chuan Su,  A. J. W. Thom,  A. Tkatchenko,  
 T. Tsuchimochi,  L. Vogt,  O. Vydrov,  M. A. Watson,  J. Wenzel,  
 M. de Wergifosse,  T. A. Wesolowski,  A. White,  J. Witte,  A. Yamada,  
 Jun Yang,  K. Yao,  S. Yeganeh,  S. R. Yost,  Zhi-Qiang You,  A. Zech,  
 Igor Ying Zhang,  Xing Zhang,  Yan Zhao,  Ying Zhu,  B. R. Brooks,  
 G. K. L. Chan,  C. J. Cramer,  M. S. Gordon,  W. J. Hehre,  A. Klamt,  
 M. W. Schmidt,  C. D. Sherrill,  D. G. Truhlar,  A. Aspuru-Guzik,  R. Baer,  
 A. T. Bell,  N. A. Besley,  Jeng-Da Chai,  R. A. DiStasio Jr.,  A. Dreuw,  
 B. D. Dunietz,  T. R. Furlani,  Chao-Ping Hsu,  Yousung Jung,  Jing Kong,  
 D. S. Lambrecht,  WanZhen Liang,  C. Ochsenfeld,  V. A. Rassolov,  
 L. V. Slipchenko,  J. E. Subotnik,  T. Van Voorhis,  J. M. Herbert,  
 A. I. Krylov,  P. M. W. Gill,  M. Head-Gordon

 Contributors to earlier versions of Q-Chem not listed above: 
 R. D. Adamson,  B. Austin,  J. Baker,  G. J. O. Beran,  K. Brandhorst,  
 S. T. Brown,  E. F. C. Byrd,  A. K. Chakraborty,  C.-L. Cheng,  
 Siu Hung Chien,  D. M. Chipman,  D. L. Crittenden,  H. Dachsel,  
 R. J. Doerksen,  A. D. Dutoi,  L. Fusti-Molnar,  W. A. Goddard III,  
 A. Golubeva-Zadorozhnaya,  S. R. Gwaltney,  G. Hawkins,  A. Heyden,  
 S. Hirata,  G. Kedziora,  F. J. Keil,  C. Kelley,  Jihan Kim,  R. A. King,  
 R. Z. Khaliullin,  P. P. Korambath,  W. Kurlancheek,  A. M. Lee,  M. S. Lee,  
 S. V. Levchenko,  Ching Yeh Lin,  D. Liotard,  R. C. Lochan,  I. Lotan,  
 P. E. Maslen,  N. Nair,  D. P. O'Neill,  D. Neuhauser,  E. Neuscamman,  
 C. M. Oana,  R. Olson,  B. Peters,  R. Peverati,  P. A. Pieniazek,  
 Y. M. Rhee,  J. Ritchie,  M. A. Rohrdanz,  E. Rosta,  N. J. Russ,  
 H. F. Schaefer III,  N. E. Schultz,  N. Shenvi,  A. C. Simmonett,  A. Sodt,  
 D. Stuck,  K. S. Thanthiriwatte,  V. Vanovschi,  Tao Wang,  A. Warshel,  
 C. F. Williams,  Q. Wu,  X. Xu,  W. Zhang

 Please cite Q-Chem as follows:
 Y. Shao et al., Mol. Phys. 113, 184-215 (2015)
 DOI: 10.1080/00268976.2014.952696

 Q-Chem 5.0.2 for Intel X86 EM64T Linux

 Parts of Q-Chem use Armadillo 5.200.1 (Boston Tea Smuggler).
 http://arma.sourceforge.net/

 Q-Chem begins on Thu Mar  3 03:54:07 2022  

Host: 
0

     Scratch files written to ./qcirc.d//
 Dec517 15110_ 26548  26544 5633   
Processing $rem in /home/leeping/opt/qchem/5.0.2-openmp/config/preferences.
 MEM_STATIC 2000
 MEM_TOTAL  8000
 SYMMETRY   OFF
 SYM_IGNORE TRUE 

Checking the input file for inconsistencies... 	...done.

--------------------------------------------------------------
User input:
--------------------------------------------------------------
$molecule
0 2
C        1.3753758541    0.3969482137   -0.0639618535
C        0.7603872189   -0.9539701218   -0.2805048926
C       -0.6747272642   -0.9554674551   -0.6844018817
C       -1.0635046515    0.3359837711    0.1091190986
C       -0.4690142653    1.5472433738   -0.4949097924
N        0.8375368022    1.5652285722   -0.5313411733
H        2.3707947868    0.4106219006    0.3684677189
H        1.3727962332   -1.8485253915   -0.2561169097
H       -1.2313563220   -1.8768831266   -0.5152154619
H       -2.0812147576    0.3925018213    0.4892913312
H       -1.0557630129    2.3561733827   -0.9190907797
C       -0.0009257587   -0.4294013513    0.9066865037
H       -0.1624268971   -0.9492570952    1.8488115144
$end

$rem
method                b3lyp
basis                 6-31+g(d,p)
unrestricted          true
symmetry              off
sym_ignore            true
incdft                false
incfock               0
scf_convergence       8
thresh                14
jobtype               rpath
scf_guess             core
scf_guess_mix         5
scf_algorithm         diis
max_scf_cycles        100
rpath_direction       1
rpath_tol_displacement 1000
rpath_max_cycles      50
geom_opt_max_cycles   300
geom_opt_hessian      read
$end

--------------------------------------------------------------
 ----------------------------------------------------------------
             Standard Nuclear Orientation (Angstroms)
    I     Atom           X                Y                Z
 ----------------------------------------------------------------
    1      C       1.3753758541     0.3969482137    -0.0639618535
    2      C       0.7603872189    -0.9539701218    -0.2805048926
    3      C      -0.6747272642    -0.9554674551    -0.6844018817
    4      C      -1.0635046515     0.3359837711     0.1091190986
    5      C      -0.4690142653     1.5472433738    -0.4949097924
    6      N       0.8375368022     1.5652285722    -0.5313411733
    7      H       2.3707947868     0.4106219006     0.3684677189
    8      H       1.3727962332    -1.8485253915    -0.2561169097
    9      H      -1.2313563220    -1.8768831266    -0.5152154619
   10      H      -2.0812147576     0.3925018213     0.4892913312
   11      H      -1.0557630129     2.3561733827    -0.9190907797
   12      C      -0.0009257587    -0.4294013513     0.9066865037
   13      H      -0.1624268971    -0.9492570952     1.8488115144
 ----------------------------------------------------------------
 Nuclear Repulsion Energy =   280.5307646894 hartrees
 There are       25 alpha and       24 beta electrons
 Requested basis set is 6-31+G(d,p)
 There are 53 shells and 163 basis functions

 Total QAlloc Memory Limit   8000 MB
 Mega-Array Size      1956 MB
 MEM_STATIC part      2000 MB
 Starting direction for rxn path = 1

                       Distance Matrix (Angstroms)
             C (  1)   C (  2)   C (  3)   C (  4)   C (  5)   N (  6)
   C (  2)  1.500027
   C (  3)  2.533159  1.490868
   C (  4)  2.445774  2.267679  1.564823
   C (  5)  2.216003  2.795258  2.518290  1.478316
   N (  6)  1.368427  2.532831  2.943515  2.352699  1.307183
   H (  7)  1.085376  2.208323  3.499991  3.444887  3.178340  2.119824
   H (  8)  2.253682  1.084375  2.274496  3.292573  3.870469  3.466406
   H (  9)  3.488408  2.207691  1.089709  2.305374  3.508022  4.016057
   H ( 10)  3.500590  3.237325  2.274376  1.087869  2.213881  3.306976
   H ( 11)  3.237321  3.829261  3.341741  2.266813  1.085620  2.088188
   C ( 12)  1.875958  1.504724  1.806188  1.533298  2.467935  2.597978
   H ( 13)  2.799251  2.320689  2.584504  2.343142  3.437956  3.603844
             H (  7)   H (  8)   H (  9)   H ( 10)   H ( 11)   C ( 12)
   H (  8)  2.547519
   H (  9)  4.357645  2.617164
   H ( 10)  4.453686  4.184260  2.623243
   H ( 11)  4.145392  4.900707  4.255904  2.625090
   C ( 12)  2.573009  2.291972  2.372966  2.275378  3.493647
   H ( 13)  3.233868  2.756142  2.755308  2.707464  4.402863  1.088086

 
 A cutoff of  1.0D-14 yielded   1398 shell pairs
 There are     13494 function pairs
 
 -------------------------------------------------------
 OpenMP Integral Computing Module                       
 Release: version 1.0, May 2013, Q-Chem Inc. Pittsburgh 
 -------------------------------------------------------
 Integral Job Info:
 Integral job number is                      11
 Integral operator is                         1
 short-range coefficients                     0
 long-range coefficients              100000000
 Omega coefficients                           0
 if combine SR and LR in K                    0
 Integral screening is                        0
 Integral computing path is                   2
 max size of driver memory is            800000
 size of driver memory is                593474
 size of scratch memory is              2361544
 max col of scratch BK array               1296
 max len of scratch array in speh3          155
 max len of scratch index in speh4           18
 max int batch size is                      520
 min int batch size is                       52
 fixed nKL is                                52
 max L of basis functions is                  2
 order of int derivative is                   0
 number of shells is                         53
 number of basis is                         163
 number of cartesian basis is               163
 number of contracted shell pairs          1398
 number of primitive shell pairs           4820
 maxK2 (contraction) of shell pair           36
 max number of K2 of shell pair               1
 max number of CS2 of shell pair            126
 max number of PS2 of shell pair            708
 mem total for path MDJ                  535308
 -------------------------------------------------------
 Smallest overlap matrix eigenvalue = 4.01E-05

 Scale SEOQF with 1.000000e-01/1.000000e-01/1.000000e-01

 Standard Electronic Orientation quadrupole field applied
 Nucleus-field energy     =     0.0000000040 hartrees
 Guess MOs from core Hamiltonian diagonalization
 Mixing HOMO and LUMO in initial guess
 Adding  50% of the LUMO to the HOMO
 An unrestricted hybrid HF-DFT SCF calculation will be
 performed using Pulay DIIS extrapolation
 Exchange:     0.2000 Hartree-Fock + 0.0800 Slater + 0.7200 B88
 Correlation:  0.1900 VWN1RPA + 0.8100 LYP
 Using SG-1 standard quadrature grid
 SCF converges when DIIS error is below 1.0E-08
 using 4 threads for integral computing
 -------------------------------------------------------
 OpenMP Integral computing Module                
 Release: version 1.0, May 2013, Q-Chem Inc. Pittsburgh 
 -------------------------------------------------------
 -------------------------------------------------------
 OpenMP BLAS3 based DFT computing Module                
 Release: version 1.0, May 2013, Q-Chem Inc. Pittsburgh 
 -------------------------------------------------------
 ---------------------------------------
  Cycle       Energy         DIIS Error
 ---------------------------------------
    1    -236.9997037351      9.66E-02
    2    -213.5492593076      7.04E-02
    3    -261.8799853109      7.00E-02
    4    -273.6477452073      5.97E-02
    5    -278.5194550216      4.05E-02
    6    -285.0242582950      2.08E-02
    7    -285.7781992011      1.58E-02
    8    -286.5072521551      8.40E-03
    9    -286.7572706393      3.94E-03
   10    -286.8003362072      1.88E-03
   11    -286.8114687146      6.91E-04
   12    -286.8135773847      1.72E-04
   13    -286.8139078477      1.11E-04
   14    -286.8140911255      4.98E-05
   15    -286.8141486621      2.82E-05
   16    -286.8141617552      8.09E-06
   17    -286.8141633268      2.96E-06
   18    -286.8141634328      6.90E-07
   19    -286.8141634441      1.42E-07
   20    -286.8141634459      6.81E-08
   21    -286.8141634464      2.12E-08
   22    -286.8141634465      6.94E-09 Convergence criterion met
 ---------------------------------------
 <S^2> = 0.7751
 SCF time:  CPU 113.24 s  wall 38.86 s
 SCF   energy in the final basis set = -286.81416345
 Total energy in the final basis set = -286.81416345
 
 --------------------------------------------------------------
 
                    Orbital Energies (a.u.)
 --------------------------------------------------------------
 
 Alpha MOs
 -- Occupied --
-14.331 -10.252 -10.246 -10.232 -10.230 -10.228 -10.219  -0.979
 -0.888  -0.767  -0.655  -0.636  -0.613  -0.557  -0.506  -0.461
 -0.450  -0.433  -0.422  -0.380  -0.374  -0.321  -0.280  -0.257
 -0.136
 -- Virtual --
 -0.034  -0.008   0.015   0.016   0.027   0.038   0.052   0.053
  0.065   0.069   0.074   0.096   0.098   0.102   0.109   0.111
  0.120   0.129   0.142   0.149   0.157   0.166   0.172   0.183
  0.187   0.200   0.207   0.217   0.231   0.240   0.244   0.250
  0.253   0.266   0.280   0.284   0.307   0.317   0.325   0.340
  0.360   0.365   0.437   0.461   0.616   0.621   0.638   0.672
  0.692   0.705   0.719   0.739   0.746   0.753   0.771   0.791
  0.808   0.839   0.873   0.891   0.918   0.928   0.960   0.977
  0.997   1.019   1.038   1.070   1.084   1.104   1.135   1.149
  1.179   1.223   1.304   1.340   1.358   1.404   1.444   1.483
  1.520   1.588   1.593   1.679   1.708   1.736   1.808   1.837
  1.861   1.905   1.940   1.982   2.038   2.061   2.100   2.161
  2.176   2.190   2.264   2.267   2.297   2.340   2.363   2.365
  2.415   2.423   2.453   2.491   2.511   2.517   2.537   2.554
  2.577   2.593   2.627   2.649   2.678   2.708   2.713   2.754
  2.824   2.881   2.959   3.081   3.109   3.288   3.312   3.375
  3.446   3.502   3.673   4.193   4.382   4.456   4.531   4.582
  4.654   4.705
 
 Beta MOs
 -- Occupied --
-14.331 -10.253 -10.243 -10.228 -10.227 -10.224 -10.215  -0.974
 -0.883  -0.760  -0.648  -0.627  -0.610  -0.553  -0.501  -0.458
 -0.444  -0.430  -0.412  -0.374  -0.366  -0.303  -0.273  -0.247
 -- Virtual --
 -0.051  -0.019  -0.007   0.015   0.020   0.029   0.040   0.053
  0.060   0.065   0.072   0.076   0.096   0.098   0.103   0.110
  0.112   0.122   0.131   0.143   0.152   0.158   0.167   0.174
  0.184   0.190   0.201   0.211   0.218   0.233   0.245   0.247
  0.251   0.256   0.269   0.283   0.290   0.309   0.320   0.328
  0.343   0.365   0.371   0.442   0.467   0.620   0.626   0.641
  0.669   0.698   0.719   0.731   0.747   0.751   0.758   0.776
  0.797   0.814   0.844   0.881   0.895   0.922   0.931   0.962
  0.979   1.002   1.021   1.039   1.073   1.086   1.109   1.142
  1.155   1.185   1.227   1.310   1.347   1.365   1.406   1.451
  1.488   1.525   1.594   1.600   1.683   1.717   1.745   1.823
  1.841   1.866   1.909   1.944   1.986   2.045   2.065   2.110
  2.168   2.182   2.195   2.269   2.273   2.303   2.343   2.369
  2.373   2.418   2.426   2.457   2.497   2.518   2.520   2.544
  2.568   2.584   2.597   2.634   2.656   2.683   2.711   2.717
  2.759   2.828   2.885   2.964   3.084   3.111   3.289   3.313
  3.380   3.448   3.504   3.676   4.195   4.389   4.471   4.536
  4.590   4.655   4.709
 --------------------------------------------------------------
 
          Ground-State Mulliken Net Atomic Charges

     Atom                 Charge (a.u.)    Spin (a.u.)
  --------------------------------------------------------
      1 C                    -0.247439       0.247554
      2 C                    -0.063087       0.044547
      3 C                    -0.144348       0.606341
      4 C                    -0.261756      -0.043696
      5 C                     0.015136       0.245486
      6 N                    -0.198751      -0.006407
      7 H                     0.142863      -0.009168
      8 H                     0.150855      -0.007301
      9 H                     0.152874      -0.004922
     10 H                     0.139622      -0.002858
     11 H                     0.128425      -0.013456
     12 C                     0.036779      -0.071044
     13 H                     0.148827       0.014924
  --------------------------------------------------------
  Sum of atomic charges =    -0.000000
  Sum of spin   charges =     1.000000

 -----------------------------------------------------------------
                    Cartesian Multipole Moments
 -----------------------------------------------------------------
    Charge (ESU x 10^10)
                -0.0000
    Dipole Moment (Debye)
         X      -1.0665      Y      -2.7089      Z       1.8883
       Tot       3.4700
    Quadrupole Moments (Debye-Ang)
        XX     -39.0287     XY      -4.7508     YY     -43.6321
        XZ       0.7080     YZ      -0.5694     ZZ     -44.3312
    Octopole Moments (Debye-Ang^2)
       XXX      -9.6244    XXY     -10.5145    XYY     -12.1953
       YYY     -34.5946    XXZ       8.7153    XYZ       4.1045
       YYZ       5.7860    XZZ      -4.5195    YZZ      -8.9858
       ZZZ      22.3418
    Hexadecapole Moments (Debye-Ang^3)
      XXXX    -249.0394   XXXY     -15.5071   XXYY    -103.2354
      XYYY     -32.8684   YYYY    -349.6997   XXXZ       3.7215
      XXYZ      10.2089   XYYZ       8.5831   YYYZ      22.7910
      XXZZ     -72.1888   XYZZ      -8.0265   YYZZ     -82.7887
      XZZZ      -2.0849   YZZZ      16.0957   ZZZZ    -141.4160
 -----------------------------------------------------------------
 Calculating analytic gradient of the SCF energy
 Gradient of SCF Energy
            1           2           3           4           5           6
    1   0.0000053  -0.0000231  -0.0000187   0.0000121   0.0000096   0.0000007
    2  -0.0000137  -0.0000044   0.0000039   0.0000034   0.0000027  -0.0000063
    3  -0.0000182   0.0000145  -0.0000032   0.0000136  -0.0000017  -0.0000180
            7           8           9          10          11          12
    1   0.0000082  -0.0000188  -0.0000218   0.0000095   0.0000093   0.0000155
    2  -0.0000182  -0.0000128   0.0000069   0.0000198   0.0000045   0.0000048
    3  -0.0000302  -0.0000087   0.0000247   0.0000226   0.0000000  -0.0000037
           13
    1   0.0000123
    2   0.0000095
    3   0.0000081
 Max gradient component =       3.016E-05
 RMS gradient           =       1.359E-05
 Gradient time:  CPU 17.29 s  wall 4.45 s
rPathMan2.  file_steps = 951
 ------------------------------------------------------------------------
 Reaction path following.  The coordinates are cartesian              
 Step   1 E=    -286.814163 |G|=  0.000085 S_lin= 0.0000 S_tot= 0.0000
 ------------------------------------------------------------------------
 IRC -- neg. force constant =  -0.322606241893337     
 IRC -- max trans/rot const =   7.801524079312050E-005
 In first_irc_step: ISign =            1
 ----------------------------------------------------------------
             Standard Nuclear Orientation (Angstroms)
    I     Atom           X                Y                Z
 ----------------------------------------------------------------
    1      C       1.3950907878     0.4084070186    -0.1004247231
    2      C       0.7719355689    -0.9418321081    -0.2767756560
    3      C      -0.6683386443    -0.9571731727    -0.6442898081
    4      C      -1.0643103693     0.3450526546     0.1071008659
    5      C      -0.4721246478     1.5496652002    -0.4961663534
    6      N       0.8465593532     1.5645461990    -0.5241435288
    7      H       2.3742723444     0.4127046853     0.3671091544
    8      H       1.3727653398    -1.8464119553    -0.2539078252
    9      H      -1.2312268328    -1.8794859290    -0.5175787694
   10      H      -2.0818333210     0.3933894906     0.4887548115
   11      H      -1.0564038127     2.3576663569    -0.9190241860
   12      C      -0.0354012427    -0.4571056264     0.8981774465
   13      H      -0.1730265576    -0.9582263197     1.8480019937
 ----------------------------------------------------------------
 Nuclear Repulsion Energy =   280.6942550895 hartrees
 There are       25 alpha and       24 beta electrons

                       Distance Matrix (Angstroms)
             C (  1)   C (  2)   C (  3)   C (  4)   C (  5)   N (  6)
   C (  2)  1.497521
   C (  3)  2.533444  1.486503
   C (  4)  2.468954  2.274914  1.554726
   C (  5)  2.223865  2.793453  2.518865  1.471634
   N (  6)  1.347992  2.519661  2.944218  2.353095  1.319065
   H (  7)  1.085082  2.194730  3.486685  3.449063  3.184321  2.110682
   H (  8)  2.260147  1.086179  2.260365  3.297299  3.872422  3.461872
   H (  9)  3.507993  2.224824  1.087915  2.316605  3.512232  4.022263
   H ( 10)  3.526522  3.242353  2.259597  1.087819  2.213189  3.312560
   H ( 11)  3.237212  3.826486  3.348766  2.259117  1.083077  2.099104
   C ( 12)  1.947467  1.505745  1.740656  1.525750  2.482348  2.624486
   H ( 13)  2.850096  2.325490  2.541034  2.350247  3.445882  3.609849
             H (  7)   H (  8)   H (  9)   H ( 10)   H ( 11)   C ( 12)
   H (  8)  2.547997
   H (  9)  4.363076  2.617516
   H ( 10)  4.457808  4.183600  2.627204
   H ( 11)  4.148078  4.900767  4.259716  2.625211
   C ( 12)  2.616320  2.289193  2.336136  2.253631  3.502515
   H ( 13)  3.249804  2.756152  2.750360  2.705173  4.408167  1.082695

 
 Applying Cartesian multipole field
    Component          Value
    ---------          -----
     (2,0,0)        1.00000E-11
     (0,2,0)        2.00000E-11
     (0,0,2)       -3.00000E-11
 Nucleus-field energy     =     0.0000000041 hartrees
 Requested basis set is 6-31+G(d,p)
 There are 53 shells and 163 basis functions
 A cutoff of  1.0D-14 yielded   1398 shell pairs
 There are     13494 function pairs
 Smallest overlap matrix eigenvalue = 4.09E-05
 Guess MOs from core Hamiltonian diagonalization
 Mixing HOMO and LUMO in initial guess
 Adding  50% of the LUMO to the HOMO
 An unrestricted hybrid HF-DFT SCF calculation will be
 performed using Pulay DIIS extrapolation
 Exchange:     0.2000 Hartree-Fock + 0.0800 Slater + 0.7200 B88
 Correlation:  0.1900 VWN1RPA + 0.8100 LYP
 Using SG-1 standard quadrature grid
 SCF converges when DIIS error is below 1.0E-08
 using 4 threads for integral computing
 -------------------------------------------------------
 OpenMP Integral computing Module                
 Release: version 1.0, May 2013, Q-Chem Inc. Pittsburgh 
 -------------------------------------------------------
 -------------------------------------------------------
 OpenMP BLAS3 based DFT computing Module                
 Release: version 1.0, May 2013, Q-Chem Inc. Pittsburgh 
 -------------------------------------------------------
 ---------------------------------------
  Cycle       Energy         DIIS Error
 ---------------------------------------
    1    -237.3781146927      9.66E-02
    2    -213.4249498738      7.06E-02
    3    -261.3351814981      7.13E-02
    4    -269.4253409086      6.53E-02
    5    -278.2332353772      4.21E-02
    6    -285.0179935340      2.10E-02
    7    -285.6061827655      1.72E-02
    8    -286.4614692942      9.17E-03
    9    -286.7321432710      4.93E-03
   10    -286.8006433194      2.13E-03
   11    -286.8145077511      8.11E-04
   12    -286.8171049818      1.57E-04
   13    -286.8173274760      7.98E-05
   14    -286.8174414393      3.10E-05
   15    -286.8174821318      2.12E-05
   16    -286.8175026226      9.19E-06
   17    -286.8175122896      4.06E-06
   18    -286.8175131320      1.62E-06
   19    -286.8175131942      3.66E-07
   20    -286.8175131998      2.18E-07
   21    -286.8175132014      5.48E-08
   22    -286.8175132017      1.64E-08
   23    -286.8175132017      5.43E-09 Convergence criterion met
 ---------------------------------------
 <S^2> = 0.7730
 SCF time:  CPU 118.23 s  wall 39.91 s
 SCF   energy in the final basis set = -286.81751320
 Total energy in the final basis set = -286.81751320
 
 --------------------------------------------------------------
 
                    Orbital Energies (a.u.)
 --------------------------------------------------------------
 
 Alpha MOs
 -- Occupied --
-14.324 -10.250 -10.240 -10.240 -10.235 -10.232 -10.209  -0.979
 -0.890  -0.768  -0.653  -0.639  -0.614  -0.559  -0.505  -0.463
 -0.453  -0.435  -0.423  -0.381  -0.376  -0.320  -0.277  -0.253
 -0.135
 -- Virtual --
 -0.023  -0.008   0.012   0.015   0.027   0.036   0.050   0.053
  0.065   0.068   0.075   0.096   0.098   0.102   0.110   0.111
  0.120   0.130   0.142   0.151   0.157   0.165   0.172   0.184
  0.187   0.200   0.207   0.216   0.233   0.242   0.245   0.252
  0.256   0.269   0.279   0.287   0.306   0.319   0.328   0.341
  0.359   0.365   0.448   0.473   0.615   0.620   0.633   0.671
  0.693   0.704   0.721   0.739   0.743   0.755   0.773   0.795
  0.810   0.843   0.873   0.891   0.922   0.928   0.961   0.977
  1.001   1.016   1.040   1.074   1.087   1.104   1.130   1.161
  1.180   1.224   1.293   1.328   1.350   1.400   1.447   1.486
  1.521   1.591   1.595   1.680   1.705   1.751   1.826   1.839
  1.849   1.901   1.943   1.969   2.047   2.052   2.116   2.157
  2.165   2.196   2.266   2.274   2.302   2.342   2.365   2.382
  2.406   2.431   2.448   2.487   2.501   2.519   2.553   2.564
  2.579   2.620   2.634   2.661   2.670   2.699   2.722   2.755
  2.840   2.883   2.972   3.094   3.114   3.289   3.319   3.379
  3.448   3.506   3.693   4.203   4.375   4.463   4.543   4.585
  4.649   4.701
 
 Beta MOs
 -- Occupied --
-14.324 -10.251 -10.236 -10.234 -10.234 -10.232 -10.203  -0.974
 -0.886  -0.760  -0.647  -0.629  -0.610  -0.556  -0.500  -0.459
 -0.447  -0.431  -0.413  -0.375  -0.368  -0.302  -0.270  -0.242
 -- Virtual --
 -0.052  -0.012  -0.008   0.015   0.018   0.029   0.041   0.053
  0.059   0.065   0.070   0.078   0.097   0.098   0.103   0.110
  0.112   0.122   0.132   0.144   0.152   0.158   0.166   0.174
  0.185   0.190   0.201   0.211   0.217   0.235   0.245   0.251
  0.253   0.259   0.274   0.282   0.291   0.308   0.322   0.331
  0.344   0.362   0.370   0.453   0.479   0.618   0.624   0.637
  0.669   0.702   0.714   0.738   0.745   0.749   0.761   0.777
  0.802   0.816   0.848   0.879   0.894   0.925   0.932   0.962
  0.980   1.006   1.018   1.041   1.079   1.089   1.109   1.137
  1.165   1.186   1.230   1.298   1.335   1.357   1.402   1.456
  1.493   1.525   1.599   1.602   1.685   1.713   1.756   1.837
  1.845   1.855   1.905   1.948   1.974   2.054   2.055   2.124
  2.167   2.168   2.201   2.273   2.280   2.306   2.345   2.370
  2.389   2.409   2.435   2.451   2.493   2.509   2.524   2.560
  2.572   2.586   2.625   2.640   2.667   2.676   2.705   2.725
  2.760   2.844   2.886   2.976   3.097   3.117   3.290   3.320
  3.383   3.450   3.509   3.696   4.206   4.384   4.475   4.551
  4.590   4.650   4.706
 --------------------------------------------------------------
 
          Ground-State Mulliken Net Atomic Charges

     Atom                 Charge (a.u.)    Spin (a.u.)
  --------------------------------------------------------
      1 C                    -0.204067       0.322325
      2 C                    -0.102222       0.042693
      3 C                    -0.092371       0.390613
      4 C                    -0.272171      -0.041048
      5 C                    -0.027165       0.389887
      6 N                    -0.208850      -0.015413
      7 H                     0.139358      -0.013938
      8 H                     0.151983      -0.005969
      9 H                     0.158714      -0.001571
     10 H                     0.141650      -0.001542
     11 H                     0.125736      -0.021352
     12 C                     0.038509      -0.053659
     13 H                     0.150898       0.008973
  --------------------------------------------------------
  Sum of atomic charges =    -0.000000
  Sum of spin   charges =     1.000000

 -----------------------------------------------------------------
                    Cartesian Multipole Moments
 -----------------------------------------------------------------
    Charge (ESU x 10^10)
                -0.0000
    Dipole Moment (Debye)
         X      -1.2238      Y      -3.1830      Z       1.7410
       Tot       3.8289
    Quadrupole Moments (Debye-Ang)
        XX     -39.1754     XY      -4.5829     YY     -43.9784
        XZ       1.0207     YZ      -0.1299     ZZ     -43.7838
    Octopole Moments (Debye-Ang^2)
       XXX     -11.1018    XXY     -11.2997    XYY     -12.1827
       YYY     -36.8638    XXZ       8.6062    XYZ       3.6803
       YYZ       5.2238    XZZ      -4.8266    YZZ      -9.7105
       ZZZ      21.7612
    Hexadecapole Moments (Debye-Ang^3)
      XXXX    -254.1763   XXXY     -15.9423   XXYY    -104.3872
      XYYY     -32.4171   YYYY    -353.8547   XXXZ       6.6747
      XXYZ      11.5301   XYYZ       9.4924   YYYZ      24.6783
      XXZZ     -71.9126   XYZZ      -7.2980   YYZZ     -82.3166
      XZZZ       1.5527   YZZZ      19.2424   ZZZZ    -134.3503
 -----------------------------------------------------------------
 Calculating analytic gradient of the SCF energy
 Gradient of SCF Energy
            1           2           3           4           5           6
    1  -0.0112485  -0.0049915  -0.0029621   0.0000436  -0.0007372  -0.0030581
    2  -0.0031881  -0.0084830   0.0005338   0.0002709  -0.0021804  -0.0010318
    3   0.0187023  -0.0016323  -0.0224347   0.0003397   0.0018061  -0.0035835
            7           8           9          10          11          12
    1  -0.0018390  -0.0001184  -0.0001487   0.0003559   0.0003237   0.0191661
    2  -0.0014315  -0.0013846   0.0004210  -0.0005832  -0.0009826   0.0134929
    3   0.0011192  -0.0012084   0.0025613   0.0002928   0.0002372   0.0032863
           13
    1   0.0052143
    2   0.0045468
    3   0.0005141
 Max gradient component =       2.243E-02
 RMS gradient           =       6.712E-03
 Gradient time:  CPU 17.14 s  wall 4.46 s
rPathMan2.  file_steps = 951
 IRC --- Status = 2.  Assess steepest descent step
 IRC --- Previous SD length =   0.150000
 IRC --- Point 1 E =     -286.814163 |G| =   0.000085 G.D1 =  -0.000013
 IRC --- Point 2 E =     -286.817513 |G| =   0.041919 G.D1 =  -0.041172
 IRC --- Angle(G1/G2) =   10.84 Deg.  Curvature =  -0.2744
 IRC --- Corrector step required
 IRC --- equal length displacement: B_eq =   0.028326
 IRC --- chosen bisector length  : B_len =   0.015000
 ----------------------------------------------------------------
             Standard Nuclear Orientation (Angstroms)
    I     Atom           X                Y                Z
 ----------------------------------------------------------------
    1      C       1.3959299355     0.4055358487    -0.0998692352
    2      C       0.7708253362    -0.9397536669    -0.2771136635
    3      C      -0.6687515211    -0.9568051390    -0.6430351610
    4      C      -1.0639273945     0.3399786552     0.1078290043
    5      C      -0.4697383874     1.5505690201    -0.4973119960
    6      N       0.8448479290     1.5659421812    -0.5243617230
    7      H       2.3742748159     0.4130371692     0.3667063037
    8      H       1.3729004231    -1.8461427233    -0.2538658991
    9      H      -1.2311462586    -1.8785297268    -0.5188956022
   10      H      -2.0818626444     0.3935042360     0.4887453724
   11      H      -1.0563890116     2.3578610464    -0.9192972973
   12      C      -0.0363632355    -0.4559645598     0.8993881311
   13      H      -0.1726420207    -0.9580358469     1.8479151879
 ----------------------------------------------------------------
 Nuclear Repulsion Energy =   280.7508185860 hartrees
 There are       25 alpha and       24 beta electrons

                       Distance Matrix (Angstroms)
             C (  1)   C (  2)   C (  3)   C (  4)   C (  5)   N (  6)
   C (  2)  1.493980
   C (  3)  2.532570  1.485453
   C (  4)  2.469481  2.269849  1.549713
   C (  5)  2.224810  2.790913  2.519477  1.478102
   N (  6)  1.352933  2.518953  2.944371  2.355011  1.314954
   H (  7)  1.083932  2.194447  3.486553  3.448708  3.182596  2.112425
   H (  8)  2.257056  1.088382  2.260689  3.293642  3.871981  3.463283
   H (  9)  3.506290  2.224331  1.086865  2.311390  3.512681  4.021712
   H ( 10)  3.527273  3.240671  2.258572  1.088189  2.215864  3.311590
   H ( 11)  3.239893  3.824314  3.348671  2.264265  1.083490  2.097096
   C ( 12)  1.947347  1.506573  1.740639  1.521834  2.482894  2.625205
   H ( 13)  2.848440  2.325126  2.539874  2.346728  3.446949  3.610187
             H (  7)   H (  8)   H (  9)   H ( 10)   H ( 11)   C ( 12)
   H (  8)  2.547892
   H (  9)  4.362870  2.617699
   H ( 10)  4.457851  4.183644  2.627013
   H ( 11)  4.147963  4.900805  4.258858  2.625429
   C ( 12)  2.617268  2.290985  2.337248  2.252619  3.502240
   H ( 13)  3.249709  2.755888  2.751279  2.705388  4.408361  1.081828

 
 Applying Cartesian multipole field
    Component          Value
    ---------          -----
     (2,0,0)        1.00000E-11
     (0,2,0)        2.00000E-11
     (0,0,2)       -3.00000E-11
 Nucleus-field energy     =     0.0000000041 hartrees
 Requested basis set is 6-31+G(d,p)
 There are 53 shells and 163 basis functions
 A cutoff of  1.0D-14 yielded   1398 shell pairs
 There are     13494 function pairs
 Smallest overlap matrix eigenvalue = 4.10E-05
 Guess MOs from core Hamiltonian diagonalization
 Mixing HOMO and LUMO in initial guess
 Adding  50% of the LUMO to the HOMO
 An unrestricted hybrid HF-DFT SCF calculation will be
 performed using Pulay DIIS extrapolation
 Exchange:     0.2000 Hartree-Fock + 0.0800 Slater + 0.7200 B88
 Correlation:  0.1900 VWN1RPA + 0.8100 LYP
 Using SG-1 standard quadrature grid
 SCF converges when DIIS error is below 1.0E-08
 using 4 threads for integral computing
 -------------------------------------------------------
 OpenMP Integral computing Module                
 Release: version 1.0, May 2013, Q-Chem Inc. Pittsburgh 
 -------------------------------------------------------
 -------------------------------------------------------
 OpenMP BLAS3 based DFT computing Module                
 Release: version 1.0, May 2013, Q-Chem Inc. Pittsburgh 
 -------------------------------------------------------
 ---------------------------------------
  Cycle       Energy         DIIS Error
 ---------------------------------------
    1    -237.3855565164      9.67E-02
    2    -213.3898205645      7.07E-02
    3    -261.5867042064      7.10E-02
    4    -269.2964166169      6.55E-02
    5    -278.3565143476      4.18E-02
    6    -285.0407352664      2.08E-02
    7    -285.6281667835      1.71E-02
    8    -286.4714130688      9.04E-03
    9    -286.7362862920      4.81E-03
   10    -286.8008890652      2.11E-03
   11    -286.8145763039      7.95E-04
   12    -286.8170839638      1.56E-04
   13    -286.8173066030      8.04E-05
   14    -286.8174248520      3.22E-05
   15    -286.8174666427      2.22E-05
   16    -286.8174880570      9.35E-06
   17    -286.8174977611      4.00E-06
   18    -286.8174985558      1.56E-06
   19    -286.8174986165      3.58E-07
   20    -286.8174986234      2.17E-07
   21    -286.8174986252      5.57E-08
   22    -286.8174986255      1.67E-08
   23    -286.8174986255      5.63E-09 Convergence criterion met
 ---------------------------------------
 <S^2> = 0.7731
 SCF time:  CPU 117.50 s  wall 32.72 s
 SCF   energy in the final basis set = -286.81749863
 Total energy in the final basis set = -286.81749863
 
 --------------------------------------------------------------
 
                    Orbital Energies (a.u.)
 --------------------------------------------------------------
 
 Alpha MOs
 -- Occupied --
-14.325 -10.250 -10.240 -10.239 -10.235 -10.232 -10.209  -0.979
 -0.891  -0.768  -0.654  -0.638  -0.614  -0.559  -0.505  -0.463
 -0.453  -0.435  -0.423  -0.381  -0.376  -0.320  -0.276  -0.253
 -0.134
 -- Virtual --
 -0.024  -0.008   0.011   0.015   0.027   0.036   0.050   0.053
  0.064   0.068   0.075   0.096   0.098   0.102   0.110   0.111
  0.120   0.130   0.142   0.151   0.157   0.165   0.172   0.184
  0.187   0.200   0.208   0.216   0.233   0.242   0.245   0.252
  0.256   0.269   0.279   0.287   0.306   0.319   0.327   0.341
  0.359   0.365   0.447   0.473   0.614   0.619   0.634   0.671
  0.694   0.705   0.721   0.739   0.743   0.755   0.773   0.795
  0.810   0.842   0.873   0.890   0.923   0.928   0.961   0.977
  1.002   1.017   1.040   1.074   1.087   1.103   1.130   1.161
  1.180   1.224   1.293   1.328   1.350   1.400   1.447   1.487
  1.522   1.591   1.595   1.681   1.705   1.754   1.827   1.839
  1.845   1.902   1.944   1.969   2.047   2.054   2.116   2.158
  2.164   2.197   2.267   2.276   2.304   2.341   2.365   2.381
  2.406   2.432   2.447   2.488   2.501   2.519   2.553   2.563
  2.579   2.620   2.633   2.660   2.671   2.699   2.721   2.755
  2.840   2.884   2.972   3.094   3.113   3.288   3.319   3.382
  3.450   3.504   3.693   4.202   4.375   4.465   4.543   4.585
  4.649   4.702
 
 Beta MOs
 -- Occupied --
-14.325 -10.251 -10.235 -10.234 -10.234 -10.232 -10.203  -0.974
 -0.886  -0.759  -0.648  -0.628  -0.610  -0.556  -0.499  -0.459
 -0.447  -0.431  -0.413  -0.376  -0.368  -0.302  -0.270  -0.242
 -- Virtual --
 -0.051  -0.012  -0.008   0.015   0.018   0.029   0.041   0.053
  0.059   0.065   0.070   0.079   0.097   0.097   0.103   0.110
  0.112   0.122   0.132   0.144   0.152   0.158   0.166   0.174
  0.185   0.190   0.201   0.212   0.217   0.235   0.245   0.250
  0.253   0.259   0.273   0.282   0.291   0.308   0.323   0.331
  0.344   0.363   0.370   0.452   0.479   0.618   0.624   0.637
  0.669   0.702   0.714   0.738   0.745   0.749   0.761   0.777
  0.801   0.816   0.847   0.879   0.894   0.926   0.932   0.963
  0.980   1.006   1.019   1.041   1.079   1.089   1.108   1.137
  1.166   1.186   1.230   1.298   1.335   1.357   1.401   1.456
  1.494   1.526   1.599   1.602   1.686   1.713   1.759   1.837
  1.845   1.852   1.906   1.949   1.974   2.054   2.057   2.125
  2.165   2.169   2.203   2.274   2.282   2.308   2.345   2.369
  2.388   2.409   2.436   2.451   2.494   2.509   2.524   2.561
  2.571   2.587   2.626   2.640   2.667   2.676   2.704   2.724
  2.760   2.844   2.888   2.977   3.097   3.116   3.289   3.319
  3.385   3.452   3.507   3.696   4.205   4.384   4.476   4.551
  4.590   4.650   4.707
 --------------------------------------------------------------
 
          Ground-State Mulliken Net Atomic Charges

     Atom                 Charge (a.u.)    Spin (a.u.)
  --------------------------------------------------------
      1 C                    -0.209617       0.331140
      2 C                    -0.100901       0.041216
      3 C                    -0.091971       0.390495
      4 C                    -0.271644      -0.041204
      5 C                    -0.025712       0.384776
      6 N                    -0.207594      -0.016445
      7 H                     0.139627      -0.014505
      8 H                     0.152004      -0.005950
      9 H                     0.158733      -0.002082
     10 H                     0.141384      -0.001564
     11 H                     0.125495      -0.021116
     12 C                     0.039223      -0.054022
     13 H                     0.150976       0.009260
  --------------------------------------------------------
  Sum of atomic charges =    -0.000000
  Sum of spin   charges =     1.000000

 -----------------------------------------------------------------
                    Cartesian Multipole Moments
 -----------------------------------------------------------------
    Charge (ESU x 10^10)
                -0.0000
    Dipole Moment (Debye)
         X      -1.2312      Y      -3.1836      Z       1.7412
       Tot       3.8318
    Quadrupole Moments (Debye-Ang)
        XX     -39.1928     XY      -4.5821     YY     -43.9888
        XZ       1.0367     YZ      -0.1184     ZZ     -43.7715
    Octopole Moments (Debye-Ang^2)
       XXX     -11.1259    XXY     -11.2915    XYY     -12.1983
       YYY     -36.8384    XXZ       8.6140    XYZ       3.6776
       YYZ       5.2323    XZZ      -4.8403    YZZ      -9.7141
       ZZZ      21.7339
    Hexadecapole Moments (Debye-Ang^3)
      XXXX    -254.1634   XXXY     -16.0248   XXYY    -104.3869
      XYYY     -32.4834   YYYY    -353.8764   XXXZ       6.8188
      XXYZ      11.5703   XYYZ       9.5283   YYYZ      24.8299
      XXZZ     -71.9428   XYZZ      -7.3605   YYZZ     -82.3202
      XZZZ       1.6066   YZZZ      19.3125   ZZZZ    -134.4300
 -----------------------------------------------------------------
 Calculating analytic gradient of the SCF energy
 Gradient of SCF Energy
            1           2           3           4           5           6
    1  -0.0096599  -0.0062202  -0.0028011   0.0007507   0.0032752  -0.0073696
    2  -0.0078119  -0.0053023   0.0008082  -0.0046721   0.0001993   0.0013740
    3   0.0197884  -0.0022868  -0.0215280   0.0016907   0.0005600  -0.0042423
            7           8           9          10          11          12
    1  -0.0023638   0.0007614   0.0000256   0.0001294   0.0002149   0.0180457
    2  -0.0012230  -0.0024524   0.0010442  -0.0002766  -0.0008670   0.0144151
    3   0.0008680  -0.0011089   0.0024788   0.0002780   0.0001392   0.0034309
           13
    1   0.0052116
    2   0.0047644
    3  -0.0000682
 Max gradient component =       2.153E-02
 RMS gradient           =       6.830E-03
 Gradient time:  CPU 17.15 s  wall 4.42 s
rPathMan2.  file_steps = 951
 IRC --- Status = 3.  Assess initial corrector step
 IRC --- bisector search: b =  0.000000 E =     -286.817513 G.B =  -0.003958
 IRC --- bisector search: b =  0.015000 E =     -286.817499 G.B =   0.005888
 IRC --- performed gradient/energy interpolation
 IRC --- bisector search:  estimate b(min) =   6.021625389327858E-003
 ----------------------------------------------------------------
             Standard Nuclear Orientation (Angstroms)
    I     Atom           X                Y                Z
 ----------------------------------------------------------------
    1      C       1.3954276567     0.4072544113    -0.1002017271
    2      C       0.7714898752    -0.9409977352    -0.2769113463
    3      C      -0.6685043903    -0.9570254286    -0.6437861405
    4      C      -1.0641566273     0.3430157397     0.1073931710
    5      C      -0.4711667034     1.5500280312    -0.4966262621
    6      N       0.8458723162     1.5651066045    -0.5242311211
    7      H       2.3742733365     0.4128381582     0.3669474333
    8      H       1.3728195679    -1.8463038743    -0.2538909943
    9      H      -1.2311944869    -1.8791020695    -0.5181074010
   10      H      -2.0818450926     0.3934355542     0.4887510223
   11      H      -1.0563978709     2.3577445134    -0.9191338243
   12      C      -0.0357874267    -0.4566475547     0.8986634657
   13      H      -0.1728721885    -0.9581498560     1.8479671462
 ----------------------------------------------------------------
 Nuclear Repulsion Energy =   280.7168054610 hartrees
 There are       25 alpha and       24 beta electrons

                       Distance Matrix (Angstroms)
             C (  1)   C (  2)   C (  3)   C (  4)   C (  5)   N (  6)
   C (  2)  1.496098
   C (  3)  2.533093  1.486081
   C (  4)  2.469165  2.272879  1.552713
   C (  5)  2.224243  2.792433  2.519110  1.474230
   N (  6)  1.349975  2.519377  2.944279  2.353862  1.317415
   H (  7)  1.084619  2.194616  3.486632  3.448919  3.183628  2.111381
   H (  8)  2.258906  1.087063  2.260495  3.295831  3.872244  3.462438
   H (  9)  3.507309  2.224626  1.087493  2.314511  3.512412  4.022041
   H ( 10)  3.526823  3.241677  2.259185  1.087964  2.214263  3.312171
   H ( 11)  3.238288  3.825614  3.348728  2.261183  1.083242  2.098298
   C ( 12)  1.947417  1.506077  1.740649  1.524176  2.482566  2.624775
   H ( 13)  2.849431  2.325344  2.540568  2.348833  3.446310  3.609985
             H (  7)   H (  8)   H (  9)   H ( 10)   H ( 11)   C ( 12)
   H (  8)  2.547955
   H (  9)  4.362993  2.617590
   H ( 10)  4.457825  4.183618  2.627127
   H ( 11)  4.148032  4.900782  4.259371  2.625298
   C ( 12)  2.616700  2.289913  2.336582  2.253225  3.502404
   H ( 13)  3.249766  2.756046  2.750729  2.705260  4.408245  1.082347

 
 Applying Cartesian multipole field
    Component          Value
    ---------          -----
     (2,0,0)        1.00000E-11
     (0,2,0)        2.00000E-11
     (0,0,2)       -3.00000E-11
 Nucleus-field energy     =     0.0000000041 hartrees
 Requested basis set is 6-31+G(d,p)
 There are 53 shells and 163 basis functions
 A cutoff of  1.0D-14 yielded   1398 shell pairs
 There are     13494 function pairs
 Smallest overlap matrix eigenvalue = 4.09E-05
 Guess MOs from core Hamiltonian diagonalization
 Mixing HOMO and LUMO in initial guess
 Adding  50% of the LUMO to the HOMO
 An unrestricted hybrid HF-DFT SCF calculation will be
 performed using Pulay DIIS extrapolation
 Exchange:     0.2000 Hartree-Fock + 0.0800 Slater + 0.7200 B88
 Correlation:  0.1900 VWN1RPA + 0.8100 LYP
 Using SG-1 standard quadrature grid
 SCF converges when DIIS error is below 1.0E-08
 using 4 threads for integral computing
 -------------------------------------------------------
 OpenMP Integral computing Module                
 Release: version 1.0, May 2013, Q-Chem Inc. Pittsburgh 
 -------------------------------------------------------
 -------------------------------------------------------
 OpenMP BLAS3 based DFT computing Module                
 Release: version 1.0, May 2013, Q-Chem Inc. Pittsburgh 
 -------------------------------------------------------
 ---------------------------------------
  Cycle       Energy         DIIS Error
 ---------------------------------------
    1    -237.3806289799      9.67E-02
    2    -213.4079793074      7.06E-02
    3    -261.4348291255      7.12E-02
    4    -269.3802146627      6.54E-02
    5    -278.2827674236      4.20E-02
    6    -285.0253233714      2.09E-02
    7    -285.6149249699      1.72E-02
    8    -286.4653184921      9.12E-03
    9    -286.7338922127      4.88E-03
   10    -286.8007490600      2.12E-03
   11    -286.8145511875      8.05E-04
   12    -286.8171142740      1.57E-04
   13    -286.8173368522      8.00E-05
   14    -286.8174525231      3.15E-05
   15    -286.8174936631      2.16E-05
   16    -286.8175145199      9.25E-06
   17    -286.8175242068      4.04E-06
   18    -286.8175250302      1.60E-06
   19    -286.8175250915      3.63E-07
   20    -286.8175250976      2.18E-07
   21    -286.8175250992      5.50E-08
   22    -286.8175250995      1.65E-08
   23    -286.8175250995      5.50E-09 Convergence criterion met
 ---------------------------------------
 <S^2> = 0.7731
 SCF time:  CPU 117.87 s  wall 36.43 s
 SCF   energy in the final basis set = -286.81752510
 Total energy in the final basis set = -286.81752510
 
 --------------------------------------------------------------
 
                    Orbital Energies (a.u.)
 --------------------------------------------------------------
 
 Alpha MOs
 -- Occupied --
-14.325 -10.250 -10.240 -10.240 -10.235 -10.232 -10.209  -0.979
 -0.890  -0.768  -0.653  -0.639  -0.614  -0.559  -0.505  -0.463
 -0.453  -0.435  -0.423  -0.381  -0.376  -0.320  -0.277  -0.253
 -0.135
 -- Virtual --
 -0.024  -0.008   0.012   0.015   0.027   0.036   0.050   0.053
  0.064   0.068   0.075   0.096   0.098   0.102   0.110   0.111
  0.120   0.130   0.142   0.151   0.157   0.165   0.172   0.184
  0.187   0.200   0.207   0.216   0.233   0.242   0.245   0.252
  0.256   0.269   0.279   0.287   0.306   0.319   0.328   0.341
  0.359   0.365   0.447   0.473   0.614   0.619   0.633   0.671
  0.693   0.704   0.721   0.739   0.743   0.755   0.773   0.795
  0.810   0.843   0.873   0.890   0.922   0.928   0.961   0.977
  1.001   1.016   1.040   1.074   1.087   1.104   1.130   1.161
  1.180   1.224   1.293   1.328   1.350   1.400   1.447   1.487
  1.522   1.591   1.595   1.680   1.705   1.752   1.827   1.839
  1.847   1.901   1.943   1.969   2.047   2.053   2.116   2.158
  2.165   2.196   2.267   2.275   2.303   2.341   2.365   2.381
  2.406   2.431   2.448   2.488   2.501   2.519   2.553   2.564
  2.579   2.620   2.633   2.660   2.670   2.699   2.722   2.755
  2.840   2.884   2.972   3.094   3.113   3.288   3.319   3.380
  3.449   3.506   3.693   4.203   4.375   4.464   4.543   4.585
  4.649   4.702
 
 Beta MOs
 -- Occupied --
-14.324 -10.251 -10.235 -10.234 -10.234 -10.232 -10.203  -0.974
 -0.886  -0.760  -0.647  -0.628  -0.610  -0.556  -0.499  -0.459
 -0.447  -0.431  -0.413  -0.376  -0.368  -0.302  -0.270  -0.242
 -- Virtual --
 -0.052  -0.012  -0.008   0.015   0.018   0.029   0.041   0.053
  0.059   0.065   0.070   0.079   0.097   0.098   0.103   0.110
  0.112   0.122   0.132   0.144   0.152   0.158   0.166   0.174
  0.185   0.190   0.201   0.211   0.217   0.235   0.245   0.251
  0.253   0.259   0.273   0.282   0.291   0.308   0.323   0.331
  0.344   0.363   0.370   0.452   0.479   0.618   0.624   0.637
  0.669   0.702   0.714   0.738   0.745   0.749   0.761   0.777
  0.802   0.816   0.848   0.879   0.894   0.926   0.932   0.962
  0.980   1.006   1.019   1.041   1.079   1.089   1.108   1.137
  1.165   1.186   1.230   1.298   1.335   1.357   1.402   1.456
  1.493   1.525   1.599   1.602   1.685   1.713   1.757   1.837
  1.845   1.854   1.906   1.948   1.974   2.054   2.056   2.125
  2.166   2.168   2.202   2.274   2.281   2.307   2.345   2.369
  2.388   2.409   2.435   2.451   2.493   2.509   2.524   2.560
  2.572   2.587   2.625   2.640   2.667   2.676   2.705   2.725
  2.760   2.844   2.887   2.976   3.097   3.117   3.290   3.320
  3.384   3.451   3.508   3.696   4.205   4.384   4.475   4.551
  4.590   4.650   4.706
 --------------------------------------------------------------
 
          Ground-State Mulliken Net Atomic Charges

     Atom                 Charge (a.u.)    Spin (a.u.)
  --------------------------------------------------------
      1 C                    -0.206291       0.325853
      2 C                    -0.101700       0.042104
      3 C                    -0.092200       0.390555
      4 C                    -0.271973      -0.041102
      5 C                    -0.026585       0.387859
      6 N                    -0.208348      -0.015832
      7 H                     0.139467      -0.014165
      8 H                     0.151993      -0.005961
      9 H                     0.158721      -0.001777
     10 H                     0.141543      -0.001551
     11 H                     0.125638      -0.021259
     12 C                     0.038804      -0.053812
     13 H                     0.150930       0.009088
  --------------------------------------------------------
  Sum of atomic charges =    -0.000000
  Sum of spin   charges =     1.000000

 -----------------------------------------------------------------
                    Cartesian Multipole Moments
 -----------------------------------------------------------------
    Charge (ESU x 10^10)
                 0.0000
    Dipole Moment (Debye)
         X      -1.2267      Y      -3.1833      Z       1.7411
       Tot       3.8301
    Quadrupole Moments (Debye-Ang)
        XX     -39.1823     XY      -4.5826     YY     -43.9827
        XZ       1.0272     YZ      -0.1252     ZZ     -43.7788
    Octopole Moments (Debye-Ang^2)
       XXX     -11.1113    XXY     -11.2965    XYY     -12.1890
       YYY     -36.8544    XXZ       8.6093    XYZ       3.6792
       YYZ       5.2272    XZZ      -4.8321    YZZ      -9.7122
       ZZZ      21.7504
    Hexadecapole Moments (Debye-Ang^3)
      XXXX    -254.1697   XXXY     -15.9754   XXYY    -104.3872
      XYYY     -32.4438   YYYY    -353.8641   XXXZ       6.7325
      XXYZ      11.5464   XYYZ       9.5069   YYYZ      24.7392
      XXZZ     -71.9245   XYZZ      -7.3229   YYZZ     -82.3180
      XZZZ       1.5744   YZZZ      19.2707   ZZZZ    -134.3818
 -----------------------------------------------------------------
 Calculating analytic gradient of the SCF energy
 Gradient of SCF Energy
            1           2           3           4           5           6
    1  -0.0105998  -0.0054885  -0.0028959   0.0003149   0.0008689  -0.0047854
    2  -0.0050524  -0.0072078   0.0006375  -0.0017177  -0.0012137  -0.0000531
    3   0.0191430  -0.0018955  -0.0220735   0.0008912   0.0012986  -0.0038525
            7           8           9          10          11          12
    1  -0.0020495   0.0002362  -0.0000788   0.0002664   0.0002801   0.0187182
    2  -0.0013476  -0.0018155   0.0006709  -0.0004602  -0.0009360   0.0138619
    3   0.0010184  -0.0011687   0.0025272   0.0002859   0.0001979   0.0033473
           13
    1   0.0052132
    2   0.0046337
    3   0.0002805
 Max gradient component =       2.207E-02
 RMS gradient           =       6.706E-03
 Gradient time:  CPU 17.63 s  wall 5.26 s
rPathMan2.  file_steps = 951
 IRC --- Status = 4.  Checking bisector search.
 IRC --- Bisector search finished successfully.
 ------------------------------------------------------------------------
 Reaction path following.  The coordinates are cartesian              
 Step   2 E=    -286.817525 |G|=  0.041880 S_lin= 0.1496 S_tot= 0.1496
 ------------------------------------------------------------------------
  IRC -- SD step length =   0.150000000000000     
 ----------------------------------------------------------------
             Standard Nuclear Orientation (Angstroms)
    I     Atom           X                Y                Z
 ----------------------------------------------------------------
    1      C       1.4155176364     0.4168302675    -0.1364837882
    2      C       0.7818923386    -0.9273366233    -0.2733188258
    3      C      -0.6630156544    -0.9582336672    -0.6019499232
    4      C      -1.0647534265     0.3462713222     0.1057040985
    5      C      -0.4728136344     1.5523283302    -0.4990876015
    6      N       0.8549421750     1.5652072206    -0.5169294283
    7      H       2.3781577832     0.4153923018     0.3650172456
    8      H       1.3723719263    -1.8428629717    -0.2516759540
    9      H      -1.2310451755    -1.8803736886    -0.5228972525
   10      H      -2.0823500901     0.3943077831     0.4882090744
   11      H      -1.0569288405     2.3595186114    -0.9195089272
   12      C      -0.0712642863    -0.4829202261     0.8923192778
   13      H      -0.1827527858    -0.9669321658     1.8474354264
 ----------------------------------------------------------------
 Nuclear Repulsion Energy =   280.8852985007 hartrees
 There are       25 alpha and       24 beta electrons

                       Distance Matrix (Angstroms)
             C (  1)   C (  2)   C (  3)   C (  4)   C (  5)   N (  6)
   C (  2)  1.492310
   C (  3)  2.535303  1.482131
   C (  4)  2.493066  2.275046  1.537498
   C (  5)  2.233077  2.788189  2.519857  1.473343
   N (  6)  1.333324  2.505485  2.946045  2.357691  1.327938
   H (  7)  1.085441  2.181389  3.474278  3.453355  3.188626  2.102401
   H (  8)  2.263039  1.089644  2.246790  3.295392  3.872111  3.457316
   H (  9)  3.525728  2.241090  1.085932  2.319642  3.515526  4.027829
   H ( 10)  3.553284  3.245081  2.243284  1.088173  2.215034  3.317981
   H ( 11)  3.240395  3.821288  3.356113  2.259267  1.081435  2.109088
   C ( 12)  2.019531  1.511322  1.675987  1.514379  2.497897  2.653049
   H ( 13)  2.899173  2.330173  2.496040  2.352883  3.454993  3.616457
             H (  7)   H (  8)   H (  9)   H ( 10)   H ( 11)   C ( 12)
   H (  8)  2.547868
   H (  9)  4.368670  2.617776
   H ( 10)  4.462259  4.181802  2.630823
   H ( 11)  4.150838  4.899746  4.261960  2.625874
   C ( 12)  2.661706  2.289597  2.302348  2.230986  3.511939
   H ( 13)  3.265983  2.755347  2.748048  2.703505  4.414231  1.076543

 
 Applying Cartesian multipole field
    Component          Value
    ---------          -----
     (2,0,0)        1.00000E-11
     (0,2,0)        2.00000E-11
     (0,0,2)       -3.00000E-11
 Nucleus-field energy     =     0.0000000042 hartrees
 Requested basis set is 6-31+G(d,p)
 There are 53 shells and 163 basis functions
 A cutoff of  1.0D-14 yielded   1398 shell pairs
 There are     13494 function pairs
 Smallest overlap matrix eigenvalue = 4.15E-05
 Guess MOs from core Hamiltonian diagonalization
 Mixing HOMO and LUMO in initial guess
 Adding  50% of the LUMO to the HOMO
 An unrestricted hybrid HF-DFT SCF calculation will be
 performed using Pulay DIIS extrapolation
 Exchange:     0.2000 Hartree-Fock + 0.0800 Slater + 0.7200 B88
 Correlation:  0.1900 VWN1RPA + 0.8100 LYP
 Using SG-1 standard quadrature grid
 SCF converges when DIIS error is below 1.0E-08
 using 4 threads for integral computing
 -------------------------------------------------------
 OpenMP Integral computing Module                
 Release: version 1.0, May 2013, Q-Chem Inc. Pittsburgh 
 -------------------------------------------------------
 -------------------------------------------------------
 OpenMP BLAS3 based DFT computing Module                
 Release: version 1.0, May 2013, Q-Chem Inc. Pittsburgh 
 -------------------------------------------------------
 ---------------------------------------
  Cycle       Energy         DIIS Error
 ---------------------------------------
    1    -238.2208575941      9.66E-02
    2    -215.2374601332      7.20E-02
    3    -261.2429019620      7.36E-02
    4    -266.6165427622      6.97E-02
    5    -279.6742456906      4.00E-02
    6    -285.5410162834      1.79E-02
    7    -285.9028870376      1.50E-02
    8    -286.6663545006      6.30E-03
    9    -286.7604570494      4.26E-03
   10    -286.8150715320      1.67E-03
   11    -286.8243988279      4.57E-04
   12    -286.8252496084      7.77E-05
   13    -286.8253322682      3.93E-05
   14    -286.8253552366      1.55E-05
   15    -286.8253672834      6.65E-06
   16    -286.8253720692      2.64E-06
   17    -286.8253726871      8.63E-07
   18    -286.8253727177      5.49E-07
   19    -286.8253727277      1.97E-07
   20    -286.8253727306      9.96E-08
   21    -286.8253727313      3.31E-08
   22    -286.8253727314      7.95E-09 Convergence criterion met
 ---------------------------------------
 <S^2> = 0.7657
 SCF time:  CPU 112.86 s  wall 36.72 s
 SCF   energy in the final basis set = -286.82537273
 Total energy in the final basis set = -286.82537273
 
 --------------------------------------------------------------
 
                    Orbital Energies (a.u.)
 --------------------------------------------------------------
 
 Alpha MOs
 -- Occupied --
-14.323 -10.243 -10.241 -10.238 -10.236 -10.233 -10.207  -0.980
 -0.894  -0.768  -0.651  -0.642  -0.613  -0.560  -0.504  -0.466
 -0.456  -0.435  -0.422  -0.379  -0.374  -0.319  -0.276  -0.252
 -0.138
 -- Virtual --
 -0.011  -0.005   0.009   0.015   0.027   0.035   0.049   0.053
  0.065   0.068   0.076   0.096   0.098   0.103   0.111   0.112
  0.119   0.133   0.142   0.153   0.156   0.165   0.174   0.186
  0.187   0.199   0.209   0.216   0.235   0.241   0.249   0.254
  0.263   0.271   0.280   0.290   0.305   0.320   0.330   0.341
  0.356   0.368   0.455   0.483   0.615   0.620   0.630   0.673
  0.697   0.705   0.722   0.737   0.743   0.758   0.775   0.798
  0.811   0.845   0.872   0.890   0.926   0.927   0.963   0.979
  1.007   1.014   1.041   1.070   1.087   1.098   1.128   1.170
  1.187   1.231   1.278   1.319   1.348   1.401   1.450   1.492
  1.528   1.589   1.603   1.682   1.704   1.771   1.824   1.838
  1.856   1.902   1.946   1.958   2.042   2.056   2.124   2.147
  2.164   2.198   2.266   2.281   2.313   2.341   2.364   2.392
  2.407   2.439   2.445   2.486   2.492   2.518   2.564   2.570
  2.573   2.629   2.643   2.658   2.674   2.718   2.740   2.764
  2.859   2.885   2.986   3.100   3.113   3.292   3.325   3.397
  3.453   3.506   3.705   4.208   4.364   4.471   4.548   4.594
  4.650   4.701
 
 Beta MOs
 -- Occupied --
-14.323 -10.243 -10.237 -10.236 -10.233 -10.230 -10.200  -0.975
 -0.890  -0.759  -0.645  -0.631  -0.608  -0.557  -0.498  -0.462
 -0.450  -0.431  -0.412  -0.375  -0.366  -0.302  -0.270  -0.239
 -- Virtual --
 -0.053  -0.009  -0.001   0.014   0.016   0.029   0.042   0.053
  0.057   0.065   0.069   0.081   0.097   0.098   0.104   0.112
  0.112   0.122   0.134   0.144   0.154   0.157   0.166   0.175
  0.187   0.190   0.201   0.213   0.217   0.237   0.244   0.253
  0.256   0.265   0.277   0.283   0.294   0.306   0.323   0.333
  0.344   0.360   0.372   0.460   0.490   0.619   0.623   0.634
  0.674   0.706   0.711   0.739   0.746   0.749   0.765   0.778
  0.804   0.818   0.850   0.876   0.893   0.929   0.932   0.964
  0.982   1.010   1.016   1.042   1.075   1.089   1.102   1.137
  1.174   1.192   1.237   1.283   1.325   1.354   1.404   1.460
  1.500   1.531   1.598   1.609   1.687   1.710   1.775   1.831
  1.844   1.861   1.907   1.952   1.964   2.045   2.064   2.135
  2.152   2.169   2.205   2.273   2.286   2.316   2.345   2.368
  2.396   2.414   2.444   2.446   2.492   2.501   2.523   2.571
  2.578   2.581   2.635   2.647   2.664   2.680   2.725   2.742
  2.768   2.863   2.888   2.990   3.103   3.117   3.293   3.326
  3.399   3.455   3.509   3.708   4.210   4.375   4.479   4.557
  4.599   4.652   4.706
 --------------------------------------------------------------
 
          Ground-State Mulliken Net Atomic Charges

     Atom                 Charge (a.u.)    Spin (a.u.)
  --------------------------------------------------------
      1 C                    -0.173232       0.374146
      2 C                    -0.133853       0.023522
      3 C                    -0.053064       0.233152
      4 C                    -0.273341      -0.044440
      5 C                    -0.054886       0.482434
      6 N                    -0.210633      -0.032772
      7 H                     0.136269      -0.017913
      8 H                     0.151617      -0.004217
      9 H                     0.161356      -0.001329
     10 H                     0.141664      -0.000464
     11 H                     0.125236      -0.026003
     12 C                     0.032018       0.012183
     13 H                     0.150846       0.001699
  --------------------------------------------------------
  Sum of atomic charges =     0.000000
  Sum of spin   charges =     1.000000

 -----------------------------------------------------------------
                    Cartesian Multipole Moments
 -----------------------------------------------------------------
    Charge (ESU x 10^10)
                 0.0000
    Dipole Moment (Debye)
         X      -1.3409      Y      -3.3504      Z       1.5953
       Tot       3.9457
    Quadrupole Moments (Debye-Ang)
        XX     -39.2440     XY      -4.4646     YY     -43.9157
        XZ       1.1744     YZ       0.0845     ZZ     -43.4892
    Octopole Moments (Debye-Ang^2)
       XXX     -12.2780    XXY     -11.7007    XYY     -12.3919
       YYY     -37.9216    XXZ       8.5770    XYZ       3.4474
       YYZ       4.9399    XZZ      -5.0874    YZZ     -10.0220
       ZZZ      21.2633
    Hexadecapole Moments (Debye-Ang^3)
      XXXX    -258.7427   XXXY     -16.4943   XXYY    -104.8265
      XYYY     -32.4766   YYYY    -354.4931   XXXZ       9.1903
      XXYZ      12.3972   XYYZ      10.1253   YYYZ      26.1360
      XXZZ     -71.8179   XYZZ      -6.9001   YYZZ     -81.6978
      XZZZ       4.2074   YZZZ      21.4689   ZZZZ    -130.0068
 -----------------------------------------------------------------
 Calculating analytic gradient of the SCF energy
 Gradient of SCF Energy
            1           2           3           4           5           6
    1  -0.0181028  -0.0062698  -0.0026375   0.0018411  -0.0046312  -0.0011015
    2  -0.0022833  -0.0126677   0.0028960   0.0000148  -0.0013004  -0.0042516
    3   0.0260894  -0.0045189  -0.0310590  -0.0005016   0.0025495  -0.0041533
            7           8           9          10          11          12
    1  -0.0034121   0.0002466  -0.0001144   0.0004798   0.0002118   0.0257742
    2  -0.0027608  -0.0036500  -0.0000108  -0.0008878  -0.0017900   0.0194438
    3   0.0028333  -0.0019198   0.0056304   0.0006667   0.0006154   0.0047049
           13
    1   0.0077158
    2   0.0072477
    3  -0.0009368
 Max gradient component =       3.106E-02
 RMS gradient           =       9.530E-03
 Gradient time:  CPU 17.09 s  wall 4.48 s
rPathMan2.  file_steps = 951
 IRC --- Status = 2.  Assess steepest descent step
 IRC --- Previous SD length =   0.150000
 IRC --- Point 1 E =     -286.817525 |G| =   0.041880 G.D1 =  -0.041880
 IRC --- Point 2 E =     -286.825373 |G| =   0.059517 G.D1 =  -0.058148
 IRC --- Angle(G1/G2) =   12.31 Deg.  Curvature =  -0.1085
 IRC --- Corrector step required
 IRC --- equal length displacement: B_eq =   0.032163
 IRC --- chosen bisector length  : B_len =   0.016081
 ----------------------------------------------------------------
             Standard Nuclear Orientation (Angstroms)
    I     Atom           X                Y                Z
 ----------------------------------------------------------------
    1      C       1.4175444198     0.4135649227    -0.1357403550
    2      C       0.7808720731    -0.9257197962    -0.2721016743
    3      C      -0.6640012189    -0.9595607301    -0.6021565066
    4      C      -1.0656827669     0.3446336333     0.1068831342
    5      C      -0.4689018906     1.5520453133    -0.4995570222
    6      N       0.8511418068     1.5679920678    -0.5178106504
    7      H       2.3784908844     0.4159562802     0.3640929715
    8      H       1.3724313229    -1.8421494412    -0.2515032870
    9      H      -1.2310435550    -1.8797306499    -0.5242569004
   10      H      -2.0824175567     0.3944636668     0.4880354859
   11      H      -1.0568045870     2.3598252035    -0.9197317243
   12      C      -0.0707132313    -0.4827498580     0.8923539625
   13      H      -0.1829577345    -0.9673741182     1.8483259880
 ----------------------------------------------------------------
 Nuclear Repulsion Energy =   280.8753071270 hartrees
 There are       25 alpha and       24 beta electrons

                       Distance Matrix (Angstroms)
             C (  1)   C (  2)   C (  3)   C (  4)   C (  5)   N (  6)
   C (  2)  1.489171
   C (  3)  2.536898  1.482478
   C (  4)  2.496004  2.273146  1.537858
   C (  5)  2.233199  2.784419  2.521261  1.477078
   N (  6)  1.341451  2.506773  2.948100  2.358191  1.320266
   H (  7)  1.083170  2.181106  3.475981  3.454501  3.185002  2.106593
   H (  8)  2.259133  1.090967  2.246993  3.294672  3.869444  3.460018
   H (  9)  3.524935  2.240876  1.083660  2.318076  3.515474  4.027695
   H ( 10)  3.555165  3.243319  2.243614  1.086973  2.217829  3.315821
   H ( 11)  3.244222  3.819854  3.357599  2.261640  1.083829  2.104471
   C ( 12)  2.018730  1.509098  1.677170  1.513768  2.497271  2.654039
   H ( 13)  2.899158  2.329574  2.497264  2.352274  3.455690  3.618846
             H (  7)   H (  8)   H (  9)   H ( 10)   H ( 11)   C ( 12)
   H (  8)  2.547578
   H (  9)  4.368991  2.617993
   H ( 10)  4.462682  4.181547  2.630881
   H ( 11)  4.150673  4.899419  4.261525  2.626088
   C ( 12)  2.661829  2.288896  2.303195  2.231576  3.512302
   H ( 13)  3.267655  2.755676  2.749550  2.704245  4.415428  1.077656

 
 Applying Cartesian multipole field
    Component          Value
    ---------          -----
     (2,0,0)        1.00000E-11
     (0,2,0)        2.00000E-11
     (0,0,2)       -3.00000E-11
 Nucleus-field energy     =     0.0000000042 hartrees
 Requested basis set is 6-31+G(d,p)
 There are 53 shells and 163 basis functions
 A cutoff of  1.0D-14 yielded   1398 shell pairs
 There are     13494 function pairs
 Smallest overlap matrix eigenvalue = 4.18E-05
 Guess MOs from core Hamiltonian diagonalization
 Mixing HOMO and LUMO in initial guess
 Adding  50% of the LUMO to the HOMO
 An unrestricted hybrid HF-DFT SCF calculation will be
 performed using Pulay DIIS extrapolation
 Exchange:     0.2000 Hartree-Fock + 0.0800 Slater + 0.7200 B88
 Correlation:  0.1900 VWN1RPA + 0.8100 LYP
 Using SG-1 standard quadrature grid
 SCF converges when DIIS error is below 1.0E-08
 using 4 threads for integral computing
 -------------------------------------------------------
 OpenMP Integral computing Module                
 Release: version 1.0, May 2013, Q-Chem Inc. Pittsburgh 
 -------------------------------------------------------
 -------------------------------------------------------
 OpenMP BLAS3 based DFT computing Module                
 Release: version 1.0, May 2013, Q-Chem Inc. Pittsburgh 
 -------------------------------------------------------
 ---------------------------------------
  Cycle       Energy         DIIS Error
 ---------------------------------------
    1    -238.2864583025      9.65E-02
    2    -215.3703540001      7.18E-02
    3    -261.1045876047      7.38E-02
    4    -266.9740578724      6.96E-02
    5    -279.7188492027      3.96E-02
    6    -285.5898210932      1.76E-02
    7    -285.9190717986      1.49E-02
    8    -286.6806793309      6.03E-03
    9    -286.7702005917      3.92E-03
   10    -286.8155626179      1.63E-03
   11    -286.8244350213      4.58E-04
   12    -286.8252602291      7.64E-05
   13    -286.8253306184      4.02E-05
   14    -286.8253506940      1.54E-05
   15    -286.8253603225      6.80E-06
   16    -286.8253643546      3.41E-06
   17    -286.8253649479      1.76E-06
   18    -286.8253651146      3.76E-07
   19    -286.8253651298      1.63E-07
   20    -286.8253651330      9.12E-08
   21    -286.8253651336      3.13E-08
   22    -286.8253651337      6.32E-09 Convergence criterion met
 ---------------------------------------
 <S^2> = 0.7659
 SCF time:  CPU 111.78 s  wall 32.13 s
 SCF   energy in the final basis set = -286.82536513
 Total energy in the final basis set = -286.82536513
 
 --------------------------------------------------------------
 
                    Orbital Energies (a.u.)
 --------------------------------------------------------------
 
 Alpha MOs
 -- Occupied --
-14.324 -10.243 -10.240 -10.237 -10.235 -10.233 -10.207  -0.980
 -0.894  -0.768  -0.652  -0.641  -0.613  -0.560  -0.503  -0.466
 -0.456  -0.435  -0.422  -0.379  -0.373  -0.319  -0.276  -0.253
 -0.137
 -- Virtual --
 -0.011  -0.006   0.008   0.015   0.027   0.035   0.049   0.053
  0.065   0.068   0.076   0.096   0.098   0.103   0.111   0.112
  0.119   0.133   0.142   0.153   0.156   0.165   0.174   0.186
  0.187   0.199   0.209   0.216   0.234   0.242   0.249   0.254
  0.262   0.271   0.280   0.290   0.305   0.320   0.329   0.341
  0.357   0.368   0.453   0.483   0.614   0.619   0.631   0.673
  0.697   0.706   0.722   0.738   0.743   0.758   0.774   0.797
  0.810   0.845   0.873   0.890   0.925   0.928   0.963   0.979
  1.007   1.015   1.040   1.070   1.087   1.097   1.129   1.170
  1.187   1.231   1.278   1.319   1.347   1.400   1.450   1.493
  1.528   1.588   1.603   1.683   1.703   1.772   1.825   1.835
  1.853   1.903   1.945   1.958   2.043   2.056   2.124   2.145
  2.165   2.200   2.265   2.282   2.313   2.340   2.364   2.391
  2.408   2.440   2.445   2.486   2.492   2.518   2.563   2.571
  2.574   2.628   2.643   2.657   2.675   2.717   2.739   2.762
  2.859   2.886   2.986   3.100   3.114   3.291   3.325   3.399
  3.454   3.504   3.705   4.207   4.365   4.471   4.547   4.594
  4.650   4.701
 
 Beta MOs
 -- Occupied --
-14.324 -10.243 -10.237 -10.236 -10.233 -10.229 -10.200  -0.975
 -0.890  -0.759  -0.646  -0.630  -0.608  -0.557  -0.498  -0.462
 -0.451  -0.431  -0.412  -0.375  -0.366  -0.302  -0.270  -0.240
 -- Virtual --
 -0.053  -0.009  -0.002   0.014   0.016   0.029   0.042   0.053
  0.057   0.065   0.069   0.081   0.097   0.098   0.104   0.112
  0.112   0.122   0.134   0.144   0.153   0.157   0.167   0.175
  0.187   0.190   0.201   0.213   0.217   0.236   0.245   0.253
  0.255   0.265   0.276   0.283   0.294   0.306   0.323   0.333
  0.344   0.362   0.372   0.459   0.490   0.618   0.623   0.635
  0.674   0.706   0.712   0.739   0.746   0.749   0.765   0.778
  0.804   0.818   0.850   0.877   0.893   0.928   0.933   0.965
  0.981   1.011   1.017   1.042   1.075   1.089   1.101   1.137
  1.174   1.192   1.237   1.283   1.325   1.353   1.403   1.461
  1.500   1.530   1.598   1.610   1.689   1.710   1.776   1.832
  1.842   1.859   1.908   1.952   1.963   2.047   2.064   2.136
  2.149   2.170   2.207   2.273   2.287   2.317   2.344   2.368
  2.395   2.414   2.445   2.447   2.493   2.501   2.524   2.570
  2.578   2.582   2.634   2.647   2.663   2.680   2.724   2.741
  2.767   2.863   2.889   2.991   3.103   3.118   3.292   3.326
  3.401   3.456   3.507   3.708   4.209   4.376   4.479   4.557
  4.599   4.652   4.706
 --------------------------------------------------------------
 
          Ground-State Mulliken Net Atomic Charges

     Atom                 Charge (a.u.)    Spin (a.u.)
  --------------------------------------------------------
      1 C                    -0.180807       0.390649
      2 C                    -0.132085       0.021919
      3 C                    -0.055914       0.235964
      4 C                    -0.273030      -0.043731
      5 C                    -0.049285       0.466311
      6 N                    -0.209083      -0.033935
      7 H                     0.136804      -0.018866
      8 H                     0.151547      -0.004213
      9 H                     0.161332      -0.001865
     10 H                     0.141447      -0.000539
     11 H                     0.124884      -0.025277
     12 C                     0.033177       0.011498
     13 H                     0.151011       0.002086
  --------------------------------------------------------
  Sum of atomic charges =     0.000000
  Sum of spin   charges =     1.000000

 -----------------------------------------------------------------
                    Cartesian Multipole Moments
 -----------------------------------------------------------------
    Charge (ESU x 10^10)
                 0.0000
    Dipole Moment (Debye)
         X      -1.3521      Y      -3.3385      Z       1.6063
       Tot       3.9438
    Quadrupole Moments (Debye-Ang)
        XX     -39.2510     XY      -4.4609     YY     -43.9158
        XZ       1.1971     YZ       0.1031     ZZ     -43.4972
    Octopole Moments (Debye-Ang^2)
       XXX     -12.3132    XXY     -11.6806    XYY     -12.3996
       YYY     -37.8676    XXZ       8.6331    XYZ       3.4487
       YYZ       4.9868    XZZ      -5.1160    YZZ     -10.0129
       ZZZ      21.2548
    Hexadecapole Moments (Debye-Ang^3)
      XXXX    -258.6512   XXXY     -16.5113   XXYY    -104.8312
      XYYY     -32.4727   YYYY    -354.7267   XXXZ       9.3481
      XXYZ      12.4456   XYYZ      10.1528   YYYZ      26.4002
      XXZZ     -71.8875   XYZZ      -6.9770   YYZZ     -81.7564
      XZZZ       4.2533   YZZZ      21.5100   ZZZZ    -130.1359
 -----------------------------------------------------------------
 Calculating analytic gradient of the SCF energy
 Gradient of SCF Energy
            1           2           3           4           5           6
    1  -0.0148014  -0.0071317  -0.0033506   0.0001092   0.0024378  -0.0087706
    2  -0.0084684  -0.0097825   0.0006066  -0.0010662  -0.0012785   0.0003578
    3   0.0280506  -0.0041636  -0.0307495   0.0009376   0.0022527  -0.0052034
            7           8           9          10          11          12
    1  -0.0044054   0.0008070   0.0004798   0.0011127  -0.0005225   0.0265464
    2  -0.0026660  -0.0041941   0.0013336  -0.0009746  -0.0008167   0.0200958
    3   0.0022165  -0.0019233   0.0053852   0.0003021   0.0000093   0.0032207
           13
    1   0.0074892
    2   0.0068533
    3  -0.0003348
 Max gradient component =       3.075E-02
 RMS gradient           =       9.644E-03
 Gradient time:  CPU 17.20 s  wall 4.41 s
rPathMan2.  file_steps = 951
 IRC --- Status = 3.  Assess initial corrector step
 IRC --- bisector search: b =  0.000000 E =     -286.825373 G.B =  -0.006381
 IRC --- bisector search: b =  0.016081 E =     -286.825365 G.B =   0.007309
 IRC --- performed gradient/energy interpolation
 IRC --- bisector search:  estimate b(min) =   7.486329023722754E-003
 ----------------------------------------------------------------
             Standard Nuclear Orientation (Angstroms)
    I     Atom           X                Y                Z
 ----------------------------------------------------------------
    1      C       1.4164611649     0.4153101515    -0.1361376978
    2      C       0.7814173744    -0.9265839418    -0.2727522053
    3      C      -0.6634744642    -0.9588514548    -0.6020460940
    4      C      -1.0651860624     0.3455089289     0.1062529750
    5      C      -0.4709926002     1.5521965773    -0.4993061309
    6      N       0.8531729896     1.5665036506    -0.5173396636
    7      H       2.3783128518     0.4156548507     0.3645869683
    8      H       1.3723995772    -1.8425308018    -0.2515955723
    9      H      -1.2310444211    -1.8800743347    -0.5235302094
   10      H      -2.0823814978     0.3943803516     0.4881282638
   11      H      -1.0568709968     2.3596613393    -0.9196126459
   12      C      -0.0710077536    -0.4828409147     0.8923354246
   13      H      -0.1828481956    -0.9671379079     1.8478500096
 ----------------------------------------------------------------
 Nuclear Repulsion Energy =   280.8803885712 hartrees
 There are       25 alpha and       24 beta electrons

                       Distance Matrix (Angstroms)
             C (  1)   C (  2)   C (  3)   C (  4)   C (  5)   N (  6)
   C (  2)  1.490847
   C (  3)  2.536045  1.482291
   C (  4)  2.494433  2.274161  1.537666
   C (  5)  2.233133  2.786433  2.520509  1.475081
   N (  6)  1.337107  2.506084  2.947001  2.357922  1.324366
   H (  7)  1.084382  2.181257  3.475071  3.453888  3.186939  2.104352
   H (  8)  2.261220  1.090260  2.246884  3.295056  3.870869  3.458574
   H (  9)  3.525358  2.240990  1.084874  2.318913  3.515501  4.027766
   H ( 10)  3.554159  3.244261  2.243438  1.087614  2.216335  3.316974
   H ( 11)  3.242176  3.820620  3.356805  2.260372  1.082548  2.106939
   C ( 12)  2.019157  1.510287  1.676538  1.514094  2.497605  2.653508
   H ( 13)  2.899165  2.329894  2.496610  2.352599  3.455317  3.617568
             H (  7)   H (  8)   H (  9)   H ( 10)   H ( 11)   C ( 12)
   H (  8)  2.547733
   H (  9)  4.368820  2.617877
   H ( 10)  4.462456  4.181683  2.630850
   H ( 11)  4.150761  4.899594  4.261757  2.625973
   C ( 12)  2.661763  2.289271  2.302742  2.231261  3.512108
   H ( 13)  3.266762  2.755500  2.748747  2.703849  4.414789  1.077061

 
 Applying Cartesian multipole field
    Component          Value
    ---------          -----
     (2,0,0)        1.00000E-11
     (0,2,0)        2.00000E-11
     (0,0,2)       -3.00000E-11
 Nucleus-field energy     =     0.0000000042 hartrees
 Requested basis set is 6-31+G(d,p)
 There are 53 shells and 163 basis functions
 A cutoff of  1.0D-14 yielded   1398 shell pairs
 There are     13494 function pairs
 Smallest overlap matrix eigenvalue = 4.16E-05
 Guess MOs from core Hamiltonian diagonalization
 Mixing HOMO and LUMO in initial guess
 Adding  50% of the LUMO to the HOMO
 An unrestricted hybrid HF-DFT SCF calculation will be
 performed using Pulay DIIS extrapolation
 Exchange:     0.2000 Hartree-Fock + 0.0800 Slater + 0.7200 B88
 Correlation:  0.1900 VWN1RPA + 0.8100 LYP
 Using SG-1 standard quadrature grid
 SCF converges when DIIS error is below 1.0E-08
 using 4 threads for integral computing
[...]
 
 Alpha MOs
 -- Occupied --
-14.334 -10.233 -10.231 -10.223 -10.221 -10.220 -10.211  -0.980
 -0.867  -0.760  -0.674  -0.615  -0.583  -0.549  -0.518  -0.465
 -0.450  -0.420  -0.410  -0.369  -0.344  -0.317  -0.282  -0.271
 -0.180
 -- Virtual --
 -0.021  -0.001   0.015   0.021   0.029   0.045   0.049   0.061
  0.071   0.073   0.080   0.092   0.103   0.107   0.110   0.119
  0.121   0.137   0.143   0.161   0.163   0.175   0.178   0.185
  0.187   0.197   0.212   0.218   0.224   0.241   0.246   0.254
  0.261   0.271   0.284   0.298   0.306   0.321   0.329   0.343
  0.354   0.382   0.420   0.461   0.620   0.656   0.666   0.673
  0.691   0.711   0.724   0.745   0.752   0.757   0.784   0.794
  0.802   0.809   0.859   0.894   0.914   0.938   0.958   0.981
  0.999   1.013   1.044   1.060   1.084   1.086   1.125   1.169
  1.212   1.242   1.263   1.391   1.412   1.433   1.482   1.512
  1.576   1.602   1.644   1.674   1.734   1.774   1.809   1.839
  1.889   1.924   1.936   2.012   2.028   2.078   2.111   2.152
  2.157   2.220   2.248   2.298   2.321   2.361   2.366   2.369
  2.392   2.442   2.453   2.464   2.489   2.510   2.545   2.558
  2.580   2.615   2.633   2.635   2.691   2.700   2.743   2.820
  2.828   2.903   2.993   3.029   3.094   3.268   3.314   3.355
  3.511   3.533   3.692   4.177   4.417   4.462   4.584   4.601
  4.659   4.853
 
 Beta MOs
 -- Occupied --
-14.334 -10.233 -10.231 -10.221 -10.220 -10.220 -10.199  -0.976
 -0.861  -0.753  -0.661  -0.611  -0.579  -0.544  -0.511  -0.458
 -0.446  -0.415  -0.406  -0.361  -0.340  -0.305  -0.275  -0.266
 -- Virtual --
 -0.060  -0.012  -0.000   0.015   0.022   0.032   0.045   0.050
  0.061   0.071   0.077   0.083   0.094   0.104   0.108   0.111
  0.121   0.124   0.139   0.146   0.161   0.164   0.177   0.179
  0.186   0.189   0.197   0.212   0.223   0.227   0.243   0.249
  0.256   0.261   0.274   0.289   0.299   0.310   0.322   0.331
  0.348   0.359   0.385   0.425   0.466   0.624   0.664   0.668
  0.693   0.703   0.714   0.727   0.751   0.755   0.768   0.787
  0.797   0.806   0.813   0.863   0.897   0.917   0.943   0.960
  0.984   1.001   1.016   1.046   1.063   1.087   1.093   1.135
  1.175   1.218   1.247   1.268   1.394   1.413   1.439   1.485
  1.516   1.579   1.617   1.648   1.678   1.741   1.783   1.814
  1.849   1.895   1.931   1.941   2.019   2.032   2.086   2.123
  2.156   2.162   2.233   2.254   2.303   2.324   2.364   2.367
  2.373   2.396   2.451   2.457   2.470   2.492   2.518   2.548
  2.561   2.590   2.621   2.638   2.641   2.695   2.704   2.745
  2.822   2.833   2.909   2.995   3.034   3.095   3.269   3.315
  3.358   3.512   3.536   3.697   4.178   4.436   4.464   4.589
  4.604   4.664   4.858
 --------------------------------------------------------------
 
          Ground-State Mulliken Net Atomic Charges

     Atom                 Charge (a.u.)    Spin (a.u.)
  --------------------------------------------------------
      1 C                    -0.252647       0.014976
      2 C                    -0.106088      -0.102375
      3 C                    -0.112681       1.001052
      4 C                    -0.108072      -0.087478
      5 C                    -0.012366      -0.001148
      6 N                    -0.177777       0.027145
      7 H                     0.144830       0.003270
      8 H                     0.140051       0.000415
      9 H                     0.136929      -0.040117
     10 H                     0.131481       0.008466
     11 H                     0.131879       0.001596
     12 C                    -0.050705       0.166489
     13 H                     0.135168       0.007707
  --------------------------------------------------------
  Sum of atomic charges =    -0.000000
  Sum of spin   charges =     1.000000

 -----------------------------------------------------------------
                    Cartesian Multipole Moments
 -----------------------------------------------------------------
    Charge (ESU x 10^10)
                 0.0000
    Dipole Moment (Debye)
         X      -1.2947      Y      -1.9317      Z       1.7588
       Tot       2.9157
    Quadrupole Moments (Debye-Ang)
        XX     -38.6936     XY      -4.5067     YY     -43.4347
        XZ       2.0628     YZ       0.9217     ZZ     -43.1119
    Octopole Moments (Debye-Ang^2)
       XXX      -8.9965    XXY      -9.9715    XYY     -11.7546
       YYY     -28.8642    XXZ       6.9153    XYZ       3.2201
       YYZ       2.9852    XZZ      -4.5203    YZZ      -8.3674
       ZZZ      20.3856
    Hexadecapole Moments (Debye-Ang^3)
      XXXX    -231.2271   XXXY      -9.8503   XXYY     -94.1756
      XYYY     -27.1961   YYYY    -324.0800   XXXZ      -7.3919
      XXYZ       8.5772   XYYZ       6.1196   YYYZ      19.2934
      XXZZ     -69.8497   XYZZ      -5.8703   YYZZ     -80.1400
      XZZZ     -11.5727   YZZZ      10.6148   ZZZZ    -160.3147
 -----------------------------------------------------------------
 Calculating analytic gradient of the SCF energy
 Gradient of SCF Energy
            1           2           3           4           5           6
    1   0.0002800   0.0000312   0.0000906  -0.0002967   0.0008676  -0.0003365
    2  -0.0000007  -0.0000090   0.0000610   0.0002697  -0.0007806   0.0002641
    3   0.0001032  -0.0001754  -0.0001116  -0.0001511   0.0005475  -0.0000525
            7           8           9          10          11          12
    1  -0.0002362   0.0000363  -0.0000017   0.0001027  -0.0002835  -0.0001286
    2   0.0000050   0.0000974  -0.0003219  -0.0000161   0.0006210  -0.0000059
    3   0.0000178  -0.0001405   0.0007070  -0.0002246  -0.0002607  -0.0002072
           13
    1  -0.0001252
    2  -0.0001839
    3  -0.0000518
 Max gradient component =       8.676E-04
 RMS gradient           =       3.027E-04
 Gradient time:  CPU 17.30 s  wall 4.40 s
rPathMan2.  file_steps = 952
 IRC --- Status = 3.  Assess initial corrector step
 IRC --- bisector search: b =  0.000000 E =     -286.856886 G.B =  -0.001328
 IRC --- bisector search: b =  0.003618 E =     -286.856885 G.B =   0.001733
 IRC --- performed gradient/energy interpolation
 IRC --- bisector search:  estimate b(min) =   1.568037555247326E-003
 ----------------------------------------------------------------
             Standard Nuclear Orientation (Angstroms)
    I     Atom           X                Y                Z
 ----------------------------------------------------------------
    1      C       1.2524451738     0.3317136874     0.1541390667
    2      C       0.6587049925    -1.0524399960    -0.2416452404
    3      C      -0.6910724147    -0.9059860855    -0.8040091116
    4      C      -1.0461854192     0.2290035551     0.1687747562
    5      C      -0.4925791981     1.4820949830    -0.4956912035
    6      N       0.7884591274     1.5128029370    -0.5435438934
    7      H       2.2916554014     0.3187120713     0.4639555095
    8      H       1.3139990258    -1.9141078721    -0.3069983256
    9      H      -1.3501972818    -1.7219662811    -1.0746241668
   10      H      -2.0517228021     0.2725989156     0.5868259905
   11      H      -1.1019558158     2.2263225324    -1.0038889794
   12      C       0.1839697555    -0.2547940841     1.0124905613
   13      H       0.2224374229    -0.5327578630     2.0610484679
 ----------------------------------------------------------------
 Nuclear Repulsion Energy =   282.0803273919 hartrees
 There are       25 alpha and       24 beta electrons

                       Distance Matrix (Angstroms)
             C (  1)   C (  2)   C (  3)   C (  4)   C (  5)   N (  6)
   C (  2)  1.557259
   C (  3)  2.495438  1.469558
   C (  4)  2.300971  2.171910  1.536429
   C (  5)  2.188782  2.795329  2.416069  1.522574
   N (  6)  1.448108  2.586204  2.847349  2.349779  1.282300
   H (  7)  1.084488  2.245987  3.464720  3.352068  3.166440  2.168065
   H (  8)  2.293502  1.084506  2.298617  3.223315  3.851431  3.475034
   H (  9)  3.535705  2.275480  1.083283  2.333398  3.366999  3.914030
   H ( 10)  3.332902  3.128660  2.274831  1.089850  2.250701  3.298860
   H ( 11)  3.236321  3.798845  3.165460  2.316794  1.087878  2.072365
   C ( 12)  1.490771  1.560279  2.118825  1.568183  2.397731  2.431265
   H ( 13)  2.333352  2.400583  3.030240  2.402162  3.332836  3.359851
             H (  7)   H (  8)   H (  9)   H ( 10)   H ( 11)   C ( 12)
   H (  8)  2.556495
   H (  9)  4.449122  2.779228
   H ( 10)  4.345360  4.112018  2.689023
   H ( 11)  4.160546  4.844136  3.956717  2.692484
   C ( 12)  2.252141  2.402361  2.976963  2.336162  3.446060
   H ( 13)  2.749067  2.950810  3.704030  2.827320  4.331326  1.085457

 
 Applying Cartesian multipole field
    Component          Value
    ---------          -----
     (2,0,0)        1.00000E-11
     (0,2,0)        2.00000E-11
     (0,0,2)       -3.00000E-11
 Nucleus-field energy     =     0.0000000031 hartrees
 Requested basis set is 6-31+G(d,p)
 There are 53 shells and 163 basis functions
 A cutoff of  1.0D-14 yielded   1402 shell pairs
 There are     13508 function pairs
 Smallest overlap matrix eigenvalue = 2.55E-05
 Guess MOs from core Hamiltonian diagonalization
 Mixing HOMO and LUMO in initial guess
 Adding  50% of the LUMO to the HOMO
 An unrestricted hybrid HF-DFT SCF calculation will be
 performed using Pulay DIIS extrapolation
 Exchange:     0.2000 Hartree-Fock + 0.0800 Slater + 0.7200 B88
 Correlation:  0.1900 VWN1RPA + 0.8100 LYP
 Using SG-1 standard quadrature grid
 SCF converges when DIIS error is below 1.0E-08
 using 4 threads for integral computing
 -------------------------------------------------------
 OpenMP Integral computing Module                
 Release: version 1.0, May 2013, Q-Chem Inc. Pittsburgh 
 -------------------------------------------------------
 -------------------------------------------------------
 OpenMP BLAS3 based DFT computing Module                
 Release: version 1.0, May 2013, Q-Chem Inc. Pittsburgh 
 -------------------------------------------------------
 ---------------------------------------
  Cycle       Energy         DIIS Error
 ---------------------------------------
    1    -235.8226753603      9.79E-02
    2    -209.8441983874      7.21E-02
    3    -255.7249076578      7.70E-02
    4    -279.9549963977      3.92E-02
    5    -283.9757664536      2.76E-02
    6    -286.2670804543      1.18E-02
    7    -286.6735811706      6.99E-03
    8    -286.8501126493      1.23E-03
    9    -286.8538871982      8.27E-04
   10    -286.8567203332      1.15E-04
   11    -286.8568119895      1.11E-04
   12    -286.8568745926      2.51E-05
   13    -286.8568840800      7.07E-06
   14    -286.8568856208      2.93E-06
   15    -286.8568864823      8.64E-07
   16    -286.8568869314      4.08E-07
   17    -286.8568870949      2.55E-07
   18    -286.8568871748      1.05E-07
   19    -286.8568872223      3.67E-08
   20    -286.8568872268      1.19E-08
   21    -286.8568872269      3.72E-09 Convergence criterion met
 ---------------------------------------
 <S^2> = 0.7556
 SCF time:  CPU 105.97 s  wall 27.60 s
 SCF   energy in the final basis set = -286.85688723
 Total energy in the final basis set = -286.85688723
 
 --------------------------------------------------------------
 
                    Orbital Energies (a.u.)
 --------------------------------------------------------------
 
 Alpha MOs
 -- Occupied --
-14.334 -10.233 -10.231 -10.223 -10.221 -10.220 -10.211  -0.980
 -0.867  -0.760  -0.674  -0.615  -0.583  -0.549  -0.518  -0.465
 -0.450  -0.420  -0.410  -0.369  -0.344  -0.317  -0.282  -0.271
 -0.180
 -- Virtual --
 -0.021  -0.001   0.015   0.021   0.029   0.045   0.049   0.061
  0.071   0.073   0.080   0.092   0.103   0.107   0.110   0.119
  0.121   0.137   0.143   0.161   0.163   0.175   0.178   0.185
  0.187   0.197   0.212   0.218   0.224   0.241   0.246   0.254
  0.261   0.271   0.284   0.298   0.306   0.320   0.329   0.343
  0.354   0.382   0.420   0.460   0.620   0.656   0.666   0.673
  0.691   0.711   0.724   0.745   0.752   0.757   0.784   0.794
  0.802   0.809   0.859   0.894   0.915   0.938   0.958   0.981
  0.999   1.013   1.044   1.060   1.084   1.086   1.125   1.169
  1.212   1.242   1.263   1.391   1.411   1.433   1.482   1.512
  1.576   1.603   1.644   1.674   1.734   1.773   1.809   1.839
  1.889   1.924   1.935   2.012   2.028   2.078   2.111   2.152
  2.157   2.220   2.248   2.298   2.321   2.361   2.366   2.369
  2.392   2.442   2.453   2.464   2.489   2.510   2.545   2.558
  2.580   2.615   2.633   2.635   2.691   2.700   2.743   2.820
  2.828   2.903   2.993   3.029   3.094   3.268   3.314   3.355
  3.512   3.533   3.692   4.177   4.417   4.462   4.584   4.601
  4.659   4.853
 
 Beta MOs
 -- Occupied --
-14.334 -10.233 -10.231 -10.221 -10.220 -10.220 -10.199  -0.976
 -0.861  -0.753  -0.661  -0.611  -0.579  -0.544  -0.511  -0.458
 -0.446  -0.415  -0.406  -0.361  -0.340  -0.304  -0.275  -0.266
 -- Virtual --
 -0.060  -0.012  -0.000   0.015   0.022   0.032   0.045   0.050
  0.061   0.071   0.077   0.083   0.094   0.104   0.108   0.111
  0.121   0.124   0.139   0.146   0.162   0.164   0.177   0.179
  0.186   0.189   0.197   0.212   0.223   0.227   0.243   0.249
  0.256   0.261   0.274   0.289   0.299   0.310   0.322   0.331
  0.348   0.359   0.385   0.425   0.466   0.624   0.664   0.668
  0.693   0.703   0.714   0.727   0.751   0.755   0.768   0.787
  0.797   0.806   0.813   0.863   0.897   0.917   0.943   0.961
  0.984   1.001   1.016   1.046   1.063   1.087   1.093   1.135
  1.175   1.217   1.247   1.268   1.395   1.413   1.439   1.485
  1.516   1.579   1.617   1.648   1.678   1.741   1.782   1.814
  1.849   1.895   1.931   1.941   2.019   2.032   2.086   2.124
  2.156   2.162   2.233   2.254   2.303   2.324   2.364   2.367
  2.373   2.396   2.451   2.457   2.470   2.492   2.517   2.549
  2.562   2.590   2.621   2.638   2.641   2.695   2.704   2.745
  2.822   2.833   2.909   2.995   3.034   3.096   3.269   3.315
  3.358   3.513   3.536   3.697   4.178   4.436   4.464   4.589
  4.604   4.664   4.858
 --------------------------------------------------------------
 
          Ground-State Mulliken Net Atomic Charges

     Atom                 Charge (a.u.)    Spin (a.u.)
  --------------------------------------------------------
      1 C                    -0.252659       0.014977
      2 C                    -0.106038      -0.102436
      3 C                    -0.112714       1.001096
      4 C                    -0.108352      -0.087594
      5 C                    -0.012061      -0.001126
      6 N                    -0.177935       0.027225
      7 H                     0.144861       0.003276
      8 H                     0.140041       0.000416
      9 H                     0.136916      -0.040117
     10 H                     0.131436       0.008488
     11 H                     0.131894       0.001595
     12 C                    -0.050541       0.166518
     13 H                     0.135153       0.007681
  --------------------------------------------------------
  Sum of atomic charges =     0.000000
  Sum of spin   charges =     1.000000

 -----------------------------------------------------------------
                    Cartesian Multipole Moments
 -----------------------------------------------------------------
    Charge (ESU x 10^10)
                 0.0000
    Dipole Moment (Debye)
         X      -1.2952      Y      -1.9298      Z       1.7573
       Tot       2.9137
    Quadrupole Moments (Debye-Ang)
        XX     -38.6966     XY      -4.5106     YY     -43.4292
        XZ       2.0661     YZ       0.9189     ZZ     -43.1092
    Octopole Moments (Debye-Ang^2)
       XXX      -8.9958    XXY      -9.9684    XYY     -11.7625
       YYY     -28.8488    XXZ       6.9106    XYZ       3.2233
       YYZ       2.9785    XZZ      -4.5216    YZZ      -8.3657
       ZZZ      20.3832
    Hexadecapole Moments (Debye-Ang^3)
      XXXX    -231.2426   XXXY      -9.8598   XXYY     -94.1712
      XYYY     -27.2135   YYYY    -324.0493   XXXZ      -7.3826
      XXYZ       8.5760   XYYZ       6.1271   YYYZ      19.2839
      XXZZ     -69.8489   XYZZ      -5.8720   YYZZ     -80.1347
      XZZZ     -11.5683   YZZZ      10.6155   ZZZZ    -160.3113
 -----------------------------------------------------------------
 Calculating analytic gradient of the SCF energy
 Gradient of SCF Energy
            1           2           3           4           5           6
    1  -0.0000761   0.0000550   0.0000115   0.0000501   0.0000925  -0.0001048
    2   0.0000050   0.0000852   0.0000153  -0.0000142   0.0002668   0.0000232
    3  -0.0000290  -0.0001337  -0.0001516  -0.0001077  -0.0001079   0.0001020
            7           8           9          10          11          12
    1   0.0000190   0.0000432   0.0000303  -0.0000608   0.0001319  -0.0000538
    2  -0.0000077   0.0000585  -0.0002799   0.0000267   0.0000486  -0.0000611
    3   0.0001054  -0.0001424   0.0007229  -0.0001740   0.0001285  -0.0000697
           13
    1  -0.0001380
    2  -0.0001664
    3  -0.0001428
 Max gradient component =       7.229E-04
 RMS gradient           =       1.581E-04
 Gradient time:  CPU 17.52 s  wall 4.69 s
rPathMan2.  file_steps = 952
 IRC --- Status = 4.  Checking bisector search.
 IRC --- Bisector search finished successfully.
 ------------------------------------------------------------------------
 Reaction path following.  The coordinates are cartesian              
 Step  49 E=    -286.856887 |G|=  0.000987 S_lin= 1.8988 S_tot= 2.3873
 ------------------------------------------------------------------------
  IRC -- convergence criterion reached.
 ----------------------------------------------------------------
             Standard Nuclear Orientation (Angstroms)
    I     Atom           X                Y                Z
 ----------------------------------------------------------------
    1      C       1.3753758541     0.3969482137    -0.0639618535
    2      C       0.7603872189    -0.9539701218    -0.2805048926
    3      C      -0.6747272642    -0.9554674551    -0.6844018817
    4      C      -1.0635046515     0.3359837711     0.1091190986
    5      C      -0.4690142653     1.5472433738    -0.4949097924
    6      N       0.8375368022     1.5652285722    -0.5313411733
    7      H       2.3707947868     0.4106219006     0.3684677189
    8      H       1.3727962332    -1.8485253915    -0.2561169097
    9      H      -1.2313563220    -1.8768831266    -0.5152154619
   10      H      -2.0812147576     0.3925018213     0.4892913312
   11      H      -1.0557630129     2.3561733827    -0.9190907797
   12      C      -0.0009257587    -0.4294013513     0.9066865037
   13      H      -0.1624268971    -0.9492570952     1.8488115144
 ----------------------------------------------------------------
 Nuclear Repulsion Energy =   280.5307646894 hartrees
 There are       25 alpha and       24 beta electrons
 Here is where we should summarize the reaction path
Archival summary:
1\1\c8-90\JobtypUnspecified\ProcedureUnspecified\6-31+G**\166(2)\hpark21\ThuMar307:12:172022ThuMar307:12:172022\0\\#,JobtypUnspecified,ProcedureUnspecified,6-31+G**,\\0,2\N\C,1,1.30718\H,2,1.08562,1,121.27\C,1,1.36843,2,111.813,3,-173.973,0\H,4,1.08538,1,119.064,2,-153.343,0\C,2,1.47832,1,115.126,3,177.691,0\H,6,1.08787,2,118.452,1,158.728,0\C,4,1.50003,1,123.947,2,35.6714,0\H,8,1.08437,4,120.541,1,155.508,0\C,8,1.49087,4,115.764,1,-17.4414,0\H,10,1.08971,8,116.775,4,-159.417,0\C,8,1.50472,4,77.266,1,-82.6212,0\H,12,1.08809,8,126.276,4,-129.159,0\\\@

 Total job time:  11889.71s(wall), 40496.94s(cpu) 
 Thu Mar  3 07:12:17 2022

        *************************************************************
        *                                                           *
        *  Thank you very much for using Q-Chem.  Have a nice day.  *
        *                                                           *
        *************************************************************


