
Running Job 1 of 1 qcts2.in
qchem qcts2.in_10270.0 ./qcts2.d/ 1
/home/leeping/opt/qchem/5.0.2-openmp/exe/qcprog.exe_s qcts2.in_10270.0 ./qcts2.d/
Check license passed

                  Welcome to Q-Chem
     A Quantum Leap Into The Future Of Chemistry


 Q-Chem 5.0, Q-Chem, Inc., Pleasanton, CA (2017)

 Yihan Shao,  Zhengting Gan,  E. Epifanovsky,  A. T. B. Gilbert,  M. Wormit,  
 J. Kussmann,  A. W. Lange,  A. Behn,  Jia Deng,  Xintian Feng,  D. Ghosh,  
 M. Goldey,  P. R. Horn,  L. D. Jacobson,  I. Kaliman,  T. Kus,  A. Landau,  
 Jie Liu,  E. I. Proynov,  R. M. Richard,  R. P. Steele,  E. J. Sundstrom,  
 H. L. Woodcock III,  P. M. Zimmerman,  D. Zuev,  B. Albrecht,  E. Alguire,  
 S. A. Baeppler,  D. Barton,  Z. Benda,  Y. A. Bernard,  E. J. Berquist,  
 K. B. Bravaya,  H. Burton,  D. Casanova,  Chun-Min Chang,  Yunqing Chen,  
 A. Chien,  K. D. Closser,  M. P. Coons,  S. Dasgupta,  A. L. Dempwolff,  
 M. Diedenhofen,  Hainam Do,  R. G. Edgar,  Po-Tung Fang,  S. Fatehi,  
 Qingguo Feng,  J. Fosso-Tande,  Qinghui Ge,  A. Ghysels,  G. Gidofalvi,  
 J. Gomes,  J. Gonthier,  A. Gunina,  M. W. D. Hanson-Heine,  
 P. H. P. Harbach,  A. W. Hauser,  J. E. Herr,  E. G. Hohenstein,  
 Z. C. Holden,  Kerwin Hui,  T.-C. Jagau,  Hyunjun Ji,  B. Kaduk,  
 K. Khistyaev,  Jaehoon Kim,  P. Klunzinger,  K. Koh,  D. Kosenkov,  
 L. Koulias,  T. Kowalczyk,  C. M. Krauter,  A. Kunitsa,  Ka Un Lao,  
 A. Laurent,  K. V. Lawler,  Joonho Lee,  D. Lefrancois,  S. Lehtola,  
 D. S. Levine,  Yi-Pei Li,  You-Sheng Lin,  Fenglai Liu,  E. Livshits,  
 A. Luenser,  P. Manohar,  E. Mansoor,  S. F. Manzer,  Shan-Ping Mao,  
 Yuezhi Mao,  N. Mardirossian,  A. V. Marenich,  T. Markovich,  
 L. A. Martinez-Martinez,  S. A. Maurer,  N. J. Mayhall,  S. C. McKenzie,  
 J.-M. Mewes,  A. F. Morrison,  J. W. Mullinax,  K. Nanda,  
 T. S. Nguyen-Beck,  R. Olivares-Amaya,  J. A. Parkhill,  T. M. Perrine,  
 F. Plasser,  S. Prager,  A. Prociuk,  E. Ramos,  D. R. Rehn,  F. Rob,  
 M. Schneider,  N. Sergueev,  S. M. Sharada,  S. Sharma,  D. W. Small,  
 T. Stauch,  T. Stein,  Yu-Chuan Su,  A. J. W. Thom,  A. Tkatchenko,  
 T. Tsuchimochi,  L. Vogt,  O. Vydrov,  M. A. Watson,  J. Wenzel,  
 M. de Wergifosse,  T. A. Wesolowski,  A. White,  J. Witte,  A. Yamada,  
 Jun Yang,  K. Yao,  S. Yeganeh,  S. R. Yost,  Zhi-Qiang You,  A. Zech,  
 Igor Ying Zhang,  Xing Zhang,  Yan Zhao,  Ying Zhu,  B. R. Brooks,  
 G. K. L. Chan,  C. J. Cramer,  M. S. Gordon,  W. J. Hehre,  A. Klamt,  
 M. W. Schmidt,  C. D. Sherrill,  D. G. Truhlar,  A. Aspuru-Guzik,  R. Baer,  
 A. T. Bell,  N. A. Besley,  Jeng-Da Chai,  R. A. DiStasio Jr.,  A. Dreuw,  
 B. D. Dunietz,  T. R. Furlani,  Chao-Ping Hsu,  Yousung Jung,  Jing Kong,  
 D. S. Lambrecht,  WanZhen Liang,  C. Ochsenfeld,  V. A. Rassolov,  
 L. V. Slipchenko,  J. E. Subotnik,  T. Van Voorhis,  J. M. Herbert,  
 A. I. Krylov,  P. M. W. Gill,  M. Head-Gordon

 Contributors to earlier versions of Q-Chem not listed above: 
 R. D. Adamson,  B. Austin,  J. Baker,  G. J. O. Beran,  K. Brandhorst,  
 S. T. Brown,  E. F. C. Byrd,  A. K. Chakraborty,  C.-L. Cheng,  
 Siu Hung Chien,  D. M. Chipman,  D. L. Crittenden,  H. Dachsel,  
 R. J. Doerksen,  A. D. Dutoi,  L. Fusti-Molnar,  W. A. Goddard III,  
 A. Golubeva-Zadorozhnaya,  S. R. Gwaltney,  G. Hawkins,  A. Heyden,  
 S. Hirata,  G. Kedziora,  F. J. Keil,  C. Kelley,  Jihan Kim,  R. A. King,  
 R. Z. Khaliullin,  P. P. Korambath,  W. Kurlancheek,  A. M. Lee,  M. S. Lee,  
 S. V. Levchenko,  Ching Yeh Lin,  D. Liotard,  R. C. Lochan,  I. Lotan,  
 P. E. Maslen,  N. Nair,  D. P. O'Neill,  D. Neuhauser,  E. Neuscamman,  
 C. M. Oana,  R. Olson,  B. Peters,  R. Peverati,  P. A. Pieniazek,  
 Y. M. Rhee,  J. Ritchie,  M. A. Rohrdanz,  E. Rosta,  N. J. Russ,  
 H. F. Schaefer III,  N. E. Schultz,  N. Shenvi,  A. C. Simmonett,  A. Sodt,  
 D. Stuck,  K. S. Thanthiriwatte,  V. Vanovschi,  Tao Wang,  A. Warshel,  
 C. F. Williams,  Q. Wu,  X. Xu,  W. Zhang

 Please cite Q-Chem as follows:
 Y. Shao et al., Mol. Phys. 113, 184-215 (2015)
 DOI: 10.1080/00268976.2014.952696

 Q-Chem 5.0.2 for Intel X86 EM64T Linux

 Parts of Q-Chem use Armadillo 5.200.1 (Boston Tea Smuggler).
 http://arma.sourceforge.net/

 Q-Chem begins on Thu Mar  3 03:24:11 2022  

Host: 
0

     Scratch files written to ./qcts2.d//
 Dec517 15110_ 26548  26544 5633   
Processing $rem in /home/leeping/opt/qchem/5.0.2-openmp/config/preferences.
 MEM_STATIC 2000
 MEM_TOTAL  8000
 SYMMETRY   OFF
 SYM_IGNORE TRUE 

Checking the input file for inconsistencies... 	...done.

--------------------------------------------------------------
User input:
--------------------------------------------------------------
$molecule
0 2
C        1.3784042585    0.4003618997   -0.0701552906
C        0.7575017867   -0.9520031978   -0.2761066785
C       -0.6763645901   -0.9526091268   -0.6954073333
C       -1.0621059945    0.3345912484    0.1117951026
C       -0.4664680365    1.5458417908   -0.4916912016
N        0.8386749427    1.5664762950   -0.5316862548
H        2.3746140752    0.4143112193    0.3620880771
H        1.3714034475   -1.8463586851   -0.2497419666
H       -1.2277271580   -1.8743211902   -0.5076377922
H       -2.0808819008    0.3919869727    0.4907483178
H       -1.0544990317    2.3529368460   -0.9197208008
C       -0.0028153191   -0.4325902818    0.9078303581
H       -0.1717785139   -0.9574272963    1.8465188847
$end

$rem
method                b3lyp
basis                 6-31+g(d,p)
unrestricted          true
symmetry              off
sym_ignore            true
incdft                false
incfock               0
scf_convergence       8
thresh                14
jobtype               sp
scf_guess             core
scf_guess_mix         5
scf_algorithm         diis
max_scf_cycles        100
$end

--------------------------------------------------------------
 ----------------------------------------------------------------
             Standard Nuclear Orientation (Angstroms)
    I     Atom           X                Y                Z
 ----------------------------------------------------------------
    1      C       1.3784042585     0.4003618997    -0.0701552906
    2      C       0.7575017867    -0.9520031978    -0.2761066785
    3      C      -0.6763645901    -0.9526091268    -0.6954073333
    4      C      -1.0621059945     0.3345912484     0.1117951026
    5      C      -0.4664680365     1.5458417908    -0.4916912016
    6      N       0.8386749427     1.5664762950    -0.5316862548
    7      H       2.3746140752     0.4143112193     0.3620880771
    8      H       1.3714034475    -1.8463586851    -0.2497419666
    9      H      -1.2277271580    -1.8743211902    -0.5076377922
   10      H      -2.0808819008     0.3919869727     0.4907483178
   11      H      -1.0544990317     2.3529368460    -0.9197208008
   12      C      -0.0028153191    -0.4325902818     0.9078303581
   13      H      -0.1717785139    -0.9574272963     1.8465188847
 ----------------------------------------------------------------
 Nuclear Repulsion Energy =   280.4785536239 hartrees
 There are       25 alpha and       24 beta electrons
 Requested basis set is 6-31+G(d,p)
 There are 53 shells and 163 basis functions

 Total QAlloc Memory Limit   8000 MB
 Mega-Array Size      1956 MB
 MEM_STATIC part      2000 MB

                       Distance Matrix (Angstroms)
             C (  1)   C (  2)   C (  3)   C (  4)   C (  5)   N (  6)
   C (  2)  1.502274
   C (  3)  2.538414  1.493916
   C (  4)  2.448167  2.262027  1.567564
   C (  5)  2.212096  2.789948  2.515515  1.478549
   N (  6)  1.365336  2.532716  2.944137  2.354693  1.305919
   H (  7)  1.086031  2.211144  3.506457  3.446744  3.175067  2.117882
   H (  8)  2.253897  1.085100  2.278324  3.287738  3.865661  3.465651
   H (  9)  3.486760  2.201229  1.090326  2.300092  3.503896  4.013687
   H ( 10)  3.504475  3.232769  2.277624  1.088487  2.214249  3.308868
   H ( 11)  3.233161  3.823639  3.334657  2.266672  1.086459  2.086432
   C ( 12)  1.886275  1.499860  1.815065  1.531123  2.467352  2.603187
   H ( 13)  2.814302  2.317138  2.591528  2.339073  3.438084  3.612058
             H (  7)   H (  8)   H (  9)   H ( 10)   H ( 11)   C ( 12)
   H (  8)  2.547822
   H (  9)  4.355585  2.612044
   H ( 10)  4.457409  4.180525  2.619313
   H ( 11)  4.142478  4.895708  4.250827  2.624540
   C ( 12)  2.582101  2.286305  2.362741  2.274257  3.493586
   H ( 13)  3.251049  2.750622  2.738207  2.702537  4.403384  1.088641

 
 A cutoff of  1.0D-14 yielded   1398 shell pairs
 There are     13494 function pairs
 
 -------------------------------------------------------
 OpenMP Integral Computing Module                       
 Release: version 1.0, May 2013, Q-Chem Inc. Pittsburgh 
 -------------------------------------------------------
 Integral Job Info:
 Integral job number is                      11
 Integral operator is                         1
 short-range coefficients                     0
 long-range coefficients              100000000
 Omega coefficients                           0
 if combine SR and LR in K                    0
 Integral screening is                        0
 Integral computing path is                   2
 max size of driver memory is            800000
 size of driver memory is                593474
 size of scratch memory is              2361544
 max col of scratch BK array               1296
 max len of scratch array in speh3          155
 max len of scratch index in speh4           18
 max int batch size is                      520
 min int batch size is                       52
 fixed nKL is                                52
 max L of basis functions is                  2
 order of int derivative is                   0
 number of shells is                         53
 number of basis is                         163
 number of cartesian basis is               163
 number of contracted shell pairs          1398
 number of primitive shell pairs           4819
 maxK2 (contraction) of shell pair           36
 max number of K2 of shell pair               1
 max number of CS2 of shell pair            126
 max number of PS2 of shell pair            708
 mem total for path MDJ                  535308
 -------------------------------------------------------
 Smallest overlap matrix eigenvalue = 4.02E-05

 Scale SEOQF with 1.000000e-01/1.000000e-01/1.000000e-01

 Standard Electronic Orientation quadrupole field applied
 Nucleus-field energy     =     0.0000000040 hartrees
 Guess MOs from core Hamiltonian diagonalization
 Mixing HOMO and LUMO in initial guess
 Adding  50% of the LUMO to the HOMO
 An unrestricted hybrid HF-DFT SCF calculation will be
 performed using Pulay DIIS extrapolation
 Exchange:     0.2000 Hartree-Fock + 0.0800 Slater + 0.7200 B88
 Correlation:  0.1900 VWN1RPA + 0.8100 LYP
 Using SG-1 standard quadrature grid
 SCF converges when DIIS error is below 1.0E-08
 using 4 threads for integral computing
 -------------------------------------------------------
 OpenMP Integral computing Module                
 Release: version 1.0, May 2013, Q-Chem Inc. Pittsburgh 
 -------------------------------------------------------
 -------------------------------------------------------
 OpenMP BLAS3 based DFT computing Module                
 Release: version 1.0, May 2013, Q-Chem Inc. Pittsburgh 
 -------------------------------------------------------
 ---------------------------------------
  Cycle       Energy         DIIS Error
 ---------------------------------------
    1    -237.0506517450      9.66E-02
    2    -213.3446883246      7.03E-02
    3    -260.8641001336      7.13E-02
    4    -272.2989541622      6.24E-02
    5    -278.5011347803      4.06E-02
    6    -285.0898746055      2.05E-02
    7    -285.7191443095      1.63E-02
    8    -286.4572910481      9.08E-03
    9    -286.7536293421      4.05E-03
   10    -286.7979190737      2.05E-03
   11    -286.8111419315      7.32E-04
   12    -286.8135019683      1.77E-04
   13    -286.8138525359      1.10E-04
   14    -286.8140328446      4.84E-05
   15    -286.8140941151      3.04E-05
   16    -286.8141120377      8.41E-06
   17    -286.8141140783      3.30E-06
   18    -286.8141142148      7.92E-07
   19    -286.8141142347      1.85E-07
   20    -286.8141142393      7.29E-08
   21    -286.8141142406      2.72E-08
   22    -286.8141142410      1.14E-08
   23    -286.8141142410      5.77E-09 Convergence criterion met
 ---------------------------------------
 <S^2> = 0.7769
 SCF time:  CPU 117.76 s  wall 38.42 s
 SCF   energy in the final basis set = -286.81411424
 Total energy in the final basis set = -286.81411424
 
 --------------------------------------------------------------
 
                    Orbital Energies (a.u.)
 --------------------------------------------------------------
 
 Alpha MOs
 -- Occupied --
-14.332 -10.251 -10.246 -10.232 -10.230 -10.228 -10.220  -0.979
 -0.888  -0.767  -0.655  -0.637  -0.613  -0.556  -0.505  -0.461
 -0.449  -0.433  -0.422  -0.381  -0.374  -0.321  -0.281  -0.256
 -0.139
 -- Virtual --
 -0.036  -0.008   0.015   0.016   0.027   0.037   0.052   0.053
  0.065   0.069   0.074   0.096   0.098   0.102   0.109   0.111
  0.120   0.129   0.142   0.149   0.157   0.166   0.172   0.183
  0.187   0.200   0.208   0.217   0.231   0.240   0.244   0.249
  0.252   0.266   0.280   0.284   0.307   0.317   0.324   0.342
  0.360   0.365   0.438   0.460   0.616   0.622   0.638   0.672
  0.692   0.706   0.719   0.740   0.747   0.754   0.771   0.791
  0.808   0.840   0.873   0.890   0.918   0.927   0.962   0.976
  0.998   1.018   1.037   1.069   1.084   1.103   1.133   1.148
  1.177   1.224   1.306   1.338   1.360   1.404   1.445   1.481
  1.521   1.588   1.595   1.676   1.712   1.735   1.804   1.835
  1.862   1.904   1.944   1.985   2.038   2.062   2.096   2.160
  2.176   2.188   2.261   2.268   2.296   2.340   2.360   2.365
  2.417   2.423   2.456   2.490   2.509   2.514   2.538   2.556
  2.575   2.590   2.628   2.650   2.675   2.708   2.714   2.755
  2.820   2.882   2.962   3.080   3.109   3.290   3.312   3.374
  3.444   3.500   3.670   4.194   4.379   4.453   4.533   4.581
  4.653   4.707
 
 Beta MOs
 -- Occupied --
-14.332 -10.252 -10.243 -10.228 -10.227 -10.224 -10.216  -0.975
 -0.884  -0.759  -0.647  -0.627  -0.610  -0.553  -0.500  -0.458
 -0.443  -0.429  -0.412  -0.374  -0.366  -0.303  -0.274  -0.246
 -- Virtual --
 -0.052  -0.020  -0.007   0.015   0.020   0.029   0.040   0.053
  0.059   0.065   0.072   0.076   0.096   0.098   0.103   0.109
  0.112   0.122   0.131   0.143   0.152   0.158   0.167   0.174
  0.184   0.190   0.201   0.212   0.218   0.232   0.245   0.247
  0.251   0.255   0.269   0.283   0.290   0.309   0.319   0.327
  0.344   0.365   0.371   0.443   0.466   0.620   0.627   0.641
  0.670   0.699   0.720   0.731   0.748   0.752   0.758   0.776
  0.797   0.814   0.844   0.881   0.894   0.922   0.930   0.964
  0.979   1.002   1.021   1.038   1.072   1.085   1.107   1.139
  1.154   1.183   1.228   1.311   1.345   1.366   1.405   1.452
  1.487   1.526   1.593   1.603   1.680   1.721   1.744   1.818
  1.839   1.868   1.907   1.948   1.989   2.044   2.066   2.105
  2.167   2.182   2.193   2.266   2.274   2.301   2.343   2.369
  2.371   2.421   2.427   2.460   2.496   2.516   2.518   2.545
  2.569   2.582   2.594   2.634   2.657   2.680   2.711   2.718
  2.760   2.824   2.886   2.966   3.083   3.112   3.291   3.312
  3.381   3.446   3.502   3.673   4.195   4.386   4.469   4.538
  4.588   4.654   4.711
 --------------------------------------------------------------
 
          Ground-State Mulliken Net Atomic Charges

     Atom                 Charge (a.u.)    Spin (a.u.)
  --------------------------------------------------------
      1 C                    -0.242186       0.257196
      2 C                    -0.065306       0.038714
      3 C                    -0.146819       0.611066
      4 C                    -0.267184      -0.045447
      5 C                     0.018320       0.245757
      6 N                    -0.196746      -0.011259
      7 H                     0.142665      -0.009764
      8 H                     0.150508      -0.007102
      9 H                     0.152542      -0.003631
     10 H                     0.139731      -0.002827
     11 H                     0.128418      -0.013585
     12 C                     0.037869      -0.074771
     13 H                     0.148186       0.015654
  --------------------------------------------------------
  Sum of atomic charges =     0.000000
  Sum of spin   charges =     1.000000

 -----------------------------------------------------------------
                    Cartesian Multipole Moments
 -----------------------------------------------------------------
    Charge (ESU x 10^10)
                -0.0000
    Dipole Moment (Debye)
         X      -1.0540      Y      -2.6561      Z       1.8948
       Tot       3.4286
    Quadrupole Moments (Debye-Ang)
        XX     -39.0428     XY      -4.7328     YY     -43.5909
        XZ       0.6466     YZ      -0.6385     ZZ     -44.3990
    Octopole Moments (Debye-Ang^2)
       XXX      -9.5915    XXY     -10.4291    XYY     -12.1223
       YYY     -34.4437    XXZ       8.7918    XYZ       4.1261
       YYZ       5.9390    XZZ      -4.5238    YZZ      -8.9064
       ZZZ      22.4342
    Hexadecapole Moments (Debye-Ang^3)
      XXXX    -249.2277   XXXY     -15.8086   XXYY    -103.1901
      XYYY     -33.1452   YYYY    -349.2816   XXXZ       3.7041
      XXYZ      10.0615   XYYZ       8.4818   YYYZ      22.6018
      XXZZ     -72.3405   XYZZ      -8.1601   YYZZ     -82.7983
      XZZZ      -2.1559   YZZZ      15.9667   ZZZZ    -142.2173
 -----------------------------------------------------------------
Archival summary:
1\1\c8-90\SP\ProcedureUnspecified\6-31+G**\166(2)\hpark21\ThuMar303:24:512022ThuMar303:24:512022\0\\#,ProcedureUnspecified,6-31+G**,\\0,2\N\C,1,1.30592\H,2,1.08646,1,121.139\C,1,1.36534,2,111.791,3,-173.494,0\H,4,1.08603,1,119.09,2,-153.204,0\C,2,1.47855,1,115.344,3,177.313,0\H,6,1.08849,2,118.422,1,158.892,0\C,4,1.50227,1,123.996,2,34.9947,0\H,8,1.0851,4,120.318,1,155.95,0\C,8,1.49392,4,115.82,1,-15.98,0\H,10,1.09033,8,115.936,4,-159.032,0\C,8,1.49986,4,77.8513,1,-82.081,0\H,12,1.08864,8,126.325,4,-129.84,0\\\@

 Total job time:  40.57s(wall), 119.38s(cpu) 
 Thu Mar  3 03:24:51 2022

        *************************************************************
        *                                                           *
        *  Thank you very much for using Q-Chem.  Have a nice day.  *
        *                                                           *
        *************************************************************


