
Running Job 1 of 1 qcts1.in
qchem qcts1.in_9898.0 ./qcts1.d/ 1
/home/leeping/opt/qchem/5.0.2-openmp/exe/qcprog.exe_s qcts1.in_9898.0 ./qcts1.d/
Check license passed

                  Welcome to Q-Chem
     A Quantum Leap Into The Future Of Chemistry


 Q-Chem 5.0, Q-Chem, Inc., Pleasanton, CA (2017)

 Yihan Shao,  Zhengting Gan,  E. Epifanovsky,  A. T. B. Gilbert,  M. Wormit,  
 J. Kussmann,  A. W. Lange,  A. Behn,  Jia Deng,  Xintian Feng,  D. Ghosh,  
 M. Goldey,  P. R. Horn,  L. D. Jacobson,  I. Kaliman,  T. Kus,  A. Landau,  
 Jie Liu,  E. I. Proynov,  R. M. Richard,  R. P. Steele,  E. J. Sundstrom,  
 H. L. Woodcock III,  P. M. Zimmerman,  D. Zuev,  B. Albrecht,  E. Alguire,  
 S. A. Baeppler,  D. Barton,  Z. Benda,  Y. A. Bernard,  E. J. Berquist,  
 K. B. Bravaya,  H. Burton,  D. Casanova,  Chun-Min Chang,  Yunqing Chen,  
 A. Chien,  K. D. Closser,  M. P. Coons,  S. Dasgupta,  A. L. Dempwolff,  
 M. Diedenhofen,  Hainam Do,  R. G. Edgar,  Po-Tung Fang,  S. Fatehi,  
 Qingguo Feng,  J. Fosso-Tande,  Qinghui Ge,  A. Ghysels,  G. Gidofalvi,  
 J. Gomes,  J. Gonthier,  A. Gunina,  M. W. D. Hanson-Heine,  
 P. H. P. Harbach,  A. W. Hauser,  J. E. Herr,  E. G. Hohenstein,  
 Z. C. Holden,  Kerwin Hui,  T.-C. Jagau,  Hyunjun Ji,  B. Kaduk,  
 K. Khistyaev,  Jaehoon Kim,  P. Klunzinger,  K. Koh,  D. Kosenkov,  
 L. Koulias,  T. Kowalczyk,  C. M. Krauter,  A. Kunitsa,  Ka Un Lao,  
 A. Laurent,  K. V. Lawler,  Joonho Lee,  D. Lefrancois,  S. Lehtola,  
 D. S. Levine,  Yi-Pei Li,  You-Sheng Lin,  Fenglai Liu,  E. Livshits,  
 A. Luenser,  P. Manohar,  E. Mansoor,  S. F. Manzer,  Shan-Ping Mao,  
 Yuezhi Mao,  N. Mardirossian,  A. V. Marenich,  T. Markovich,  
 L. A. Martinez-Martinez,  S. A. Maurer,  N. J. Mayhall,  S. C. McKenzie,  
 J.-M. Mewes,  A. F. Morrison,  J. W. Mullinax,  K. Nanda,  
 T. S. Nguyen-Beck,  R. Olivares-Amaya,  J. A. Parkhill,  T. M. Perrine,  
 F. Plasser,  S. Prager,  A. Prociuk,  E. Ramos,  D. R. Rehn,  F. Rob,  
 M. Schneider,  N. Sergueev,  S. M. Sharada,  S. Sharma,  D. W. Small,  
 T. Stauch,  T. Stein,  Yu-Chuan Su,  A. J. W. Thom,  A. Tkatchenko,  
 T. Tsuchimochi,  L. Vogt,  O. Vydrov,  M. A. Watson,  J. Wenzel,  
 M. de Wergifosse,  T. A. Wesolowski,  A. White,  J. Witte,  A. Yamada,  
 Jun Yang,  K. Yao,  S. Yeganeh,  S. R. Yost,  Zhi-Qiang You,  A. Zech,  
 Igor Ying Zhang,  Xing Zhang,  Yan Zhao,  Ying Zhu,  B. R. Brooks,  
 G. K. L. Chan,  C. J. Cramer,  M. S. Gordon,  W. J. Hehre,  A. Klamt,  
 M. W. Schmidt,  C. D. Sherrill,  D. G. Truhlar,  A. Aspuru-Guzik,  R. Baer,  
 A. T. Bell,  N. A. Besley,  Jeng-Da Chai,  R. A. DiStasio Jr.,  A. Dreuw,  
 B. D. Dunietz,  T. R. Furlani,  Chao-Ping Hsu,  Yousung Jung,  Jing Kong,  
 D. S. Lambrecht,  WanZhen Liang,  C. Ochsenfeld,  V. A. Rassolov,  
 L. V. Slipchenko,  J. E. Subotnik,  T. Van Voorhis,  J. M. Herbert,  
 A. I. Krylov,  P. M. W. Gill,  M. Head-Gordon

 Contributors to earlier versions of Q-Chem not listed above: 
 R. D. Adamson,  B. Austin,  J. Baker,  G. J. O. Beran,  K. Brandhorst,  
 S. T. Brown,  E. F. C. Byrd,  A. K. Chakraborty,  C.-L. Cheng,  
 Siu Hung Chien,  D. M. Chipman,  D. L. Crittenden,  H. Dachsel,  
 R. J. Doerksen,  A. D. Dutoi,  L. Fusti-Molnar,  W. A. Goddard III,  
 A. Golubeva-Zadorozhnaya,  S. R. Gwaltney,  G. Hawkins,  A. Heyden,  
 S. Hirata,  G. Kedziora,  F. J. Keil,  C. Kelley,  Jihan Kim,  R. A. King,  
 R. Z. Khaliullin,  P. P. Korambath,  W. Kurlancheek,  A. M. Lee,  M. S. Lee,  
 S. V. Levchenko,  Ching Yeh Lin,  D. Liotard,  R. C. Lochan,  I. Lotan,  
 P. E. Maslen,  N. Nair,  D. P. O'Neill,  D. Neuhauser,  E. Neuscamman,  
 C. M. Oana,  R. Olson,  B. Peters,  R. Peverati,  P. A. Pieniazek,  
 Y. M. Rhee,  J. Ritchie,  M. A. Rohrdanz,  E. Rosta,  N. J. Russ,  
 H. F. Schaefer III,  N. E. Schultz,  N. Shenvi,  A. C. Simmonett,  A. Sodt,  
 D. Stuck,  K. S. Thanthiriwatte,  V. Vanovschi,  Tao Wang,  A. Warshel,  
 C. F. Williams,  Q. Wu,  X. Xu,  W. Zhang

 Please cite Q-Chem as follows:
 Y. Shao et al., Mol. Phys. 113, 184-215 (2015)
 DOI: 10.1080/00268976.2014.952696

 Q-Chem 5.0.2 for Intel X86 EM64T Linux

 Parts of Q-Chem use Armadillo 5.200.1 (Boston Tea Smuggler).
 http://arma.sourceforge.net/

 Q-Chem begins on Thu Mar  3 03:14:15 2022  

Host: 
0

     Scratch files written to ./qcts1.d//
 Dec517 15110_ 26548  26544 5633   
Processing $rem in /home/leeping/opt/qchem/5.0.2-openmp/config/preferences.
 MEM_STATIC 2000
 MEM_TOTAL  8000
 SYMMETRY   OFF
 SYM_IGNORE TRUE 

Checking the input file for inconsistencies... 	...done.

--------------------------------------------------------------
User input:
--------------------------------------------------------------
$molecule
0 2
C        1.4418909664    0.3939517949   -0.1068840294
C        0.6999194144   -0.9402781619   -0.1232743720
C       -0.6709638185   -0.8575397016   -0.7111046834
C       -1.0540281985    0.2712267918    0.2906271977
C       -0.4835563495    1.4440935063   -0.4782459635
N        0.8102773706    1.4830806330   -0.5755299593
H        2.4595428009    0.4635960344    0.2655097235
H        1.3111486960   -1.8399422836   -0.1409522319
H       -1.2917254470   -1.6047894461   -1.1786700651
H       -2.0727185995    0.4019969906    0.6611208819
H       -1.1177718402    2.0823287380   -1.0917887760
C        0.0096898300   -0.4277794557    1.0898442361
H       -0.0637468591   -0.8787489463    2.0761814633
$end

$rem
method                b3lyp
basis                 6-31g(d)
unrestricted          true
symmetry              off
sym_ignore            true
incdft                false
incfock               0
scf_convergence       8
thresh                14
jobtype               ts
scf_guess             read
scf_algorithm         diis
max_scf_cycles        100
geom_opt_max_cycles   500
geom_opt_dmax         100
geom_opt_tol_gradient 10
geom_opt_hessian      read
$end

--------------------------------------------------------------
 ----------------------------------------------------------------
             Standard Nuclear Orientation (Angstroms)
    I     Atom           X                Y                Z
 ----------------------------------------------------------------
    1      C       1.4418909664     0.3939517949    -0.1068840294
    2      C       0.6999194144    -0.9402781619    -0.1232743720
    3      C      -0.6709638185    -0.8575397016    -0.7111046834
    4      C      -1.0540281985     0.2712267918     0.2906271977
    5      C      -0.4835563495     1.4440935063    -0.4782459635
    6      N       0.8102773706     1.4830806330    -0.5755299593
    7      H       2.4595428009     0.4635960344     0.2655097235
    8      H       1.3111486960    -1.8399422836    -0.1409522319
    9      H      -1.2917254470    -1.6047894461    -1.1786700651
   10      H      -2.0727185995     0.4019969906     0.6611208819
   11      H      -1.1177718402     2.0823287380    -1.0917887760
   12      C       0.0096898300    -0.4277794557     1.0898442361
   13      H      -0.0637468591    -0.8787489463     2.0761814633
 ----------------------------------------------------------------
 Nuclear Repulsion Energy =   279.9845935813 hartrees
 There are       25 alpha and       24 beta electrons
 Requested basis set is 6-31G(d)
 There are 40 shells and 117 basis functions

 Total QAlloc Memory Limit   8000 MB
 Mega-Array Size      1956 MB
 MEM_STATIC part      2000 MB
 A cutoff of  1.0D-14 yielded    812 shell pairs
 There are      7084 function pairs
 
 -------------------------------------------------------
 OpenMP Integral Computing Module                       
 Release: version 1.0, May 2013, Q-Chem Inc. Pittsburgh 
 -------------------------------------------------------
 Integral Job Info:
 Integral job number is                      11
 Integral operator is                         1
 short-range coefficients                     0
 long-range coefficients              100000000
 Omega coefficients                           0
 if combine SR and LR in K                    0
 Integral screening is                        0
 Integral computing path is                   2
 max size of driver memory is            800000
 size of driver memory is                593474
 size of scratch memory is              2361544
 max col of scratch BK array               1296
 max len of scratch array in speh3          155
 max len of scratch index in speh4           18
 max int batch size is                      520
 min int batch size is                       52
 fixed nKL is                                52
 max L of basis functions is                  2
 order of int derivative is                   0
 number of shells is                         40
 number of basis is                         117
 number of cartesian basis is               117
 number of contracted shell pairs           812
 number of primitive shell pairs           3599
 maxK2 (contraction) of shell pair           36
 max number of K2 of shell pair               1
 max number of CS2 of shell pair             85
 max number of PS2 of shell pair            396
 mem total for path MDJ                  535308
 -------------------------------------------------------
 Smallest overlap matrix eigenvalue = 1.91E-03

 Scale SEOQF with 1.000000e-01/1.000000e-01/1.000000e-01

 Standard Electronic Orientation quadrupole field applied
 Nucleus-field energy     =     0.0000000030 hartrees
 Guess MOs from SCF MO coefficient file
 Reading MOs from coefficient file
 Reading MOs from coefficient file
 An unrestricted hybrid HF-DFT SCF calculation will be
 performed using Pulay DIIS extrapolation
 Exchange:     0.2000 Hartree-Fock + 0.0800 Slater + 0.7200 B88
 Correlation:  0.1900 VWN1RPA + 0.8100 LYP
 Using SG-1 standard quadrature grid
 SCF converges when DIIS error is below 1.0E-08
Using Q-Chem read-in guess as SCF_GUESS READ specified.

 using 4 threads for integral computing
 -------------------------------------------------------
 OpenMP Integral computing Module                
 Release: version 1.0, May 2013, Q-Chem Inc. Pittsburgh 
 -------------------------------------------------------
 -------------------------------------------------------
 OpenMP BLAS3 based DFT computing Module                
 Release: version 1.0, May 2013, Q-Chem Inc. Pittsburgh 
 -------------------------------------------------------
 ---------------------------------------
  Cycle       Energy         DIIS Error
 ---------------------------------------
    1    -286.7823843461      1.16E-09
    2    -286.7823843461      1.30E-09 Convergence criterion met
 ---------------------------------------
 <S^2> = 0.7612
 SCF time:  CPU 5.25 s  wall 1.46 s
 SCF   energy in the final basis set = -286.78238435
 Total energy in the final basis set = -286.78238435
 
 --------------------------------------------------------------
 
                    Orbital Energies (a.u.)
 --------------------------------------------------------------
 
 Alpha MOs
 -- Occupied --
-14.329 -10.234 -10.227 -10.213 -10.209 -10.209 -10.195  -0.963
 -0.861  -0.747  -0.638  -0.623  -0.598  -0.536  -0.493  -0.455
 -0.449  -0.420  -0.401  -0.374  -0.352  -0.288  -0.278  -0.227
 -0.137
 -- Virtual --
 -0.038   0.045   0.094   0.128   0.150   0.151   0.160   0.163
  0.191   0.197   0.215   0.258   0.276   0.293   0.363   0.402
  0.493   0.509   0.514   0.543   0.546   0.562   0.599   0.611
  0.624   0.650   0.655   0.699   0.707   0.749   0.755   0.802
  0.823   0.835   0.850   0.859   0.867   0.877   0.918   0.934
  0.942   1.025   1.091   1.108   1.155   1.225   1.282   1.317
  1.356   1.401   1.462   1.506   1.567   1.592   1.695   1.746
  1.763   1.803   1.824   1.844   1.911   2.007   2.033   2.061
  2.090   2.157   2.196   2.243   2.287   2.310   2.336   2.361
  2.396   2.445   2.456   2.562   2.570   2.592   2.644   2.667
  2.676   2.740   2.828   2.961   3.080   4.005   4.184   4.240
  4.341   4.432   4.537   4.540
 
 Beta MOs
 -- Occupied --
-14.328 -10.233 -10.228 -10.209 -10.209 -10.209 -10.183  -0.960
 -0.852  -0.745  -0.629  -0.609  -0.593  -0.531  -0.490  -0.447
 -0.445  -0.418  -0.396  -0.367  -0.348  -0.281  -0.272  -0.205
 -- Virtual --
 -0.031  -0.017   0.055   0.097   0.136   0.151   0.154   0.162
  0.168   0.194   0.201   0.220   0.260   0.277   0.297   0.372
  0.403   0.504   0.513   0.519   0.545   0.554   0.580   0.602
  0.619   0.629   0.656   0.666   0.707   0.714   0.753   0.759
  0.803   0.824   0.837   0.855   0.861   0.871   0.880   0.925
  0.937   0.944   1.028   1.103   1.114   1.160   1.231   1.289
  1.321   1.359   1.405   1.468   1.510   1.573   1.599   1.703
  1.753   1.769   1.818   1.841   1.849   1.916   2.019   2.038
  2.068   2.099   2.168   2.201   2.253   2.298   2.317   2.347
  2.373   2.406   2.450   2.467   2.568   2.572   2.605   2.647
  2.672   2.679   2.747   2.834   2.962   3.083   4.007   4.184
  4.255   4.354   4.434   4.541   4.545
 --------------------------------------------------------------
 
          Ground-State Mulliken Net Atomic Charges

     Atom                 Charge (a.u.)    Spin (a.u.)
  --------------------------------------------------------
      1 C                     0.019592       0.032400
      2 C                    -0.182233      -0.037246
      3 C                    -0.125198       0.876472
      4 C                    -0.248374      -0.027899
      5 C                     0.099980      -0.045459
      6 N                    -0.337778       0.047839
      7 H                     0.157764       0.000886
      8 H                     0.143962       0.000066
      9 H                     0.142997      -0.044085
     10 H                     0.140671       0.002858
     11 H                     0.150162       0.002865
     12 C                    -0.111385       0.195761
     13 H                     0.149841      -0.004458
  --------------------------------------------------------
  Sum of atomic charges =     0.000000
  Sum of spin   charges =     1.000000

 -----------------------------------------------------------------
                    Cartesian Multipole Moments
 -----------------------------------------------------------------
    Charge (ESU x 10^10)
                 0.0000
    Dipole Moment (Debye)
         X      -0.9393      Y      -1.6274      Z       1.0473
       Tot       2.1511
    Quadrupole Moments (Debye-Ang)
        XX     -37.2029     XY      -3.4620     YY     -41.8621
        XZ       1.4961     YZ      -0.0248     ZZ     -41.7125
    Octopole Moments (Debye-Ang^2)
       XXX      -7.6949    XXY      -7.3414    XYY      -9.6250
       YYY     -26.3248    XXZ       4.3979    XYZ       2.1548
       YYZ       2.3571    XZZ      -6.6902    YZZ      -9.4578
       ZZZ      13.5722
    Hexadecapole Moments (Debye-Ang^3)
      XXXX    -236.1589   XXXY      -9.0361   XXYY     -90.0564
      XYYY     -23.2450   YYYY    -294.4272   XXXZ       4.5359
      XXYZ      10.7079   XYYZ       9.2565   YYYZ      26.2021
      XXZZ     -69.0823   XYZZ      -4.9121   YYZZ     -70.8558
      XZZZ       0.8612   YZZZ      18.5881   ZZZZ    -146.6676
 -----------------------------------------------------------------
 Calculating analytic gradient of the SCF energy
 Gradient of SCF Energy
            1           2           3           4           5           6
    1   0.0112810   0.0073026  -0.0010210   0.0051359  -0.0068015   0.0090582
    2   0.0073902   0.0142729  -0.0077434   0.0056719   0.0006902  -0.0066260
    3  -0.0235318   0.0068198   0.0180670   0.0030292   0.0007471   0.0077544
            7           8           9          10          11          12
    1   0.0013965  -0.0003093   0.0012831  -0.0009401  -0.0012014  -0.0214030
    2   0.0010147   0.0008186   0.0025721   0.0017561  -0.0011574  -0.0146145
    3  -0.0013008   0.0018597  -0.0023496  -0.0008294  -0.0011749  -0.0087687
           13
    1  -0.0037810
    2  -0.0040454
    3  -0.0003219
 Max gradient component =       2.353E-02
 RMS gradient           =       8.068E-03
 Gradient time:  CPU 7.93 s  wall 2.30 s
 Geometry Optimization Parameters
   NAtoms,    NIC,     NZ,  NCons,   NDum,   NFix, NCnnct, MaxDiis
       13     127       0       0       0       0       0       0

 Cartesian Hessian read from HESS file


** GEOMETRY OPTIMIZATION IN DELOCALIZED INTERNAL COORDINATES **
   Searching for a Transition State

   Optimization Cycle:   1

                       Coordinates (Angstroms)
     ATOM                X               Y               Z
      1  C         1.4418909664    0.3939517949   -0.1068840294
      2  C         0.6999194144   -0.9402781619   -0.1232743720
      3  C        -0.6709638185   -0.8575397016   -0.7111046834
      4  C        -1.0540281985    0.2712267918    0.2906271977
      5  C        -0.4835563495    1.4440935063   -0.4782459635
      6  N         0.8102773706    1.4830806330   -0.5755299593
      7  H         2.4595428009    0.4635960344    0.2655097235
      8  H         1.3111486960   -1.8399422836   -0.1409522319
      9  H        -1.2917254470   -1.6047894461   -1.1786700651
     10  H        -2.0727185995    0.4019969906    0.6611208819
     11  H        -1.1177718402    2.0823287380   -1.0917887760
     12  C         0.0096898300   -0.4277794557    1.0898442361
     13  H        -0.0637468591   -0.8787489463    2.0761814633
   Point Group: c1    Number of degrees of freedom:    33


   Energy is   -286.782384346


 Attempting to Generate Delocalized Internal Coordinates

 Transforming Cartesian Hessian to Internal Coordinates
 Hessian Transformation does not Include Derivative of B-matrix

 33 Hessian modes will be used to form the next step
  Hessian Eigenvalues:
    -0.036668   -0.011237   -0.000388    0.003978    0.013137    0.013524
     0.016912    0.018736    0.025007    0.026544    0.028388    0.031792
     0.035585    0.047301    0.074303    0.110424    0.113727    0.116496
     0.128443    0.159070    0.172227    0.180323    0.224174    0.232492
     0.296078    0.347000    0.355541    0.357584    0.359969    0.363157
     0.380322    0.415061    0.536808
**WARNING** Hessian does not have the Desired Local Structure

 Transition State Search - Taking P-RFO Step
 Searching for Lamda that Maximizes Along the Lowest mode
 Value Taken    Lamda =   0.01429504
 Searching for Lamda that Minimizes Along All other modes
 Value Taken    Lamda =  -0.01744114
 Calculated Step too Large.  Step scaled by  0.060489
 Step Taken.  Stepsize is  0.100000

                             Maximum     Tolerance    Cnvgd?
         Gradient           0.015694      0.000010      NO
         Displacement       0.041598      0.001200      NO
         Energy change     *********      0.000001      NO


 New Cartesian Coordinates Obtained by Inverse Iteration

 Displacement from previous Coordinates is:  0.102814
 ----------------------------------------------------------------
             Standard Nuclear Orientation (Angstroms)
    I     Atom           X                Y                Z
 ----------------------------------------------------------------
    1      C       1.4382396090     0.3929476349    -0.1060300683
    2      C       0.7029737576    -0.9434873993    -0.1269634764
    3      C      -0.6696190177    -0.8693298893    -0.7119327950
    4      C      -1.0536753870     0.2757249456     0.2788595339
    5      C      -0.4829487053     1.4558058617    -0.4738242706
    6      N       0.8090164634     1.4887334648    -0.5748336957
    7      H       2.4559714215     0.4620108264     0.2660897660
    8      H       1.3153219115    -1.8424428567    -0.1382783412
    9      H      -1.2921294885    -1.6302299560    -1.1543125443
   10      H      -2.0718066793     0.4030619790     0.6520390302
   11      H      -1.1147225941     2.1058994769    -1.0773856717
   12      C       0.0091374400    -0.4294071162     1.0778958316
   13      H      -0.0678007651    -0.8780904780     2.0655101234
 ----------------------------------------------------------------
 Nuclear Repulsion Energy =   279.8753642424 hartrees
 There are       25 alpha and       24 beta electrons
 Applying Cartesian multipole field
    Component          Value
    ---------          -----
     (2,0,0)        1.00000E-11
     (0,2,0)        2.00000E-11
     (0,0,2)       -3.00000E-11
 Nucleus-field energy     =     0.0000000030 hartrees
 Requested basis set is 6-31G(d)
 There are 40 shells and 117 basis functions
 A cutoff of  1.0D-14 yielded    812 shell pairs
 There are      7084 function pairs
 Smallest overlap matrix eigenvalue = 1.93E-03
 Guess MOs from SCF MO coefficient file
 Reading MOs from coefficient file
 Reading MOs from coefficient file
 An unrestricted hybrid HF-DFT SCF calculation will be
 performed using Pulay DIIS extrapolation
 Exchange:     0.2000 Hartree-Fock + 0.0800 Slater + 0.7200 B88
 Correlation:  0.1900 VWN1RPA + 0.8100 LYP
 Using SG-1 standard quadrature grid
 SCF converges when DIIS error is below 1.0E-08
 Geometry optimization detected.  Setting ReadMinima to 0
 Setting SaveMinima to 0
Using Q-Chem read-in guess as SCF_GUESS READ specified.

 using 4 threads for integral computing
 -------------------------------------------------------
 OpenMP Integral computing Module                
 Release: version 1.0, May 2013, Q-Chem Inc. Pittsburgh 
 -------------------------------------------------------
 -------------------------------------------------------
 OpenMP BLAS3 based DFT computing Module                
 Release: version 1.0, May 2013, Q-Chem Inc. Pittsburgh 
 -------------------------------------------------------
 ---------------------------------------
  Cycle       Energy         DIIS Error
 ---------------------------------------
    1    -286.7829987752      5.74E-04
    2    -286.7825173361      9.44E-05
    3    -286.7825346056      1.36E-04
    4    -286.7825732337      5.39E-05
    5    -286.7825843793      1.36E-05
    6    -286.7825978812      1.77E-05
    7    -286.7826091016      1.10E-05
    8    -286.7826180681      7.42E-06
    9    -286.7826260348      5.23E-06
   10    -286.7826301334      1.75E-06
   11    -286.7826313481      9.08E-07
   12    -286.7826317175      3.11E-07
   13    -286.7826317580      1.53E-07
   14    -286.7826317680      6.26E-08
   15    -286.7826317690      1.07E-08
   16    -286.7826317690      3.58E-09 Convergence criterion met
 ---------------------------------------
 <S^2> = 0.7557
 SCF time:  CPU 40.49 s  wall 15.91 s
 SCF   energy in the final basis set = -286.78263177
 Total energy in the final basis set = -286.78263177
 
 --------------------------------------------------------------
 
                    Orbital Energies (a.u.)
 --------------------------------------------------------------
 
 Alpha MOs
 -- Occupied --
-14.329 -10.233 -10.225 -10.215 -10.209 -10.209 -10.196  -0.963
 -0.861  -0.747  -0.638  -0.623  -0.598  -0.536  -0.493  -0.455
 -0.448  -0.420  -0.401  -0.374  -0.353  -0.289  -0.278  -0.228
 -0.136
 -- Virtual --
 -0.037   0.045   0.093   0.128   0.151   0.151   0.160   0.163
  0.191   0.196   0.214   0.256   0.277   0.294   0.361   0.401
  0.492   0.509   0.514   0.542   0.545   0.564   0.598   0.610
  0.622   0.649   0.655   0.698   0.705   0.749   0.754   0.802
  0.824   0.834   0.850   0.858   0.868   0.878   0.922   0.935
  0.943   1.024   1.089   1.107   1.156   1.227   1.276   1.319
  1.357   1.399   1.461   1.504   1.566   1.594   1.696   1.742
  1.762   1.803   1.827   1.846   1.909   2.000   2.031   2.058
  2.088   2.159   2.193   2.242   2.287   2.311   2.341   2.361
  2.398   2.443   2.457   2.559   2.569   2.587   2.643   2.666
  2.678   2.741   2.826   2.960   3.080   4.004   4.183   4.237
  4.341   4.431   4.535   4.538
 
 Beta MOs
 -- Occupied --
-14.328 -10.231 -10.225 -10.213 -10.209 -10.209 -10.184  -0.959
 -0.853  -0.744  -0.629  -0.610  -0.593  -0.531  -0.490  -0.447
 -0.445  -0.418  -0.396  -0.367  -0.349  -0.282  -0.271  -0.206
 -- Virtual --
 -0.032  -0.016   0.055   0.096   0.136   0.152   0.154   0.163
  0.167   0.194   0.201   0.219   0.258   0.279   0.298   0.370
  0.403   0.504   0.513   0.520   0.544   0.552   0.582   0.602
  0.618   0.627   0.657   0.666   0.705   0.711   0.753   0.759
  0.804   0.825   0.836   0.854   0.861   0.872   0.880   0.928
  0.939   0.945   1.028   1.102   1.112   1.161   1.232   1.285
  1.323   1.360   1.404   1.466   1.509   1.572   1.600   1.705
  1.748   1.767   1.821   1.840   1.851   1.914   2.013   2.036
  2.064   2.097   2.170   2.199   2.253   2.298   2.318   2.350
  2.373   2.408   2.448   2.470   2.565   2.571   2.599   2.647
  2.671   2.682   2.748   2.832   2.962   3.083   4.005   4.184
  4.252   4.352   4.434   4.539   4.541
 --------------------------------------------------------------
 
          Ground-State Mulliken Net Atomic Charges

     Atom                 Charge (a.u.)    Spin (a.u.)
  --------------------------------------------------------
      1 C                     0.014367       0.085222
      2 C                    -0.178118      -0.034314
      3 C                    -0.125525       0.882798
      4 C                    -0.251047      -0.024933
      5 C                     0.103052      -0.005813
      6 N                    -0.338996       0.028949
      7 H                     0.156738      -0.001484
      8 H                     0.144270      -0.000576
      9 H                     0.143581      -0.044799
     10 H                     0.140517       0.002427
     11 H                     0.148827       0.000628
     12 C                    -0.108321       0.111197
     13 H                     0.150657       0.000698
  --------------------------------------------------------
  Sum of atomic charges =    -0.000000
  Sum of spin   charges =     1.000000

 -----------------------------------------------------------------
                    Cartesian Multipole Moments
 -----------------------------------------------------------------
    Charge (ESU x 10^10)
                -0.0000
    Dipole Moment (Debye)
         X      -0.9619      Y      -1.6776      Z       1.1265
       Tot       2.2380
    Quadrupole Moments (Debye-Ang)
        XX     -37.3046     XY      -3.4755     YY     -41.8479
        XZ       1.4744     YZ      -0.0229     ZZ     -41.7132
    Octopole Moments (Debye-Ang^2)
       XXX      -7.8671    XXY      -7.4930    XYY      -9.7567
       YYY     -26.5782    XXZ       4.5777    XYZ       2.1841
       YYZ       2.5219    XZZ      -6.5826    YZZ      -9.4433
       ZZZ      14.0628
    Hexadecapole Moments (Debye-Ang^3)
      XXXX    -236.4599   XXXY      -9.0569   XXYY     -90.5182
      XYYY     -23.2761   YYYY    -297.6157   XXXZ       4.4757
      XXYZ      10.6724   XYYZ       9.3181   YYYZ      26.1031
      XXZZ     -68.8666   XYZZ      -4.9049   YYZZ     -71.2547
      XZZZ       0.7492   YZZZ      18.4007   ZZZZ    -144.9015
 -----------------------------------------------------------------
 Calculating analytic gradient of the SCF energy
 Gradient of SCF Energy
            1           2           3           4           5           6
    1   0.0110884   0.0064221  -0.0010189   0.0048596  -0.0061932   0.0078951
    2   0.0066347   0.0138963  -0.0082296   0.0049999   0.0007153  -0.0060227
    3  -0.0231853   0.0072308   0.0176835   0.0037469   0.0002541   0.0079356
            7           8           9          10          11          12
    1   0.0012557  -0.0003916   0.0013264  -0.0008196  -0.0011086  -0.0198178
    2   0.0009863   0.0007051   0.0031248   0.0019517  -0.0013505  -0.0134692
    3  -0.0010784   0.0018071  -0.0034985  -0.0007089  -0.0014171  -0.0083980
           13
    1  -0.0034977
    2  -0.0039421
    3  -0.0003717
 Max gradient component =       2.319E-02
 RMS gradient           =       7.762E-03
 Gradient time:  CPU 7.55 s  wall 2.02 s
 Geometry Optimization Parameters
   NAtoms,    NIC,     NZ,  NCons,   NDum,   NFix, NCnnct, MaxDiis
       13     127       0       0       0       0       0       0

 Cartesian Hessian Update
 Hessian Updated using Powell/Murtagh-Sargent Update
  Mixing factors:     0.989879 Powell
                      0.010121 Murtagh-Sargent


** GEOMETRY OPTIMIZATION IN DELOCALIZED INTERNAL COORDINATES **
   Searching for a Transition State

   Optimization Cycle:   2

                       Coordinates (Angstroms)
     ATOM                X               Y               Z
      1  C         1.4382396090    0.3929476349   -0.1060300683
      2  C         0.7029737576   -0.9434873993   -0.1269634764
      3  C        -0.6696190177   -0.8693298893   -0.7119327950
      4  C        -1.0536753870    0.2757249456    0.2788595339
      5  C        -0.4829487053    1.4558058617   -0.4738242706
      6  N         0.8090164634    1.4887334648   -0.5748336957
      7  H         2.4559714215    0.4620108264    0.2660897660
      8  H         1.3153219115   -1.8424428567   -0.1382783412
      9  H        -1.2921294885   -1.6302299560   -1.1543125443
     10  H        -2.0718066793    0.4030619790    0.6520390302
     11  H        -1.1147225941    2.1058994769   -1.0773856717
     12  C         0.0091374400   -0.4294071162    1.0778958316
     13  H        -0.0678007651   -0.8780904780    2.0655101234
   Point Group: c1    Number of degrees of freedom:    33


   Energy is   -286.782631769

 Hessian Updated using Powell/Murtagh-Sargent Update
  Mixing factors:     0.964035 Powell
                      0.035965 Murtagh-Sargent

 33 Hessian modes will be used to form the next step
  Hessian Eigenvalues:
    -0.040743   -0.005436   -0.000549    0.004040    0.013218    0.013519
     0.016985    0.018742    0.025007    0.026555    0.028419    0.031782
     0.035573    0.047476    0.074379    0.110452    0.113848    0.116605
     0.129492    0.159063    0.172242    0.180404    0.224394    0.232516
     0.296128    0.347002    0.355541    0.357592    0.359969    0.363160
     0.380337    0.415164    0.537271
**WARNING** Hessian does not have the Desired Local Structure

 Transition State Search - Taking P-RFO Step
 Searching for Lamda that Maximizes Along the Lowest mode
 Value Taken    Lamda =   0.01071381
 Searching for Lamda that Minimizes Along All other modes
 Value Taken    Lamda =  -0.01742557
 Calculated Step too Large.  Step scaled by  0.080841
 Step Taken.  Stepsize is  0.100000

                             Maximum     Tolerance    Cnvgd?
         Gradient           0.014436      0.000010      NO
         Displacement       0.042714      0.001200      NO
         Energy change     -0.000247      0.000001      NO


 New Cartesian Coordinates Obtained by Inverse Iteration

 Displacement from previous Coordinates is:  0.096473
 ----------------------------------------------------------------
             Standard Nuclear Orientation (Angstroms)
    I     Atom           X                Y                Z
 ----------------------------------------------------------------
    1      C       1.4340913911     0.3917193102    -0.1041720981
    2      C       0.7055334760    -0.9465049041    -0.1315706989
    3      C      -0.6685063949    -0.8781383324    -0.7137927258
    4      C      -1.0534986778     0.2794624229     0.2673859249
    5      C      -0.4823893712     1.4659812088    -0.4704783432
    6      N       0.8080950314     1.4939771152    -0.5739142682
    7      H       2.4516472324     0.4596467888     0.2683997116
    8      H       1.3184855273    -1.8450454654    -0.1376096960
    9      H      -1.2919752344    -1.6535777954    -1.1292153783
   10      H      -2.0711595305     0.4025215177     0.6431294561
   11      H      -1.1115952824     2.1275447016    -1.0642028536
   12      C       0.0093799767    -0.4301077930     1.0669766779
   13      H      -0.0701501778    -0.8762822810     2.0558977136
 ----------------------------------------------------------------
 Nuclear Repulsion Energy =   279.8109891760 hartrees
 There are       25 alpha and       24 beta electrons
 Applying Cartesian multipole field
    Component          Value
    ---------          -----
     (2,0,0)        1.00000E-11
     (0,2,0)        2.00000E-11
     (0,0,2)       -3.00000E-11
 Nucleus-field energy     =     0.0000000031 hartrees
 Requested basis set is 6-31G(d)
 There are 40 shells and 117 basis functions
 A cutoff of  1.0D-14 yielded    811 shell pairs
 There are      7083 function pairs
 Smallest overlap matrix eigenvalue = 1.95E-03
 Guess MOs from SCF MO coefficient file
 Reading MOs from coefficient file
 Reading MOs from coefficient file
 An unrestricted hybrid HF-DFT SCF calculation will be
 performed using Pulay DIIS extrapolation
 Exchange:     0.2000 Hartree-Fock + 0.0800 Slater + 0.7200 B88
 Correlation:  0.1900 VWN1RPA + 0.8100 LYP
 Using SG-1 standard quadrature grid
 SCF converges when DIIS error is below 1.0E-08
 Geometry optimization detected.  Setting ReadMinima to 0
 Setting SaveMinima to 0
Using Q-Chem read-in guess as SCF_GUESS READ specified.

 using 4 threads for integral computing
 -------------------------------------------------------
 OpenMP Integral computing Module                
 Release: version 1.0, May 2013, Q-Chem Inc. Pittsburgh 
 -------------------------------------------------------
 -------------------------------------------------------
 OpenMP BLAS3 based DFT computing Module                
 Release: version 1.0, May 2013, Q-Chem Inc. Pittsburgh 
 -------------------------------------------------------
 ---------------------------------------
  Cycle       Energy         DIIS Error
 ---------------------------------------
    1    -286.7835764673      5.00E-04
    2    -286.7831330591      8.12E-05
    3    -286.7831412610      1.23E-04
    4    -286.7831701784      4.61E-05
    5    -286.7831778166      9.78E-06
    6    -286.7831850687      1.38E-05
    7    -286.7831901357      8.30E-06
    8    -286.7831945500      7.49E-06
    9    -286.7831996081      3.92E-06
   10    -286.7832018442      1.73E-06
   11    -286.7832026286      7.29E-07
   12    -286.7832028012      2.41E-07
   13    -286.7832028394      9.00E-08
   14    -286.7832028428      5.47E-08
   15    -286.7832028437      1.07E-08
   16    -286.7832028438      3.29E-09 Convergence criterion met
 ---------------------------------------
 <S^2> = 0.7565
 SCF time:  CPU 40.66 s  wall 14.70 s
 SCF   energy in the final basis set = -286.78320284
 Total energy in the final basis set = -286.78320284
 
 --------------------------------------------------------------
 
                    Orbital Energies (a.u.)
 --------------------------------------------------------------
 
 Alpha MOs
 -- Occupied --
-14.328 -10.232 -10.224 -10.217 -10.209 -10.209 -10.197  -0.962
 -0.862  -0.747  -0.638  -0.623  -0.598  -0.536  -0.493  -0.455
 -0.448  -0.420  -0.402  -0.374  -0.353  -0.290  -0.277  -0.228
 -0.135
 -- Virtual --
 -0.036   0.044   0.093   0.129   0.151   0.151   0.160   0.163
  0.191   0.196   0.213   0.255   0.278   0.296   0.360   0.401
  0.491   0.509   0.515   0.541   0.544   0.564   0.598   0.609
  0.620   0.648   0.656   0.696   0.703   0.749   0.755   0.802
  0.825   0.833   0.850   0.857   0.868   0.879   0.926   0.936
  0.944   1.024   1.087   1.107   1.157   1.229   1.269   1.321
  1.358   1.398   1.459   1.503   1.564   1.595   1.697   1.738
  1.761   1.802   1.830   1.847   1.907   1.995   2.029   2.054
  2.087   2.162   2.190   2.241   2.287   2.314   2.344   2.361
  2.401   2.442   2.458   2.556   2.568   2.583   2.643   2.665
  2.681   2.742   2.824   2.960   3.079   4.002   4.183   4.234
  4.340   4.431   4.533   4.536
 
 Beta MOs
 -- Occupied --
-14.328 -10.230 -10.223 -10.215 -10.209 -10.209 -10.185  -0.959
 -0.854  -0.743  -0.629  -0.610  -0.594  -0.532  -0.489  -0.446
 -0.445  -0.418  -0.396  -0.367  -0.349  -0.282  -0.270  -0.208
 -- Virtual --
 -0.031  -0.015   0.056   0.095   0.136   0.152   0.154   0.163
  0.167   0.194   0.200   0.218   0.257   0.281   0.300   0.369
  0.403   0.503   0.513   0.520   0.543   0.551   0.583   0.602
  0.618   0.625   0.658   0.665   0.703   0.709   0.753   0.758
  0.804   0.826   0.836   0.854   0.860   0.872   0.880   0.931
  0.940   0.947   1.028   1.101   1.111   1.162   1.234   1.279
  1.325   1.362   1.403   1.465   1.507   1.571   1.601   1.705
  1.745   1.766   1.822   1.841   1.852   1.913   2.008   2.034
  2.061   2.096   2.173   2.198   2.252   2.298   2.321   2.352
  2.372   2.411   2.447   2.471   2.562   2.570   2.594   2.647
  2.670   2.685   2.748   2.830   2.962   3.082   4.004   4.185
  4.250   4.350   4.435   4.537   4.539
 --------------------------------------------------------------
 
          Ground-State Mulliken Net Atomic Charges

     Atom                 Charge (a.u.)    Spin (a.u.)
  --------------------------------------------------------
      1 C                     0.010825       0.122904
      2 C                    -0.174919      -0.031049
      3 C                    -0.124957       0.882625
      4 C                    -0.252970      -0.022501
      5 C                     0.105014       0.025219
      6 N                    -0.340279       0.014547
      7 H                     0.155951      -0.003148
      8 H                     0.144649      -0.001087
      9 H                     0.144121      -0.044789
     10 H                     0.140441       0.002051
     11 H                     0.147702      -0.001118
     12 C                    -0.106723       0.051763
     13 H                     0.151145       0.004583
  --------------------------------------------------------
  Sum of atomic charges =    -0.000000
  Sum of spin   charges =     1.000000

 -----------------------------------------------------------------
                    Cartesian Multipole Moments
 -----------------------------------------------------------------
    Charge (ESU x 10^10)
                 0.0000
    Dipole Moment (Debye)
         X      -0.9793      Y      -1.7286      Z       1.1913
       Tot       2.3165
    Quadrupole Moments (Debye-Ang)
        XX     -37.3891     XY      -3.4894     YY     -41.8284
        XZ       1.4524     YZ      -0.0202     ZZ     -41.7330
    Octopole Moments (Debye-Ang^2)
       XXX      -8.0021    XXY      -7.6490    XYY      -9.8927
       YYY     -26.8600    XXZ       4.7628    XYZ       2.2159
       YYZ       2.6718    XZZ      -6.4629    YZZ      -9.4114
       ZZZ      14.5303
    Hexadecapole Moments (Debye-Ang^3)
      XXXX    -236.5739   XXXY      -9.0603   XXYY     -90.9084
      XYYY     -23.2984   YYYY    -300.2900   XXXZ       4.3544
      XXYZ      10.6252   XYYZ       9.3388   YYYZ      25.9773
      XXZZ     -68.6663   XYZZ      -4.9076   YYZZ     -71.6309
      XZZZ       0.5641   YZZZ      18.2011   ZZZZ    -143.4157
 -----------------------------------------------------------------
 Calculating analytic gradient of the SCF energy
 Gradient of SCF Energy
            1           2           3           4           5           6
    1   0.0108973   0.0054780  -0.0008824   0.0046172  -0.0053154   0.0062761
    2   0.0057517   0.0133995  -0.0086984   0.0047954   0.0009428  -0.0052835
    3  -0.0222665   0.0076566   0.0173685   0.0039614   0.0002067   0.0076240
            7           8           9          10          11          12
    1   0.0011239  -0.0004543   0.0012971  -0.0007066  -0.0010222  -0.0181061
    2   0.0009534   0.0006000   0.0034193   0.0020299  -0.0014523  -0.0127054
    3  -0.0009277   0.0018017  -0.0044992  -0.0005572  -0.0016197  -0.0083755
           13
    1  -0.0032025
    2  -0.0037522
    3  -0.0003732
 Max gradient component =       2.227E-02
 RMS gradient           =       7.414E-03
 Gradient time:  CPU 7.54 s  wall 2.03 s
 Geometry Optimization Parameters
   NAtoms,    NIC,     NZ,  NCons,   NDum,   NFix, NCnnct, MaxDiis
       13     127       0       0       0       0       0       0

 Cartesian Hessian Update
 Hessian Updated using Powell/Murtagh-Sargent Update
  Mixing factors:     0.947039 Powell
                      0.052961 Murtagh-Sargent


** GEOMETRY OPTIMIZATION IN DELOCALIZED INTERNAL COORDINATES **
   Searching for a Transition State

   Optimization Cycle:   3

                       Coordinates (Angstroms)
     ATOM                X               Y               Z
      1  C         1.4340913911    0.3917193102   -0.1041720981
      2  C         0.7055334760   -0.9465049041   -0.1315706989
      3  C        -0.6685063949   -0.8781383324   -0.7137927258
      4  C        -1.0534986778    0.2794624229    0.2673859249
      5  C        -0.4823893712    1.4659812088   -0.4704783432
      6  N         0.8080950314    1.4939771152   -0.5739142682
      7  H         2.4516472324    0.4596467888    0.2683997116
      8  H         1.3184855273   -1.8450454654   -0.1376096960
      9  H        -1.2919752344   -1.6535777954   -1.1292153783
     10  H        -2.0711595305    0.4025215177    0.6431294561
     11  H        -1.1115952824    2.1275447016   -1.0642028536
     12  C         0.0093799767   -0.4301077930    1.0669766779
     13  H        -0.0701501778   -0.8762822810    2.0558977136
   Point Group: c1    Number of degrees of freedom:    33


   Energy is   -286.783202844

 Hessian Updated using Powell/Murtagh-Sargent Update
  Mixing factors:     0.890686 Powell
                      0.109314 Murtagh-Sargent

 33 Hessian modes will be used to form the next step
  Hessian Eigenvalues:
    -0.042515   -0.002780    0.001122    0.004673    0.013240    0.013513
     0.017148    0.018762    0.025042    0.026626    0.028386    0.031768
     0.035561    0.047504    0.074354    0.110505    0.113956    0.116780
     0.131310    0.159054    0.172299    0.180848    0.224705    0.232585
     0.296146    0.347003    0.355542    0.357643    0.359970    0.363182
     0.380337    0.415749    0.538297
**WARNING** Hessian does not have the Desired Local Structure

 Transition State Search - Taking P-RFO Step
 Searching for Lamda that Maximizes Along the Lowest mode
 Value Taken    Lamda =   0.00884333
 Searching for Lamda that Minimizes Along All other modes
 Value Taken    Lamda =  -0.01562516
 Calculated Step too Large.  Step scaled by  0.090911
 Step Taken.  Stepsize is  0.100000

                             Maximum     Tolerance    Cnvgd?
         Gradient           0.013062      0.000010      NO
         Displacement       0.040127      0.001200      NO
         Energy change     -0.000571      0.000001      NO


 New Cartesian Coordinates Obtained by Inverse Iteration

 Displacement from previous Coordinates is:  0.084205
 ----------------------------------------------------------------
             Standard Nuclear Orientation (Angstroms)
    I     Atom           X                Y                Z
 ----------------------------------------------------------------
    1      C       1.4308865881     0.3909590101    -0.1027090004
    2      C       0.7077590956    -0.9481551726    -0.1367157846
    3      C      -0.6674031735    -0.8825462720    -0.7170488323
    4      C      -1.0535607934     0.2822844650     0.2576648981
    5      C      -0.4817579919     1.4733208826    -0.4686940394
    6      N       0.8082288854     1.4984356748    -0.5723315135
    7      H       2.4479890829     0.4572381103     0.2712160612
    8      H       1.3205795030    -1.8467677436    -0.1392534656
    9      H      -1.2914604862    -1.6729727435    -1.1031068142
   10      H      -2.0710535787     0.4004695674     0.6351344313
   11      H      -1.1084514770     2.1448011093    -1.0537415546
   12      C       0.0091735864    -0.4304305252     1.0584906768
   13      H      -0.0729712746    -0.8754398689     2.0479283589
 ----------------------------------------------------------------
 Nuclear Repulsion Energy =   279.7800952588 hartrees
 There are       25 alpha and       24 beta electrons
 Applying Cartesian multipole field
    Component          Value
    ---------          -----
     (2,0,0)        1.00000E-11
     (0,2,0)        2.00000E-11
     (0,0,2)       -3.00000E-11
 Nucleus-field energy     =     0.0000000032 hartrees
 Requested basis set is 6-31G(d)
 There are 40 shells and 117 basis functions
 A cutoff of  1.0D-14 yielded    811 shell pairs
 There are      7083 function pairs
 Smallest overlap matrix eigenvalue = 1.97E-03
 Guess MOs from SCF MO coefficient file
 Reading MOs from coefficient file
 Reading MOs from coefficient file
 An unrestricted hybrid HF-DFT SCF calculation will be
 performed using Pulay DIIS extrapolation
 Exchange:     0.2000 Hartree-Fock + 0.0800 Slater + 0.7200 B88
 Correlation:  0.1900 VWN1RPA + 0.8100 LYP
 Using SG-1 standard quadrature grid
 SCF converges when DIIS error is below 1.0E-08
 Geometry optimization detected.  Setting ReadMinima to 0
 Setting SaveMinima to 0
Using Q-Chem read-in guess as SCF_GUESS READ specified.

 using 4 threads for integral computing
 -------------------------------------------------------
 OpenMP Integral computing Module                
 Release: version 1.0, May 2013, Q-Chem Inc. Pittsburgh 
 -------------------------------------------------------
 -------------------------------------------------------
 OpenMP BLAS3 based DFT computing Module                
 Release: version 1.0, May 2013, Q-Chem Inc. Pittsburgh 
 -------------------------------------------------------
 ---------------------------------------
  Cycle       Energy         DIIS Error
 ---------------------------------------
    1    -286.7840067935      3.58E-04
    2    -286.7838064506      5.67E-05
    3    -286.7838154526      8.20E-05
    4    -286.7838279385      2.71E-05
    5    -286.7838312501      8.75E-06
    6    -286.7838340278      1.03E-05
    7    -286.7838356105      5.25E-06
    8    -286.7838374164      4.86E-06
    9    -286.7838391352      2.90E-06
   10    -286.7838402678      1.40E-06
   11    -286.7838406814      5.46E-07
   12    -286.7838407637      1.54E-07
   13    -286.7838407733      8.62E-08
   14    -286.7838407765      3.86E-08
   15    -286.7838407767      1.14E-08
   16    -286.7838407767      2.39E-09 Convergence criterion met
 ---------------------------------------
 <S^2> = 0.7588
 SCF time:  CPU 40.75 s  wall 13.92 s
 SCF   energy in the final basis set = -286.78384078
 Total energy in the final basis set = -286.78384078
 
 --------------------------------------------------------------
 
                    Orbital Energies (a.u.)
 --------------------------------------------------------------
 
 Alpha MOs
 -- Occupied --
-14.328 -10.231 -10.223 -10.218 -10.210 -10.209 -10.198  -0.962
 -0.862  -0.747  -0.639  -0.623  -0.598  -0.537  -0.493  -0.454
 -0.447  -0.420  -0.402  -0.374  -0.353  -0.291  -0.277  -0.229
 -0.135
 -- Virtual --
 -0.035   0.044   0.092   0.129   0.150   0.151   0.160   0.163
  0.190   0.196   0.213   0.253   0.279   0.297   0.359   0.400
  0.490   0.509   0.516   0.540   0.543   0.565   0.598   0.609
  0.618   0.647   0.656   0.695   0.702   0.748   0.755   0.803
  0.825   0.832   0.850   0.856   0.868   0.879   0.929   0.936
  0.946   1.024   1.087   1.106   1.159   1.233   1.260   1.323
  1.360   1.397   1.459   1.501   1.564   1.597   1.697   1.735
  1.759   1.801   1.833   1.848   1.905   1.991   2.028   2.052
  2.087   2.164   2.189   2.240   2.285   2.317   2.345   2.361
  2.402   2.441   2.459   2.554   2.568   2.580   2.643   2.664
  2.682   2.742   2.822   2.960   3.078   4.001   4.183   4.233
  4.339   4.431   4.531   4.535
 
 Beta MOs
 -- Occupied --
-14.328 -10.229 -10.222 -10.217 -10.209 -10.209 -10.186  -0.958
 -0.855  -0.743  -0.629  -0.610  -0.594  -0.532  -0.489  -0.446
 -0.444  -0.418  -0.396  -0.367  -0.349  -0.283  -0.269  -0.209
 -- Virtual --
 -0.031  -0.015   0.056   0.095   0.136   0.152   0.154   0.163
  0.167   0.194   0.200   0.218   0.256   0.282   0.300   0.367
  0.402   0.502   0.513   0.521   0.543   0.550   0.584   0.602
  0.618   0.624   0.658   0.664   0.702   0.708   0.753   0.758
  0.805   0.826   0.835   0.853   0.860   0.873   0.880   0.933
  0.941   0.949   1.028   1.100   1.109   1.164   1.238   1.270
  1.326   1.364   1.402   1.464   1.506   1.571   1.602   1.706
  1.742   1.764   1.823   1.842   1.853   1.911   2.004   2.033
  2.058   2.096   2.175   2.198   2.251   2.296   2.323   2.353
  2.372   2.412   2.445   2.473   2.560   2.570   2.590   2.647
  2.669   2.686   2.748   2.828   2.962   3.082   4.002   4.186
  4.249   4.349   4.435   4.536   4.537
 --------------------------------------------------------------
 
          Ground-State Mulliken Net Atomic Charges

     Atom                 Charge (a.u.)    Spin (a.u.)
  --------------------------------------------------------
      1 C                     0.009186       0.145142
      2 C                    -0.173082      -0.027723
      3 C                    -0.124185       0.878723
      4 C                    -0.254255      -0.020267
      5 C                     0.106330       0.045719
      6 N                    -0.341435       0.004970
      7 H                     0.155484      -0.004200
      8 H                     0.145033      -0.001498
      9 H                     0.144390      -0.044189
     10 H                     0.140533       0.001656
     11 H                     0.147056      -0.002292
     12 C                    -0.106414       0.016806
     13 H                     0.151359       0.007154
  --------------------------------------------------------
  Sum of atomic charges =    -0.000000
  Sum of spin   charges =     1.000000

 -----------------------------------------------------------------
                    Cartesian Multipole Moments
 -----------------------------------------------------------------
    Charge (ESU x 10^10)
                -0.0000
    Dipole Moment (Debye)
         X      -0.9886      Y      -1.7667      Z       1.2418
       Tot       2.3750
    Quadrupole Moments (Debye-Ang)
        XX     -37.4431     XY      -3.5022     YY     -41.8013
        XZ       1.4186     YZ      -0.0344     ZZ     -41.7803
    Octopole Moments (Debye-Ang^2)
       XXX      -8.1029    XXY      -7.7898    XYY     -10.0233
       YYY     -27.1288    XXZ       4.9419    XYZ       2.2617
       YYZ       2.8043    XZZ      -6.3423    YZZ      -9.3602
       ZZZ      14.9662
    Hexadecapole Moments (Debye-Ang^3)
      XXXX    -236.6093   XXXY      -9.0919   XXYY     -91.1923
      XYYY     -23.3679   YYYY    -302.1004   XXXZ       4.2376
      XXYZ      10.5606   XYYZ       9.3267   YYYZ      25.8242
      XXZZ     -68.5422   XYZZ      -4.9470   YYZZ     -71.9343
      XZZZ       0.3605   YZZZ      17.9814   ZZZZ    -142.4178
 -----------------------------------------------------------------
 Calculating analytic gradient of the SCF energy
 Gradient of SCF Energy
            1           2           3           4           5           6
    1   0.0105912   0.0049976  -0.0007743   0.0043405  -0.0048863   0.0053975
    2   0.0051414   0.0128916  -0.0087709   0.0047132   0.0009817  -0.0047456
    3  -0.0214611   0.0075181   0.0174751   0.0036531   0.0001860   0.0073206
            7           8           9          10          11          12
    1   0.0010258  -0.0005011   0.0012154  -0.0006031  -0.0009370  -0.0168978
    2   0.0008997   0.0004941   0.0035454   0.0019246  -0.0014583  -0.0120907
    3  -0.0008385   0.0018362  -0.0052839  -0.0003801  -0.0016881  -0.0079642
           13
    1  -0.0029685
    2  -0.0035261
    3  -0.0003731
 Max gradient component =       2.146E-02
 RMS gradient           =       7.142E-03
 Gradient time:  CPU 7.75 s  wall 2.00 s
 Geometry Optimization Parameters
   NAtoms,    NIC,     NZ,  NCons,   NDum,   NFix, NCnnct, MaxDiis
       13     127       0       0       0       0       0       0

 Cartesian Hessian Update
 Hessian Updated using Powell/Murtagh-Sargent Update
  Mixing factors:     0.961657 Powell
                      0.038343 Murtagh-Sargent


** GEOMETRY OPTIMIZATION IN DELOCALIZED INTERNAL COORDINATES **
   Searching for a Transition State

   Optimization Cycle:   4

                       Coordinates (Angstroms)
     ATOM                X               Y               Z
      1  C         1.4308865881    0.3909590101   -0.1027090004
      2  C         0.7077590956   -0.9481551726   -0.1367157846
      3  C        -0.6674031735   -0.8825462720   -0.7170488323
      4  C        -1.0535607934    0.2822844650    0.2576648981
      5  C        -0.4817579919    1.4733208826   -0.4686940394
      6  N         0.8082288854    1.4984356748   -0.5723315135
      7  H         2.4479890829    0.4572381103    0.2712160612
      8  H         1.3205795030   -1.8467677436   -0.1392534656
      9  H        -1.2914604862   -1.6729727435   -1.1031068142
     10  H        -2.0710535787    0.4004695674    0.6351344313
     11  H        -1.1084514770    2.1448011093   -1.0537415546
     12  C         0.0091735864   -0.4304305252    1.0584906768
     13  H        -0.0729712746   -0.8754398689    2.0479283589
   Point Group: c1    Number of degrees of freedom:    33


   Energy is   -286.783840777

 Hessian Updated using Powell/Murtagh-Sargent Update
  Mixing factors:     0.526053 Powell
                      0.473947 Murtagh-Sargent

 33 Hessian modes will be used to form the next step
  Hessian Eigenvalues:
    -0.040898   -0.002625    0.001842    0.005214    0.013254    0.013513
     0.017169    0.018773    0.025068    0.026634    0.028379    0.031777
     0.035563    0.047501    0.074351    0.110511    0.113957    0.116794
     0.131360    0.159065    0.172321    0.180894    0.224723    0.232609
     0.296146    0.347003    0.355542    0.357655    0.359977    0.363196
     0.380376    0.416190    0.538351
**WARNING** Hessian does not have the Desired Local Structure

 Transition State Search - Taking P-RFO Step
 Searching for Lamda that Maximizes Along the Lowest mode
 Value Taken    Lamda =   0.00855296
 Searching for Lamda that Minimizes Along All other modes
 Value Taken    Lamda =  -0.01406608
 Calculated Step too Large.  Step scaled by  0.092454
 Step Taken.  Stepsize is  0.100000

                             Maximum     Tolerance    Cnvgd?
         Gradient           0.012187      0.000010      NO
         Displacement       0.037592      0.001200      NO
         Energy change     -0.000638      0.000001      NO


 New Cartesian Coordinates Obtained by Inverse Iteration

 Displacement from previous Coordinates is:  0.080665
 ----------------------------------------------------------------
             Standard Nuclear Orientation (Angstroms)
    I     Atom           X                Y                Z
 ----------------------------------------------------------------
    1      C       1.4286697544     0.3906847335    -0.1023477181
    2      C       0.7099448800    -0.9491966133    -0.1414801899
    3      C      -0.6661882394    -0.8858385501    -0.7206124922
    4      C      -1.0536810377     0.2851574821     0.2489146479
    5      C      -0.4810455500     1.4798684113    -0.4671178067
    6      N       0.8087068065     1.5025723961    -0.5706908362
    7      H       2.4452290339     0.4555231862     0.2731878103
    8      H       1.3224623744    -1.8479816604    -0.1409533188
    9      H      -1.2902968422    -1.6908825355    -1.0762336185
   10      H      -2.0710973425     0.3987637190     0.6276735342
   11      H      -1.1053699928     2.1602602265    -1.0441625232
   12      C       0.0080686344    -0.4313870249     1.0506496228
   13      H      -0.0774445130    -0.8763472768     2.0400063103
 ----------------------------------------------------------------
 Nuclear Repulsion Energy =   279.7445255069 hartrees
 There are       25 alpha and       24 beta electrons
 Applying Cartesian multipole field
    Component          Value
    ---------          -----
     (2,0,0)        1.00000E-11
     (0,2,0)        2.00000E-11
     (0,0,2)       -3.00000E-11
 Nucleus-field energy     =     0.0000000032 hartrees
 Requested basis set is 6-31G(d)
 There are 40 shells and 117 basis functions
 A cutoff of  1.0D-14 yielded    811 shell pairs
 There are      7083 function pairs
 Smallest overlap matrix eigenvalue = 1.99E-03
 Guess MOs from SCF MO coefficient file
 Reading MOs from coefficient file
 Reading MOs from coefficient file
 An unrestricted hybrid HF-DFT SCF calculation will be
 performed using Pulay DIIS extrapolation
 Exchange:     0.2000 Hartree-Fock + 0.0800 Slater + 0.7200 B88
 Correlation:  0.1900 VWN1RPA + 0.8100 LYP
 Using SG-1 standard quadrature grid
 SCF converges when DIIS error is below 1.0E-08
 Geometry optimization detected.  Setting ReadMinima to 0
 Setting SaveMinima to 0
Using Q-Chem read-in guess as SCF_GUESS READ specified.

 using 4 threads for integral computing
 -------------------------------------------------------
 OpenMP Integral computing Module                
 Release: version 1.0, May 2013, Q-Chem Inc. Pittsburgh 
 -------------------------------------------------------
 -------------------------------------------------------
 OpenMP BLAS3 based DFT computing Module                
 Release: version 1.0, May 2013, Q-Chem Inc. Pittsburgh 
 -------------------------------------------------------
 ---------------------------------------
  Cycle       Energy         DIIS Error
 ---------------------------------------
    1    -286.7844538274      3.11E-04
    2    -286.7843437089      5.13E-05
    3    -286.7843533434      7.28E-05
    4    -286.7843638500      2.46E-05
    5    -286.7843669885      8.90E-06
    6    -286.7843694833      9.40E-06
    7    -286.7843709539      4.55E-06
    8    -286.7843725226      4.32E-06
    9    -286.7843739079      2.28E-06
   10    -286.7843747330      1.21E-06
   11    -286.7843750397      4.49E-07
   12    -286.7843750997      1.58E-07
   13    -286.7843751058      8.68E-08
   14    -286.7843751089      3.50E-08
   15    -286.7843751091      1.01E-08
   16    -286.7843751092      1.95E-09 Convergence criterion met
 ---------------------------------------
 <S^2> = 0.7622
 SCF time:  CPU 40.01 s  wall 13.08 s
 SCF   energy in the final basis set = -286.78437511
 Total energy in the final basis set = -286.78437511
 
 --------------------------------------------------------------
 
                    Orbital Energies (a.u.)
 --------------------------------------------------------------
 
 Alpha MOs
 -- Occupied --
-14.328 -10.231 -10.222 -10.220 -10.210 -10.209 -10.199  -0.962
 -0.863  -0.747  -0.639  -0.623  -0.599  -0.537  -0.493  -0.453
 -0.447  -0.420  -0.403  -0.374  -0.353  -0.292  -0.276  -0.229
 -0.135
 -- Virtual --
 -0.034   0.044   0.092   0.129   0.150   0.151   0.160   0.163
  0.190   0.195   0.212   0.252   0.280   0.297   0.358   0.400
  0.489   0.509   0.518   0.539   0.542   0.566   0.597   0.608
  0.617   0.646   0.656   0.693   0.701   0.748   0.755   0.803
  0.826   0.832   0.850   0.855   0.869   0.879   0.932   0.937
  0.947   1.024   1.087   1.105   1.160   1.237   1.250   1.324
  1.362   1.396   1.459   1.499   1.563   1.598   1.697   1.732
  1.757   1.800   1.836   1.848   1.904   1.989   2.027   2.050
  2.088   2.165   2.188   2.238   2.284   2.318   2.345   2.361
  2.404   2.439   2.459   2.551   2.567   2.578   2.644   2.663
  2.684   2.742   2.821   2.959   3.078   4.000   4.182   4.232
  4.338   4.431   4.529   4.534
 
 Beta MOs
 -- Occupied --
-14.327 -10.229 -10.221 -10.219 -10.210 -10.209 -10.187  -0.958
 -0.856  -0.743  -0.629  -0.611  -0.595  -0.533  -0.489  -0.445
 -0.444  -0.418  -0.397  -0.367  -0.350  -0.283  -0.269  -0.210
 -- Virtual --
 -0.031  -0.015   0.056   0.094   0.136   0.152   0.154   0.163
  0.167   0.194   0.200   0.217   0.255   0.283   0.301   0.366
  0.402   0.502   0.513   0.522   0.542   0.549   0.584   0.602
  0.617   0.623   0.659   0.663   0.700   0.707   0.752   0.759
  0.805   0.827   0.834   0.853   0.859   0.873   0.880   0.934
  0.943   0.951   1.028   1.101   1.109   1.165   1.242   1.261
  1.327   1.366   1.402   1.464   1.504   1.570   1.603   1.706
  1.740   1.762   1.823   1.843   1.853   1.910   2.001   2.031
  2.056   2.097   2.176   2.197   2.251   2.294   2.325   2.353
  2.372   2.414   2.444   2.473   2.558   2.569   2.587   2.648
  2.668   2.688   2.747   2.827   2.962   3.081   4.001   4.186
  4.248   4.347   4.435   4.535   4.535
 --------------------------------------------------------------
 
          Ground-State Mulliken Net Atomic Charges

     Atom                 Charge (a.u.)    Spin (a.u.)
  --------------------------------------------------------
      1 C                     0.008149       0.165733
      2 C                    -0.171867      -0.024194
      3 C                    -0.123419       0.871787
      4 C                    -0.255213      -0.017953
      5 C                     0.107203       0.065498
      6 N                    -0.342533      -0.003647
      7 H                     0.155022      -0.005239
      8 H                     0.145432      -0.001903
      9 H                     0.144641      -0.043156
     10 H                     0.140711       0.001224
     11 H                     0.146463      -0.003446
     12 C                    -0.106134      -0.014212
     13 H                     0.151543       0.009507
  --------------------------------------------------------
  Sum of atomic charges =    -0.000000
  Sum of spin   charges =     1.000000

 -----------------------------------------------------------------
                    Cartesian Multipole Moments
 -----------------------------------------------------------------
    Charge (ESU x 10^10)
                -0.0000
    Dipole Moment (Debye)
         X      -0.9965      Y      -1.8051      Z       1.2890
       Tot       2.4317
    Quadrupole Moments (Debye-Ang)
        XX     -37.4931     XY      -3.5117     YY     -41.7779
        XZ       1.3807     YZ      -0.0539     ZZ     -41.8305
    Octopole Moments (Debye-Ang^2)
       XXX      -8.1994    XXY      -7.9217    XYY     -10.1421
       YYY     -27.4088    XXZ       5.1212    XYZ       2.3102
       YYZ       2.9365    XZZ      -6.2254    YZZ      -9.3063
       ZZZ      15.3862
    Hexadecapole Moments (Debye-Ang^3)
      XXXX    -236.7141   XXXY      -9.1526   XXYY     -91.4730
      XYYY     -23.4548   YYYY    -303.7412   XXXZ       4.1747
      XXYZ      10.4995   XYYZ       9.3123   YYYZ      25.6827
      XXZZ     -68.4555   XYZZ      -4.9967   YYZZ     -72.2169
      XZZZ       0.2172   YZZZ      17.7911   ZZZZ    -141.5367
 -----------------------------------------------------------------
 Calculating analytic gradient of the SCF energy
 Gradient of SCF Energy
            1           2           3           4           5           6
    1   0.0101206   0.0043596  -0.0006888   0.0040465  -0.0043728   0.0044747
    2   0.0045702   0.0121284  -0.0087187   0.0044990   0.0010156  -0.0042425
    3  -0.0202781   0.0072862   0.0172708   0.0033591   0.0001631   0.0069127
            7           8           9          10          11          12
    1   0.0009327  -0.0005393   0.0011135  -0.0005034  -0.0008529  -0.0154045
    2   0.0008475   0.0004010   0.0036068   0.0017992  -0.0014420  -0.0112107
    3  -0.0007540   0.0018559  -0.0060136  -0.0002067  -0.0017300  -0.0075112
           13
    1  -0.0026857
    2  -0.0032537
    3  -0.0003541
 Max gradient component =       2.028E-02
 RMS gradient           =       6.766E-03
 Gradient time:  CPU 8.09 s  wall 2.81 s
 Geometry Optimization Parameters
   NAtoms,    NIC,     NZ,  NCons,   NDum,   NFix, NCnnct, MaxDiis
       13     127       0       0       0       0       0       0

 Cartesian Hessian Update
 Hessian Updated using Powell/Murtagh-Sargent Update
  Mixing factors:     0.985949 Powell
                      0.014051 Murtagh-Sargent


** GEOMETRY OPTIMIZATION IN DELOCALIZED INTERNAL COORDINATES **
   Searching for a Transition State

   Optimization Cycle:   5

                       Coordinates (Angstroms)
     ATOM                X               Y               Z
      1  C         1.4286697544    0.3906847335   -0.1023477181
      2  C         0.7099448800   -0.9491966133   -0.1414801899
      3  C        -0.6661882394   -0.8858385501   -0.7206124922
      4  C        -1.0536810377    0.2851574821    0.2489146479
      5  C        -0.4810455500    1.4798684113   -0.4671178067
      6  N         0.8087068065    1.5025723961   -0.5706908362
      7  H         2.4452290339    0.4555231862    0.2731878103
      8  H         1.3224623744   -1.8479816604   -0.1409533188
      9  H        -1.2902968422   -1.6908825355   -1.0762336185
     10  H        -2.0710973425    0.3987637190    0.6276735342
     11  H        -1.1053699928    2.1602602265   -1.0441625232
     12  C         0.0080686344   -0.4313870249    1.0506496228
     13  H        -0.0774445130   -0.8763472768    2.0400063103
   Point Group: c1    Number of degrees of freedom:    33


   Energy is   -286.784375109

 Hessian Updated using Powell/Murtagh-Sargent Update
  Mixing factors:     0.918958 Powell
                      0.081042 Murtagh-Sargent

 33 Hessian modes will be used to form the next step
  Hessian Eigenvalues:
    -0.042092   -0.001570    0.002333    0.006025    0.013280    0.013510
     0.017174    0.018793    0.025089    0.026683    0.028393    0.031769
     0.035593    0.047497    0.074407    0.110520    0.113970    0.116828
     0.131677    0.159064    0.172329    0.181045    0.224757    0.232629
     0.296150    0.347004    0.355542    0.357668    0.359978    0.363200
     0.380388    0.416382    0.538691
**WARNING** Hessian does not have the Desired Local Structure

 Transition State Search - Taking P-RFO Step
 Searching for Lamda that Maximizes Along the Lowest mode
 Value Taken    Lamda =   0.00695636
 Searching for Lamda that Minimizes Along All other modes
 Value Taken    Lamda =  -0.01312642
 Calculated Step too Large.  Step scaled by  0.099794
 Step Taken.  Stepsize is  0.100000

                             Maximum     Tolerance    Cnvgd?
         Gradient           0.011229      0.000010      NO
         Displacement       0.036157      0.001200      NO
         Energy change     -0.000534      0.000001      NO


 New Cartesian Coordinates Obtained by Inverse Iteration

 Displacement from previous Coordinates is:  0.078775
 ----------------------------------------------------------------
             Standard Nuclear Orientation (Angstroms)
    I     Atom           X                Y                Z
 ----------------------------------------------------------------
    1      C       1.4262515123     0.3904164969    -0.1015366895
    2      C       0.7120115701    -0.9499971944    -0.1467322293
    3      C      -0.6652319133    -0.8882090831    -0.7243507482
    4      C      -1.0538753927     0.2877492700     0.2405588583
    5      C      -0.4803679291     1.4856341020    -0.4661452649
    6      N       0.8094467209     1.5065086331    -0.5687685197
    7      H       2.4420653055     0.4534448039     0.2762035865
    8      H       1.3241265402    -1.8490056247    -0.1439240310
    9      H      -1.2888269359    -1.7073995825    -1.0486260190
   10      H      -2.0712269728     0.3968321678     0.6204425298
   11      H      -1.1023119993     2.1743782630    -1.0355730327
   12      C       0.0072831778    -0.4318669284     1.0431402379
   13      H      -0.0813857178    -0.8772888296     2.0321447439
 ----------------------------------------------------------------
 Nuclear Repulsion Energy =   279.7308224534 hartrees
 There are       25 alpha and       24 beta electrons
 Applying Cartesian multipole field
    Component          Value
    ---------          -----
     (2,0,0)        1.00000E-11
     (0,2,0)        2.00000E-11
     (0,0,2)       -3.00000E-11
 Nucleus-field energy     =     0.0000000033 hartrees
 Requested basis set is 6-31G(d)
 There are 40 shells and 117 basis functions
 A cutoff of  1.0D-14 yielded    811 shell pairs
 There are      7083 function pairs
 Smallest overlap matrix eigenvalue = 2.02E-03
 Guess MOs from SCF MO coefficient file
 Reading MOs from coefficient file
 Reading MOs from coefficient file
 An unrestricted hybrid HF-DFT SCF calculation will be
 performed using Pulay DIIS extrapolation
 Exchange:     0.2000 Hartree-Fock + 0.0800 Slater + 0.7200 B88
 Correlation:  0.1900 VWN1RPA + 0.8100 LYP
 Using SG-1 standard quadrature grid
 SCF converges when DIIS error is below 1.0E-08
 Geometry optimization detected.  Setting ReadMinima to 0
 Setting SaveMinima to 0
Using Q-Chem read-in guess as SCF_GUESS READ specified.

 using 4 threads for integral computing
 -------------------------------------------------------
 OpenMP Integral computing Module                
 Release: version 1.0, May 2013, Q-Chem Inc. Pittsburgh 
 -------------------------------------------------------
 -------------------------------------------------------
 OpenMP BLAS3 based DFT computing Module                
 Release: version 1.0, May 2013, Q-Chem Inc. Pittsburgh 
 -------------------------------------------------------
 ---------------------------------------
  Cycle       Energy         DIIS Error
 ---------------------------------------
    1    -286.7851266593      2.91E-04
    2    -286.7849836157      4.97E-05
    3    -286.7849908620      7.14E-05
    4    -286.7850005402      1.97E-05
    5    -286.7850025599      9.90E-06
    6    -286.7850040075      7.17E-06
    7    -286.7850048621      2.91E-06
    8    -286.7850056320      3.50E-06
    9    -286.7850062598      1.85E-06
   10    -286.7850067774      1.03E-06
   11    -286.7850069563      4.10E-07
   12    -286.7850069947      1.35E-07
   13    -286.7850069994      7.26E-08
   14    -286.7850070015      3.01E-08
   15    -286.7850070017      9.13E-09 Convergence criterion met
 ---------------------------------------
 <S^2> = 0.7652
 SCF time:  CPU 38.45 s  wall 12.87 s
 SCF   energy in the final basis set = -286.78500700
 Total energy in the final basis set = -286.78500700
 
 --------------------------------------------------------------
 
                    Orbital Energies (a.u.)
 --------------------------------------------------------------
 
 Alpha MOs
 -- Occupied --
-14.327 -10.231 -10.221 -10.221 -10.210 -10.210 -10.200  -0.961
 -0.863  -0.748  -0.639  -0.623  -0.599  -0.538  -0.493  -0.453
 -0.447  -0.420  -0.404  -0.374  -0.354  -0.293  -0.276  -0.230
 -0.135
 -- Virtual --
 -0.034   0.044   0.091   0.129   0.150   0.151   0.160   0.163
  0.189   0.195   0.212   0.252   0.281   0.298   0.356   0.400
  0.488   0.509   0.520   0.538   0.541   0.566   0.597   0.608
  0.615   0.646   0.656   0.692   0.701   0.748   0.756   0.803
  0.826   0.831   0.850   0.855   0.869   0.879   0.933   0.938
  0.950   1.023   1.087   1.105   1.162   1.239   1.242   1.325
  1.364   1.396   1.459   1.498   1.563   1.600   1.697   1.730
  1.755   1.799   1.839   1.849   1.903   1.986   2.026   2.048
  2.089   2.166   2.187   2.237   2.282   2.320   2.345   2.362
  2.405   2.438   2.460   2.549   2.567   2.576   2.644   2.661
  2.685   2.741   2.819   2.959   3.077   3.999   4.182   4.231
  4.337   4.430   4.528   4.533
 
 Beta MOs
 -- Occupied --
-14.327 -10.228 -10.220 -10.220 -10.210 -10.209 -10.188  -0.958
 -0.857  -0.743  -0.630  -0.611  -0.595  -0.533  -0.489  -0.445
 -0.444  -0.418  -0.397  -0.366  -0.350  -0.284  -0.268  -0.211
 -- Virtual --
 -0.031  -0.014   0.056   0.094   0.135   0.152   0.154   0.164
  0.168   0.193   0.199   0.217   0.254   0.284   0.302   0.365
  0.402   0.501   0.513   0.523   0.541   0.548   0.585   0.602
  0.617   0.622   0.659   0.663   0.699   0.706   0.752   0.759
  0.805   0.827   0.833   0.853   0.859   0.874   0.880   0.935
  0.944   0.954   1.027   1.101   1.108   1.166   1.245   1.253
  1.328   1.368   1.402   1.464   1.502   1.570   1.604   1.706
  1.738   1.760   1.822   1.845   1.854   1.909   1.999   2.030
  2.054   2.099   2.178   2.196   2.251   2.292   2.327   2.352
  2.372   2.415   2.442   2.474   2.555   2.569   2.585   2.649
  2.666   2.689   2.746   2.826   2.961   3.081   4.000   4.186
  4.247   4.346   4.435   4.534   4.535
 --------------------------------------------------------------
 
          Ground-State Mulliken Net Atomic Charges

     Atom                 Charge (a.u.)    Spin (a.u.)
  --------------------------------------------------------
      1 C                     0.007696       0.179760
      2 C                    -0.170968      -0.020562
      3 C                    -0.122547       0.864054
      4 C                    -0.256008      -0.015682
      5 C                     0.107916       0.080845
      6 N                    -0.343662      -0.010208
      7 H                     0.154720      -0.005992
      8 H                     0.145879      -0.002271
      9 H                     0.144720      -0.041837
     10 H                     0.140939       0.000807
     11 H                     0.146044      -0.004345
     12 C                    -0.106372      -0.035897
     13 H                     0.151644       0.011329
  --------------------------------------------------------
  Sum of atomic charges =    -0.000000
  Sum of spin   charges =     1.000000

 -----------------------------------------------------------------
                    Cartesian Multipole Moments
 -----------------------------------------------------------------
    Charge (ESU x 10^10)
                 0.0000
    Dipole Moment (Debye)
         X      -1.0001      Y      -1.8371      Z       1.3312
       Tot       2.4794
    Quadrupole Moments (Debye-Ang)
        XX     -37.5337     XY      -3.5269     YY     -41.7530
        XZ       1.3387     YZ      -0.0806     ZZ     -41.8899
    Octopole Moments (Debye-Ang^2)
       XXX      -8.2729    XXY      -8.0435    XYY     -10.2533
       YYY     -27.6710    XXZ       5.3021    XYZ       2.3680
       YYZ       3.0690    XZZ      -6.1048    YZZ      -9.2421
       ZZZ      15.7903
    Hexadecapole Moments (Debye-Ang^3)
      XXXX    -236.7471   XXXY      -9.2275   XXYY     -91.7222
      XYYY     -23.5642   YYYY    -305.1375   XXXZ       4.0835
      XXYZ      10.4231   XYYZ       9.2699   YYYZ      25.5037
      XXZZ     -68.3750   XYZZ      -5.0615   YYZZ     -72.4832
      XZZZ       0.0416   YZZZ      17.5759   ZZZZ    -140.7717
 -----------------------------------------------------------------
 Calculating analytic gradient of the SCF energy
 Gradient of SCF Energy
            1           2           3           4           5           6
    1   0.0096813   0.0039836  -0.0005431   0.0037486  -0.0040797   0.0038601
    2   0.0040833   0.0114857  -0.0084801   0.0043843   0.0010398  -0.0038142
    3  -0.0193582   0.0070616   0.0172305   0.0029596   0.0001628   0.0065784
            7           8           9          10          11          12
    1   0.0008523  -0.0005698   0.0009801  -0.0004099  -0.0007735  -0.0142764
    2   0.0007836   0.0003094   0.0035400   0.0016512  -0.0014078  -0.0105698
    3  -0.0006915   0.0018709  -0.0065864  -0.0000432  -0.0017349  -0.0071053
           13
    1  -0.0024535
    2  -0.0030056
    3  -0.0003441
 Max gradient component =       1.936E-02
 RMS gradient           =       6.478E-03
 Gradient time:  CPU 7.58 s  wall 2.02 s
 Geometry Optimization Parameters
   NAtoms,    NIC,     NZ,  NCons,   NDum,   NFix, NCnnct, MaxDiis
       13     127       0       0       0       0       0       0

 Cartesian Hessian Update
 Hessian Updated using Powell/Murtagh-Sargent Update
  Mixing factors:     0.989057 Powell
                      0.010943 Murtagh-Sargent


** GEOMETRY OPTIMIZATION IN DELOCALIZED INTERNAL COORDINATES **
   Searching for a Transition State

   Optimization Cycle:   6

                       Coordinates (Angstroms)
     ATOM                X               Y               Z
      1  C         1.4262515123    0.3904164969   -0.1015366895
      2  C         0.7120115701   -0.9499971944   -0.1467322293
      3  C        -0.6652319133   -0.8882090831   -0.7243507482
      4  C        -1.0538753927    0.2877492700    0.2405588583
      5  C        -0.4803679291    1.4856341020   -0.4661452649
      6  N         0.8094467209    1.5065086331   -0.5687685197
      7  H         2.4420653055    0.4534448039    0.2762035865
      8  H         1.3241265402   -1.8490056247   -0.1439240310
      9  H        -1.2888269359   -1.7073995825   -1.0486260190
     10  H        -2.0712269728    0.3968321678    0.6204425298
     11  H        -1.1023119993    2.1743782630   -1.0355730327
     12  C         0.0072831778   -0.4318669284    1.0431402379
     13  H        -0.0813857178   -0.8772888296    2.0321447439
   Point Group: c1    Number of degrees of freedom:    33


   Energy is   -286.785007002

 Hessian Updated using Powell/Murtagh-Sargent Update
  Mixing factors:     0.837496 Powell
                      0.162504 Murtagh-Sargent

 33 Hessian modes will be used to form the next step
  Hessian Eigenvalues:
    -0.039954   -0.001967    0.002330    0.006112    0.013265    0.013508
     0.017170    0.018793    0.025118    0.026689    0.028378    0.031766
     0.035605    0.047487    0.074402    0.110521    0.113974    0.116828
     0.131672    0.159080    0.172343    0.181048    0.224764    0.232633
     0.296149    0.347004    0.355542    0.357668    0.359981    0.363203
     0.380408    0.416472    0.538703
**WARNING** Hessian does not have the Desired Local Structure

 Transition State Search - Taking P-RFO Step
 Searching for Lamda that Maximizes Along the Lowest mode
 Value Taken    Lamda =   0.00668012
 Searching for Lamda that Minimizes Along All other modes
 Value Taken    Lamda =  -0.01240462
 Calculated Step too Large.  Step scaled by  0.097603
 Step Taken.  Stepsize is  0.100000

                             Maximum     Tolerance    Cnvgd?
         Gradient           0.010447      0.000010      NO
         Displacement       0.035062      0.001200      NO
         Energy change     -0.000632      0.000001      NO


 New Cartesian Coordinates Obtained by Inverse Iteration

 Displacement from previous Coordinates is:  0.077527
 ----------------------------------------------------------------
             Standard Nuclear Orientation (Angstroms)
    I     Atom           X                Y                Z
 ----------------------------------------------------------------
    1      C       1.4244433604     0.3904822941    -0.1013196432
    2      C       0.7140674158    -0.9504595206    -0.1518142806
    3      C      -0.6642416770    -0.8902073674    -0.7282229379
    4      C      -1.0540635996     0.2903774719     0.2327755386
    5      C      -0.4795961191     1.4909574412    -0.4652270524
    6      N       0.8103721254     1.5102181150    -0.5668876615
    7      H       2.4394725521     0.4518878810     0.2787174847
    8      H       1.3257863942    -1.8496721039    -0.1469123305
    9      H      -1.2869914317    -1.7227247391    -1.0202780806
   10      H      -2.0714400620     0.3952112649     0.6134113723
   11      H      -1.0993118375     2.1873777256    -1.0274694440
   12      C       0.0058858424    -0.4328629460     1.0358776156
   13      H      -0.0864249974    -0.8793890229     2.0241828414
 ----------------------------------------------------------------
 Nuclear Repulsion Energy =   279.7132514206 hartrees
 There are       25 alpha and       24 beta electrons
 Applying Cartesian multipole field
    Component          Value
    ---------          -----
     (2,0,0)        1.00000E-11
     (0,2,0)        2.00000E-11
     (0,0,2)       -3.00000E-11
 Nucleus-field energy     =     0.0000000033 hartrees
 Requested basis set is 6-31G(d)
 There are 40 shells and 117 basis functions
 A cutoff of  1.0D-14 yielded    811 shell pairs
 There are      7083 function pairs
 Smallest overlap matrix eigenvalue = 2.04E-03
 Guess MOs from SCF MO coefficient file
 Reading MOs from coefficient file
 Reading MOs from coefficient file
 An unrestricted hybrid HF-DFT SCF calculation will be
[...]
 Value Taken    Lamda =   0.00000001
 Searching for Lamda that Minimizes Along All other modes
 Value Taken    Lamda =   0.00000000
 Step Taken.  Stepsize is  0.001229

                             Maximum     Tolerance    Cnvgd?
         Gradient           0.000022      0.000010      NO
         Displacement       0.000527      0.001200     YES
         Energy change     -0.000000      0.000001     YES


 New Cartesian Coordinates Obtained by Inverse Iteration

 Displacement from previous Coordinates is:  0.000948
 ----------------------------------------------------------------
             Standard Nuclear Orientation (Angstroms)
    I     Atom           X                Y                Z
 ----------------------------------------------------------------
    1      C       1.3784042585     0.4003618997    -0.0701552906
    2      C       0.7575017867    -0.9520031978    -0.2761066785
    3      C      -0.6763645901    -0.9526091268    -0.6954073333
    4      C      -1.0621059945     0.3345912484     0.1117951026
    5      C      -0.4664680365     1.5458417908    -0.4916912016
    6      N       0.8386749427     1.5664762950    -0.5316862548
    7      H       2.3746140752     0.4143112193     0.3620880771
    8      H       1.3714034475    -1.8463586851    -0.2497419666
    9      H      -1.2277271580    -1.8743211902    -0.5076377922
   10      H      -2.0808819008     0.3919869727     0.4907483178
   11      H      -1.0544990317     2.3529368460    -0.9197208008
   12      C      -0.0028153191    -0.4325902818     0.9078303581
   13      H      -0.1717785139    -0.9574272963     1.8465188847
 ----------------------------------------------------------------
 Nuclear Repulsion Energy =   280.4785536246 hartrees
 There are       25 alpha and       24 beta electrons
 Applying Cartesian multipole field
    Component          Value
    ---------          -----
     (2,0,0)        1.00000E-11
     (0,2,0)        2.00000E-11
     (0,0,2)       -3.00000E-11
 Nucleus-field energy     =     0.0000000040 hartrees
 Requested basis set is 6-31G(d)
 There are 40 shells and 117 basis functions
 A cutoff of  1.0D-14 yielded    810 shell pairs
 There are      7082 function pairs
 Smallest overlap matrix eigenvalue = 2.06E-03
 Guess MOs from SCF MO coefficient file
 Reading MOs from coefficient file
 Reading MOs from coefficient file
 An unrestricted hybrid HF-DFT SCF calculation will be
 performed using Pulay DIIS extrapolation
 Exchange:     0.2000 Hartree-Fock + 0.0800 Slater + 0.7200 B88
 Correlation:  0.1900 VWN1RPA + 0.8100 LYP
 Using SG-1 standard quadrature grid
 SCF converges when DIIS error is below 1.0E-08
 Geometry optimization detected.  Setting ReadMinima to 0
 Setting SaveMinima to 0
Using Q-Chem read-in guess as SCF_GUESS READ specified.

 using 4 threads for integral computing
 -------------------------------------------------------
 OpenMP Integral computing Module                
 Release: version 1.0, May 2013, Q-Chem Inc. Pittsburgh 
 -------------------------------------------------------
 -------------------------------------------------------
 OpenMP BLAS3 based DFT computing Module                
 Release: version 1.0, May 2013, Q-Chem Inc. Pittsburgh 
 -------------------------------------------------------
 ---------------------------------------
  Cycle       Energy         DIIS Error
 ---------------------------------------
    1    -286.7917567127      5.37E-06
    2    -286.7917753961      1.33E-06
    3    -286.7917753960      1.73E-06
    4    -286.7917754021      3.80E-07
    5    -286.7917754026      1.37E-07
    6    -286.7917754029      1.06E-07
    7    -286.7917754031      6.26E-08
    8    -286.7917754032      2.47E-08
    9    -286.7917754032      9.88E-09 Convergence criterion met
 ---------------------------------------
 <S^2> = 0.7795
 SCF time:  CPU 23.22 s  wall 9.14 s
 SCF   energy in the final basis set = -286.79177540
 Total energy in the final basis set = -286.79177540
 
 --------------------------------------------------------------
 
                    Orbital Energies (a.u.)
 --------------------------------------------------------------
 
 Alpha MOs
 -- Occupied --
-14.316 -10.239 -10.234 -10.219 -10.218 -10.216 -10.208  -0.966
 -0.875  -0.755  -0.644  -0.625  -0.603  -0.547  -0.497  -0.450
 -0.439  -0.423  -0.412  -0.369  -0.363  -0.310  -0.267  -0.244
 -0.126
 -- Virtual --
 -0.014   0.053   0.080   0.127   0.144   0.147   0.158   0.159
  0.180   0.186   0.207   0.248   0.287   0.308   0.334   0.407
  0.483   0.510   0.516   0.527   0.554   0.556   0.582   0.594
  0.605   0.645   0.655   0.667   0.700   0.737   0.764   0.803
  0.822   0.831   0.845   0.851   0.867   0.878   0.934   0.940
  0.954   1.042   1.091   1.109   1.138   1.216   1.311   1.345
  1.378   1.404   1.474   1.499   1.556   1.627   1.650   1.716
  1.745   1.788   1.838   1.881   1.893   1.965   1.993   2.025
  2.102   2.148   2.175   2.238   2.280   2.334   2.359   2.372
  2.410   2.456   2.475   2.505   2.561   2.577   2.629   2.651
  2.691   2.735   2.799   2.964   3.064   4.005   4.184   4.217
  4.356   4.405   4.501   4.517
 
 Beta MOs
 -- Occupied --
-14.316 -10.240 -10.231 -10.216 -10.216 -10.210 -10.204  -0.961
 -0.871  -0.748  -0.636  -0.616  -0.600  -0.543  -0.492  -0.446
 -0.432  -0.419  -0.401  -0.363  -0.355  -0.291  -0.261  -0.234
 -- Virtual --
 -0.033   0.007   0.066   0.083   0.131   0.148   0.152   0.161
  0.164   0.185   0.189   0.213   0.251   0.291   0.314   0.342
  0.411   0.493   0.513   0.523   0.531   0.559   0.571   0.593
  0.598   0.614   0.657   0.664   0.675   0.705   0.743   0.766
  0.805   0.825   0.834   0.847   0.853   0.871   0.884   0.936
  0.947   0.961   1.046   1.095   1.115   1.143   1.220   1.317
  1.351   1.384   1.409   1.481   1.506   1.563   1.630   1.659
  1.720   1.755   1.803   1.851   1.886   1.899   1.971   1.998
  2.030   2.111   2.159   2.188   2.252   2.289   2.342   2.365
  2.380   2.418   2.461   2.491   2.514   2.568   2.582   2.634
  2.657   2.696   2.741   2.807   2.967   3.068   4.007   4.193
  4.227   4.366   4.409   4.508   4.519
 --------------------------------------------------------------
 
          Ground-State Mulliken Net Atomic Charges

     Atom                 Charge (a.u.)    Spin (a.u.)
  --------------------------------------------------------
      1 C                     0.026428       0.246241
      2 C                    -0.172263       0.066090
      3 C                    -0.105647       0.576283
      4 C                    -0.249924       0.016047
      5 C                     0.096071       0.255441
      6 N                    -0.374142      -0.011731
      7 H                     0.152387      -0.010281
      8 H                     0.158734      -0.007404
      9 H                     0.146231      -0.004930
     10 H                     0.148683      -0.003167
     11 H                     0.138823      -0.013937
     12 C                    -0.125191      -0.126739
     13 H                     0.159811       0.018085
  --------------------------------------------------------
  Sum of atomic charges =    -0.000000
  Sum of spin   charges =     1.000000

 -----------------------------------------------------------------
                    Cartesian Multipole Moments
 -----------------------------------------------------------------
    Charge (ESU x 10^10)
                -0.0000
    Dipole Moment (Debye)
         X      -0.9854      Y      -2.4656      Z       1.7794
       Tot       3.1963
    Quadrupole Moments (Debye-Ang)
        XX     -38.0007     XY      -4.1149     YY     -41.9590
        XZ       0.6267     YZ      -0.6272     ZZ     -42.6011
    Octopole Moments (Debye-Ang^2)
       XXX      -9.0052    XXY      -9.6282    XYY     -11.2584
       YYY     -31.5719    XXZ       8.1507    XYZ       3.6228
       YYZ       5.7856    XZZ      -4.5115    YZZ      -8.5174
       ZZZ      20.3182
    Hexadecapole Moments (Debye-Ang^3)
      XXXX    -237.1864   XXXY     -12.8108   XXYY     -96.7402
      XYYY     -27.9950   YYYY    -326.8704   XXXZ       3.2554
      XXYZ       9.4441   XYYZ       7.2430   YYYZ      22.1168
      XXZZ     -66.4887   XYZZ      -6.0746   YYZZ     -75.9875
      XZZZ      -0.8636   YZZZ      16.3281   ZZZZ    -124.8167
 -----------------------------------------------------------------
 Calculating analytic gradient of the SCF energy
 Gradient of SCF Energy
            1           2           3           4           5           6
    1   0.0000104  -0.0000071  -0.0000021   0.0000039   0.0000068   0.0000078
    2  -0.0000059  -0.0000080  -0.0000057   0.0000120   0.0000032  -0.0000090
    3  -0.0000291   0.0000019   0.0000335   0.0000043   0.0000069  -0.0000111
            7           8           9          10          11          12
    1   0.0000086  -0.0000174  -0.0000322   0.0000090   0.0000121  -0.0000134
    2  -0.0000191  -0.0000118   0.0000120   0.0000210   0.0000068  -0.0000037
    3  -0.0000275  -0.0000092   0.0000097   0.0000225   0.0000031  -0.0000119
           13
    1   0.0000135
    2   0.0000082
    3   0.0000068
 Max gradient component =       3.347E-05
 RMS gradient           =       1.402E-05
 Gradient time:  CPU 8.27 s  wall 2.69 s
 Geometry Optimization Parameters
   NAtoms,    NIC,     NZ,  NCons,   NDum,   NFix, NCnnct, MaxDiis
       13     127       0       0       0       0       0       0

 Cartesian Hessian Update
 Hessian Updated using Powell/Murtagh-Sargent Update
**WARNING** Small Scalar Product
 Hessian Update Skipped this cycle


** GEOMETRY OPTIMIZATION IN DELOCALIZED INTERNAL COORDINATES **
   Searching for a Transition State

   Optimization Cycle:  30

                       Coordinates (Angstroms)
     ATOM                X               Y               Z
      1  C         1.3784042585    0.4003618997   -0.0701552906
      2  C         0.7575017867   -0.9520031978   -0.2761066785
      3  C        -0.6763645901   -0.9526091268   -0.6954073333
      4  C        -1.0621059945    0.3345912484    0.1117951026
      5  C        -0.4664680365    1.5458417908   -0.4916912016
      6  N         0.8386749427    1.5664762950   -0.5316862548
      7  H         2.3746140752    0.4143112193    0.3620880771
      8  H         1.3714034475   -1.8463586851   -0.2497419666
      9  H        -1.2277271580   -1.8743211902   -0.5076377922
     10  H        -2.0808819008    0.3919869727    0.4907483178
     11  H        -1.0544990317    2.3529368460   -0.9197208008
     12  C        -0.0028153191   -0.4325902818    0.9078303581
     13  H        -0.1717785139   -0.9574272963    1.8465188847
   Point Group: c1    Number of degrees of freedom:    33


   Energy is   -286.791775403

 Hessian Updated using Powell/Murtagh-Sargent Update
**WARNING** Small Scalar Product
 Hessian Update Skipped this cycle

 33 Hessian modes will be used to form the next step
  Hessian Eigenvalues:
    -0.060273    0.002212    0.009907    0.013211    0.013513    0.016246
     0.018078    0.020423    0.025847    0.029396    0.031605    0.036568
     0.040984    0.048075    0.076804    0.111075    0.114210    0.117486
     0.141680    0.159431    0.173265    0.194993    0.226341    0.232608
     0.296599    0.347016    0.355534    0.357905    0.360018    0.363342
     0.380763    0.422540    0.541425

 Transition State Search - Taking P-RFO Step
 Searching for Lamda that Maximizes Along the Lowest mode
 Value Taken    Lamda =   0.00000000
 Searching for Lamda that Minimizes Along All other modes
 Value Taken    Lamda =   0.00000000
 Step Taken.  Stepsize is  0.001325

                             Maximum     Tolerance    Cnvgd?
         Gradient           0.000010      0.000010     YES
         Displacement       0.000690      0.001200     YES
         Energy change      0.000000      0.000001     YES


                       Distance Matrix (Angstroms)
             C (  1)   C (  2)   C (  3)   C (  4)   C (  5)   N (  6)
   C (  2)  1.502274
   C (  3)  2.538414  1.493916
   C (  4)  2.448167  2.262027  1.567564
   C (  5)  2.212096  2.789948  2.515515  1.478549
   N (  6)  1.365336  2.532716  2.944137  2.354693  1.305919
   H (  7)  1.086031  2.211144  3.506457  3.446744  3.175067  2.117882
   H (  8)  2.253897  1.085100  2.278324  3.287738  3.865661  3.465651
   H (  9)  3.486760  2.201229  1.090326  2.300092  3.503896  4.013687
   H ( 10)  3.504475  3.232769  2.277624  1.088487  2.214249  3.308868
   H ( 11)  3.233161  3.823639  3.334657  2.266672  1.086459  2.086432
   C ( 12)  1.886275  1.499860  1.815065  1.531123  2.467352  2.603187
   H ( 13)  2.814302  2.317138  2.591528  2.339073  3.438084  3.612058
             H (  7)   H (  8)   H (  9)   H ( 10)   H ( 11)   C ( 12)
   H (  8)  2.547822
   H (  9)  4.355585  2.612044
   H ( 10)  4.457409  4.180525  2.619313
   H ( 11)  4.142478  4.895708  4.250827  2.624540
   C ( 12)  2.582101  2.286305  2.362741  2.274257  3.493586
   H ( 13)  3.251049  2.750622  2.738207  2.702537  4.403384  1.088641

 
 Final energy is   -286.791775403188     


 ******************************
 **  OPTIMIZATION CONVERGED  **
 ******************************

                       Coordinates (Angstroms)
     ATOM                X               Y               Z
      1  C         1.3784042585    0.4003618997   -0.0701552906
      2  C         0.7575017867   -0.9520031978   -0.2761066785
      3  C        -0.6763645901   -0.9526091268   -0.6954073333
      4  C        -1.0621059945    0.3345912484    0.1117951026
      5  C        -0.4664680365    1.5458417908   -0.4916912016
      6  N         0.8386749427    1.5664762950   -0.5316862548
      7  H         2.3746140752    0.4143112193    0.3620880771
      8  H         1.3714034475   -1.8463586851   -0.2497419666
      9  H        -1.2277271580   -1.8743211902   -0.5076377922
     10  H        -2.0808819008    0.3919869727    0.4907483178
     11  H        -1.0544990317    2.3529368460   -0.9197208008
     12  C        -0.0028153191   -0.4325902818    0.9078303581
     13  H        -0.1717785139   -0.9574272963    1.8465188847

Z-matrix Print:
$molecule
0 2
N 
C  1 1.305919
H  2 1.086459 1 121.138692
C  1 1.365336 2 111.791262 3 -173.494118 0
H  4 1.086031 1 119.090025 2 -153.203636 0
C  2 1.478549 1 115.344393 3 177.312546 0
H  6 1.088487 2 118.421577 1 158.892184 0
C  4 1.502274 1 123.995790 2 34.994669 0
H  8 1.085100 4 120.318438 1 155.949960 0
C  8 1.493916 4 115.819548 1 -15.980012 0
H  10 1.090326 8 115.935963 4 -159.032079 0
C  8 1.499860 4 77.851258 1 -82.081011 0
H  12 1.088641 8 126.324500 4 -129.840200 0
$end

 
 --------------------------------------------------------------
 
                    Orbital Energies (a.u.)
 --------------------------------------------------------------
 
 Alpha MOs
 -- Occupied --
-14.316 -10.239 -10.234 -10.219 -10.218 -10.216 -10.208  -0.966
 -0.875  -0.755  -0.644  -0.625  -0.603  -0.547  -0.497  -0.450
 -0.439  -0.423  -0.412  -0.369  -0.363  -0.310  -0.267  -0.244
 -0.126
 -- Virtual --
 -0.014   0.053   0.080   0.127   0.144   0.147   0.158   0.159
  0.180   0.186   0.207   0.248   0.287   0.308   0.334   0.407
  0.483   0.510   0.516   0.527   0.554   0.556   0.582   0.594
  0.605   0.645   0.655   0.667   0.700   0.737   0.764   0.803
  0.822   0.831   0.845   0.851   0.867   0.878   0.934   0.940
  0.954   1.042   1.091   1.109   1.138   1.216   1.311   1.345
  1.378   1.404   1.474   1.499   1.556   1.627   1.650   1.716
  1.745   1.788   1.838   1.881   1.893   1.965   1.993   2.025
  2.102   2.148   2.175   2.238   2.280   2.334   2.359   2.372
  2.410   2.456   2.475   2.505   2.561   2.577   2.629   2.651
  2.691   2.735   2.799   2.964   3.064   4.005   4.184   4.217
  4.356   4.405   4.501   4.517
 
 Beta MOs
 -- Occupied --
-14.316 -10.240 -10.231 -10.216 -10.216 -10.210 -10.204  -0.961
 -0.871  -0.748  -0.636  -0.616  -0.600  -0.543  -0.492  -0.446
 -0.432  -0.419  -0.401  -0.363  -0.355  -0.291  -0.261  -0.234
 -- Virtual --
 -0.033   0.007   0.066   0.083   0.131   0.148   0.152   0.161
  0.164   0.185   0.189   0.213   0.251   0.291   0.314   0.342
  0.411   0.493   0.513   0.523   0.531   0.559   0.571   0.593
  0.598   0.614   0.657   0.664   0.675   0.705   0.743   0.766
  0.805   0.825   0.834   0.847   0.853   0.871   0.884   0.936
  0.947   0.961   1.046   1.095   1.115   1.143   1.220   1.317
  1.351   1.384   1.409   1.481   1.506   1.563   1.630   1.659
  1.720   1.755   1.803   1.851   1.886   1.899   1.971   1.998
  2.030   2.111   2.159   2.188   2.252   2.289   2.342   2.365
  2.380   2.418   2.461   2.491   2.514   2.568   2.582   2.634
  2.657   2.696   2.741   2.807   2.967   3.068   4.007   4.193
  4.227   4.366   4.409   4.508   4.519
 --------------------------------------------------------------
 
          Ground-State Mulliken Net Atomic Charges

     Atom                 Charge (a.u.)    Spin (a.u.)
  --------------------------------------------------------
      1 C                     0.026428       0.246241
      2 C                    -0.172263       0.066090
      3 C                    -0.105647       0.576283
      4 C                    -0.249924       0.016047
      5 C                     0.096071       0.255441
      6 N                    -0.374142      -0.011731
      7 H                     0.152387      -0.010281
      8 H                     0.158734      -0.007404
      9 H                     0.146231      -0.004930
     10 H                     0.148683      -0.003167
     11 H                     0.138823      -0.013937
     12 C                    -0.125191      -0.126739
     13 H                     0.159811       0.018085
  --------------------------------------------------------
  Sum of atomic charges =    -0.000000
  Sum of spin   charges =     1.000000

 -----------------------------------------------------------------
                    Cartesian Multipole Moments
 -----------------------------------------------------------------
    Charge (ESU x 10^10)
                -0.0000
    Dipole Moment (Debye)
         X      -0.9854      Y      -2.4656      Z       1.7794
       Tot       3.1963
    Quadrupole Moments (Debye-Ang)
        XX     -38.0007     XY      -4.1149     YY     -41.9590
        XZ       0.6267     YZ      -0.6272     ZZ     -42.6011
    Octopole Moments (Debye-Ang^2)
       XXX      -9.0052    XXY      -9.6282    XYY     -11.2584
       YYY     -31.5719    XXZ       8.1507    XYZ       3.6228
       YYZ       5.7856    XZZ      -4.5115    YZZ      -8.5174
       ZZZ      20.3182
    Hexadecapole Moments (Debye-Ang^3)
      XXXX    -237.1864   XXXY     -12.8108   XXYY     -96.7402
      XYYY     -27.9950   YYYY    -326.8704   XXXZ       3.2554
      XXYZ       9.4441   XYYZ       7.2430   YYYZ      22.1168
      XXZZ     -66.4887   XYZZ      -6.0746   YYZZ     -75.9875
      XZZZ      -0.8636   YZZZ      16.3281   ZZZZ    -124.8167
 -----------------------------------------------------------------
Archival summary:
1\1\c8-90\TS\ProcedureUnspecified\6-31G*\166(2)\hpark21\ThuMar303:21:562022ThuMar303:21:562022\0\\#,TS,ProcedureUnspecified,6-31G*,\\0,2\N\C,1,1.30592\H,2,1.08646,1,121.139\C,1,1.36534,2,111.791,3,-173.494,0\H,4,1.08603,1,119.09,2,-153.204,0\C,2,1.47855,1,115.344,3,177.313,0\H,6,1.08849,2,118.422,1,158.892,0\C,4,1.50227,1,123.996,2,34.9947,0\H,8,1.0851,4,120.318,1,155.95,0\C,8,1.49392,4,115.82,1,-15.98,0\H,10,1.09033,8,115.936,4,-159.032,0\C,8,1.49986,4,77.8513,1,-82.081,0\H,12,1.08864,8,126.325,4,-129.84,0\\\@

 Total job time:  461.70s(wall), 1318.78s(cpu) 
 Thu Mar  3 03:21:56 2022

        *************************************************************
        *                                                           *
        *  Thank you very much for using Q-Chem.  Have a nice day.  *
        *                                                           *
        *************************************************************


