13
image # 1 Energy = -286.85846
C 1.53603   0.43009   -0.38011  
C 0.84375   -0.79744  0.07988   
C -0.58625  -1.02748  -0.38203  
C -1.11701  0.31177   0.10159   
C -0.42770  1.54193   -0.35643  
N 0.88351   1.57225   -0.58692  
H 2.60909   0.41952   -0.56108  
H 1.45509   -1.68686  0.22371   
H -1.06968  -1.87170  -0.85366  
H -2.19136  0.37710   0.26518   
H -0.99093  2.45961   -0.51504  
C -0.35102  -0.64067  1.00554   
H -0.59353  -1.08813  1.95937   
13
image # 2 Energy = -286.85730
C 1.53019   0.42830   -0.35599  
C 0.85017   -0.80863  0.06149   
C -0.59971  -1.02666  -0.39592  
C -1.12430  0.32156   0.11902   
C -0.43385  1.52427   -0.37483  
N 0.87923   1.56555   -0.58471  
H 2.61673   0.42550   -0.49708  
H 1.43805   -1.70433  0.19061   
H -1.08205  -1.82997  -0.89315  
H -2.18590  0.37404   0.30631   
H -1.00990  2.43545   -0.57151  
C -0.33936  -0.64420  1.01865   
H -0.54334  -1.06139  1.97208   
13
image # 3 Energy = -286.85598
C 1.51928   0.42833   -0.34274  
C 0.84947   -0.83210  0.04603   
C -0.60282  -1.01021  -0.38655  
C -1.13770  0.31992   0.14262   
C -0.43227  1.50890   -0.38323  
N 0.87983   1.56731   -0.58584  
H 2.62951   0.43658   -0.42832  
H 1.42066   -1.71257  0.15471   
H -1.10228  -1.80419  -0.93243  
H -2.17259  0.37567   0.34461   
H -1.02905  2.41452   -0.63592  
C -0.32816  -0.64552  1.00274   
H -0.50084  -1.04681  1.99503   
13
image # 4 Energy = -286.85485
C 1.53840   0.43366   -0.32551  
C 0.82666   -0.81831  0.02365   
C -0.61448  -1.00502  -0.39128  
C -1.10880  0.31878   0.15945   
C -0.44440  1.51686   -0.40624  
N 0.86727   1.54551   -0.57825  
H 2.62111   0.44395   -0.35471  
H 1.41425   -1.74269  0.11920   
H -1.11909  -1.76667  -0.96961  
H -2.18180  0.37740   0.39048   
H -1.04061  2.37359   -0.69614  
C -0.31624  -0.65004  1.00531   
H -0.45196  -1.02657  2.01022   
13
image # 5 Energy = -286.85130
C 1.53753   0.41325   -0.30369  
C 0.83508   -0.82164  -0.00178  
C -0.62412  -1.00292  -0.37305  
C -1.10934  0.33685   0.17811   
C -0.46618  1.49736   -0.41350  
N 0.86805   1.54722   -0.57972  
H 2.62730   0.45572   -0.26963  
H 1.39110   -1.75313  0.07527   
H -1.13654  -1.72017  -1.00665  
H -2.16462  0.37809   0.43770   
H -1.06032  2.33977   -0.77179  
C -0.31477  -0.66621  0.99203   
H -0.39542  -1.00332  2.01967   
13
image # 6 Energy = -286.84956
C 1.53679   0.42487   -0.28817  
C 0.81839   -0.83944  -0.01573  
C -0.63341  -0.99196  -0.38964  
C -1.10986  0.32449   0.20268   
C -0.46191  1.49309   -0.43258  
N 0.86476   1.54189   -0.57803  
H 2.62129   0.46193   -0.20521  
H 1.38143   -1.76541  0.04306   
H -1.15102  -1.68631  -1.03451  
H -2.15936  0.38238   0.47267   
H -1.07109  2.30495   -0.82453  
C -0.29648  -0.66080  1.00129   
H -0.35326  -0.98773  2.02860   
13
image # 7 Energy = -286.84533
C 1.52146   0.43193   -0.28574  
C 0.80746   -0.83198  -0.03718  
C -0.64640  -0.98194  -0.39581  
C -1.09167  0.32957   0.21857   
C -0.44858  1.48245   -0.43370  
N 0.86017   1.53426   -0.57554  
H 2.61562   0.47668   -0.11020  
H 1.37011   -1.78177  -0.00375  
H -1.18013  -1.65757  -1.06194  
H -2.15263  0.39156   0.52073   
H -1.08470  2.25842   -0.90687  
C -0.27990  -0.66353  1.00466   
H -0.30607  -0.98552  2.04400   
13
image # 8 Energy = -286.84226
C 1.53905   0.43031   -0.27616  
C 0.81086   -0.84136  -0.05829  
C -0.65805  -0.97322  -0.40217  
C -1.09548  0.33934   0.23911   
C -0.46275  1.49110   -0.44569  
N 0.85896   1.53193   -0.57491  
H 2.58831   0.48681   -0.02460  
H 1.35331   -1.78293  -0.04774  
H -1.20596  -1.62831  -1.08258  
H -2.13128  0.40070   0.56033   
H -1.08675  2.19808   -0.97322  
C -0.26447  -0.66608  1.00851   
H -0.26230  -0.98380  2.05279   
13
image # 9 Energy = -286.83713
C 1.52683   0.42729   -0.26414  
C 0.79400   -0.84667  -0.07620  
C -0.66314  -0.95575  -0.41548  
C -1.08393  0.33369   0.25997   
C -0.46204  1.47543   -0.45005  
N 0.85839   1.53158   -0.57473  
H 2.57209   0.49446   0.06006   
H 1.34244   -1.78946  -0.08890  
H -1.22547  -1.59132  -1.09514  
H -2.11850  0.41065   0.59917   
H -1.09648  2.14600   -1.04090  
C -0.24383  -0.65630  1.01100   
H -0.21831  -0.97820  2.04952   
13
image # 10 Energy = -286.82962
C 1.52177   0.42782   -0.24797  
C 0.78624   -0.84604  -0.09551  
C -0.66657  -0.92913  -0.43754  
C -1.07747  0.33915   0.27467   
C -0.46349  1.46869   -0.45870  
N 0.85417   1.52430   -0.57210  
H 2.53782   0.49461   0.13933   
H 1.33199   -1.79802  -0.12663  
H -1.25151  -1.56559  -1.11101  
H -2.10320  0.41777   0.63421   
H -1.10084  2.08183   -1.09649  
C -0.21110  -0.63839  1.01833   
H -0.17713  -0.97751  2.05291   
13
image # 11 Energy = -286.81109
C 1.51139   0.41441   -0.21517  
C 0.76577   -0.85705  -0.10380  
C -0.65422  -0.89192  -0.49901  
C -1.08302  0.33235   0.28255   
C -0.47310  1.45788   -0.46802  
N 0.84100   1.51272   -0.56596  
H 2.52131   0.47335   0.17068   
H 1.32291   -1.81282  -0.13191  
H -1.26009  -1.55680  -1.13660  
H -2.09197  0.40411   0.64317   
H -1.11764  2.05894   -1.10559  
C -0.15498  -0.58569  1.04076   
H -0.14829  -0.95333  2.06229   
13
image # 12 Energy = -286.79996
C 1.49802   0.41928   -0.20725  
C 0.75422   -0.88192  -0.10686  
C -0.67072  -0.87860  -0.55586  
C -1.06387  0.31273   0.29131   
C -0.47481  1.46255   -0.45707  
N 0.84051   1.50723   -0.57080  
H 2.51138   0.48275   0.20314   
H 1.31878   -1.80969  -0.14662  
H -1.27539  -1.56713  -1.14584  
H -2.09259  0.41073   0.65570   
H -1.11195  2.04333   -1.13080  
C -0.11527  -0.54669  1.06972   
H -0.14061  -0.96198  2.07559   
13
image # 13 Energy = -286.78006
C 1.48973   0.39600   -0.16780  
C 0.73597   -0.89653  -0.09104  
C -0.66353  -0.87950  -0.64907  
C -1.04721  0.31329   0.28063   
C -0.47491  1.48617   -0.42407  
N 0.80809   1.49981   -0.58311  
H 2.49297   0.48206   0.18806   
H 1.32047   -1.80776  -0.13919  
H -1.29207  -1.61189  -1.14462  
H -2.08153  0.40901   0.64465   
H -1.10464  2.05410   -1.11867  
C -0.05298  -0.48200  1.09316   
H -0.15292  -0.97123  2.08622   
13
image # 14 Energy = -286.77526
C 1.47013   0.40586   -0.14050  
C 0.70474   -0.92110  -0.09874  
C -0.66918  -0.83840  -0.68135  
C -1.06096  0.26999   0.31724   
C -0.47517  1.42761   -0.47555  
N 0.82073   1.49426   -0.57479  
H 2.50386   0.47369   0.18881   
H 1.31613   -1.81213  -0.13715  
H -1.27719  -1.55971  -1.18756  
H -2.09706  0.40389   0.65069   
H -1.11190  2.03911   -1.11702  
C -0.02358  -0.45104  1.12728   
H -0.12260  -0.94083  2.10548   
13
image # 15 Energy = -286.78248
C 1.45087   0.39708   -0.10424  
C 0.69319   -0.92856  -0.10049  
C -0.66672  -0.78761  -0.72535  
C -1.05779  0.24608   0.32680   
C -0.49077  1.38150   -0.50539  
N 0.82332   1.47901   -0.56628  
H 2.49644   0.45520   0.19665   
H 1.30059   -1.81727  -0.13530  
H -1.27397  -1.52531  -1.22837  
H -2.09769  0.38940   0.65776   
H -1.12365  2.01736   -1.11208  
C 0.01307   -0.40709  1.15248   
H -0.08744  -0.90768  2.12205   
13
image # 16 Energy = -286.78567
C 1.44209   0.39231   -0.07719  
C 0.69024   -0.92901  -0.10197  
C -0.66116  -0.75161  -0.74512  
C -1.06155  0.23619   0.33979   
C -0.49200  1.33179   -0.54008  
N 0.81634   1.46653   -0.55673  
H 2.48688   0.43338   0.22678   
H 1.27955   -1.82907  -0.14296  
H -1.26921  -1.45779  -1.28196  
H -2.10034  0.37389   0.68129   
H -1.14447  1.97510   -1.12376  
C 0.02447   -0.38903  1.15969   
H -0.02999  -0.86034  2.14175   
13
image # 17 Energy = -286.78797
C 1.41540   0.38657   -0.00335  
C 0.68644   -0.92941  -0.10521  
C -0.65597  -0.69408  -0.75617  
C -1.07840  0.23524   0.35525   
C -0.50352  1.24927   -0.60259  
N 0.81395   1.45493   -0.54886  
H 2.47372   0.41530   0.23246   
H 1.27123   -1.85150  -0.14694  
H -1.25966  -1.39953  -1.31834  
H -2.10545  0.36142   0.69915   
H -1.15266  1.95104   -1.11333  
C 0.06076   -0.37295  1.14860   
H 0.01640   -0.81342  2.14022   
13
image # 18 Energy = -286.79150
C 1.39248   0.37921   0.05622   
C 0.67733   -0.94259  -0.11421  
C -0.66040  -0.65088  -0.77553  
C -1.07848  0.22690   0.37435   
C -0.51410  1.19332   -0.64326  
N 0.81136   1.44902   -0.54551  
H 2.45979   0.40473   0.26045   
H 1.26012   -1.86546  -0.15899  
H -1.25447  -1.34889  -1.35016  
H -2.10817  0.35439   0.72037   
H -1.16054  1.92077   -1.12622  
C 0.09784   -0.35162  1.14417   
H 0.06107   -0.77531  2.14059   
13
image # 19 Energy = -286.79710
C 1.36113   0.36377   0.10324   
C 0.67428   -0.96945  -0.11909  
C -0.65324  -0.59736  -0.79491  
C -1.09730  0.21709   0.39428   
C -0.52319  1.13383   -0.66637  
N 0.81175   1.44678   -0.54380  
H 2.44935   0.39718   0.28841   
H 1.24039   -1.86172  -0.17017  
H -1.25704  -1.31182  -1.38628  
H -2.09107  0.34685   0.73366   
H -1.16795  1.89406   -1.14133  
C 0.13759   -0.31961  1.13487   
H 0.10085   -0.74516  2.15134   
13
image # 20 Energy = -286.80573
C 1.34403   0.35941   0.15281   
C 0.65504   -0.96685  -0.12614  
C -0.66495  -0.57135  -0.81686  
C -1.08224  0.20748   0.40559   
C -0.53067  1.09215   -0.69972  
N 0.80179   1.42914   -0.53669  
H 2.43063   0.39122   0.32254   
H 1.23530   -1.88513  -0.18756  
H -1.24724  -1.25451  -1.41895  
H -2.10125  0.34318   0.76239   
H -1.17100  1.85994   -1.16007  
C 0.16983   -0.30827  1.14065   
H 0.14834   -0.70061  2.14768   
13
image # 21 Energy = -286.81367
C 1.34076   0.35094   0.17904   
C 0.64620   -0.97550  -0.12760  
C -0.66417  -0.54671  -0.81356  
C -1.08346  0.19805   0.41489   
C -0.54237  1.07348   -0.71523  
N 0.80153   1.42806   -0.53570  
H 2.40658   0.38632   0.37846   
H 1.22076   -1.89765  -0.21194  
H -1.25413  -1.20445  -1.46284  
H -2.09522  0.33992   0.79302   
H -1.17663  1.81041   -1.19661  
C 0.18737   -0.30049  1.12631   
H 0.20287   -0.66514  2.15966   
13
image # 22 Energy = -286.81947
C 1.32490   0.34922   0.19514   
C 0.64687   -0.97963  -0.12863  
C -0.67215  -0.54271  -0.81480  
C -1.08625  0.19799   0.41818   
C -0.53851  1.05272   -0.72164  
N 0.80239   1.42936   -0.53562  
H 2.38846   0.38001   0.43815   
H 1.20268   -1.90882  -0.23780  
H -1.25759  -1.14583  -1.49984  
H -2.08611  0.33516   0.82524   
H -1.18767  1.76290   -1.23728  
C 0.19563   -0.30445  1.12839   
H 0.26004   -0.62778  2.16144   
13
image # 23 Energy = -286.82325
C 1.32668   0.34725   0.22094   
C 0.63848   -0.99843  -0.14135  
C -0.67246  -0.53048  -0.83124  
C -1.09179  0.19155   0.44136   
C -0.54790  1.04061   -0.74077  
N 0.79890   1.42234   -0.53214  
H 2.35647   0.37328   0.49527   
H 1.18266   -1.91187  -0.26152  
H -1.26049  -1.08802  -1.53370  
H -2.07024  0.33092   0.85196   
H -1.18993  1.70547   -1.27146  
C 0.21047   -0.29159  1.13717   
H 0.31541   -0.59189  2.16070   
13
image # 24 Energy = -286.82494
C 1.30372   0.34290   0.23261   
C 0.63001   -0.99356  -0.13721  
C -0.67370  -0.51724  -0.82526  
C -1.08406  0.18573   0.43879   
C -0.54068  1.01590   -0.73958  
N 0.79803   1.42022   -0.53056  
H 2.33927   0.36754   0.55376   
H 1.16730   -1.92342  -0.28644  
H -1.26721  -1.03506  -1.57038  
H -2.06306  0.32753   0.88270   
H -1.20019  1.65933   -1.31154  
C 0.22050   -0.29037  1.12673   
H 0.37006   -0.55948  2.16638   
