13   
From optimize.out: Frame 1 / 2, Energy=    -286.8516580738
C       -0.0943890000   -0.0450610000    0.0000000000
C       -0.0880220000    0.0405440000   -0.0000000000
C       -0.0959330000    0.0790870000   -0.0000000000
C       -0.2461370000   -0.0439560000    0.0000000000
C        0.0923410000   -0.0086990000   -0.0000000000
N       -0.3253740000    0.0218720000   -0.0000000000
H        0.1398820000    0.0030460000    0.0000000000
H        0.1460980000    0.0009160000   -0.0000000000
H        0.1455730000    0.0003850000   -0.0000000000
H        0.1339770000    0.0028690000    0.0000000000
H        0.1497190000   -0.0001790000   -0.0000000000
C       -0.0965260000    0.9757590000    0.0000000000
H        0.1387910000   -0.0265820000    0.0000000000
