13   
From optimize.out: Frame 1 / 2, Energy=    -286.9514917220
C        0.0305430000    0.2694890000   -0.0000000000
C       -0.1344350000   -0.1345300000   -0.0000000000
C       -0.1568060000    0.2466990000   -0.0000000000
C        0.2089200000   -0.2005970000    0.0000000000
C       -0.0086900000    0.2419000000    0.0000000000
N       -0.4021060000   -0.1101880000   -0.0000000000
H        0.1434550000   -0.0140940000   -0.0000000000
H        0.1386920000    0.0053070000   -0.0000000000
H        0.1399350000   -0.0114460000   -0.0000000000
H        0.1520840000   -0.0384300000    0.0000000000
H        0.1401770000   -0.0120430000    0.0000000000
C       -0.4070410000    0.7961970000    0.0000000000
H        0.1552720000   -0.0382650000    0.0000000000
