13   
From optimize.out: Frame 58 / 59, Energy=    -286.8505190734
C        0.4729087708   -0.2303895883    0.1793572147
C        0.3730492992   -1.3472492634   -0.8623886688
C        0.8418463950   -2.5620517549   -0.7065553931
C       -1.0856627858    1.4328634546    0.5215393760
C        0.0914094518    1.9072142316   -0.2227817410
N        0.9895674061    1.0045942025   -0.4334661277
H        1.1773217558   -0.5382026949    0.9633573050
H       -0.1548068316   -1.0657955772   -1.7749910916
H        1.3869461376   -3.1254941125    0.0415417729
H       -1.9427742959    2.0339510522    0.8031192887
H        0.2285314682    2.9275878305   -0.5803483049
C       -0.8671346670    0.1299973599    0.7748597666
H       -1.5112021045   -0.5670251402    1.2967566035
13   
From optimize.out: Frame 57 / 59, Energy=    -286.8505151228
C        0.4721433099   -0.2305867229    0.1793173901
C        0.3730910225   -1.3475501118   -0.8627530741
C        0.8424245848   -2.5620208576   -0.7066273338
C       -1.0853754738    1.4330043056    0.5215379437
C        0.0909613250    1.9072582795   -0.2238300785
N        0.9895955887    1.0048191874   -0.4329543566
H        1.1765007676   -0.5398963825    0.9622039237
H       -0.1531418196   -1.0658270714   -1.7760081309
H        1.3863468064   -3.1243799904    0.0428040979
H       -1.9420668238    2.0339291665    0.8049154066
H        0.2280143932    2.9277436995   -0.5808450833
C       -0.8670115920    0.1302200420    0.7752979982
H       -1.5114820892   -0.5667135442    1.2969412972
13   
From optimize.out: Frame 56 / 59, Energy=    -286.8505096260
C        0.4712169792   -0.2309535805    0.1784659531
C        0.3726532188   -1.3481569078   -0.8635696224
C        0.8435564419   -2.5619382765   -0.7064725643
C       -1.0851167067    1.4335691062    0.5214661518
C        0.0907147263    1.9072283274   -0.2246449216
N        0.9897491077    1.0049101933   -0.4327139296
H        1.1753067577   -0.5424572621    0.9607265931
H       -0.1517505650   -1.0664029009   -1.7778948184
H        1.3866844593   -3.1219985161    0.0451487528
H       -1.9410487322    2.0346559865    0.8076649539
H        0.2278066172    2.9277152876   -0.5809698096
C       -0.8675550822    0.1306167057    0.7756573966
H       -1.5122172220   -0.5667881629    1.2971358646
13   
From optimize.out: Frame 55 / 59, Energy=    -286.8505024853
C        0.4713877200   -0.2306898908    0.1784830101
C        0.3721401236   -1.3481638193   -0.8638433663
C        0.8440411696   -2.5615027381   -0.7068459255
C       -1.0854155323    1.4339253654    0.5209110449
C        0.0903476316    1.9067543142   -0.2254007597
N        0.9903141253    1.0052173128   -0.4320669014
H        1.1750766605   -0.5447855164    0.9606277378
H       -0.1494512405   -1.0653827345   -1.7792276003
H        1.3855260428   -3.1210409501    0.0459648914
H       -1.9405340212    2.0348487452    0.8092844663
H        0.2267982101    2.9267046452   -0.5826080687
C       -0.8680420882    0.1312464022    0.7765361300
H       -1.5121888012   -0.5671311357    1.2981853413
13   
From optimize.out: Frame 54 / 59, Energy=    -286.8504924972
C        0.4714819293   -0.2306862778    0.1784397915
C        0.3712919644   -1.3477968948   -0.8641475821
C        0.8449623074   -2.5606689240   -0.7071587174
C       -1.0861900109    1.4345491514    0.5206630916
C        0.0902465639    1.9059787530   -0.2254150836
N        0.9907478822    1.0047803600   -0.4317294465
H        1.1744160794   -0.5473228015    0.9613619637
H       -0.1474252353   -1.0645832044   -1.7810970950
H        1.3856471016   -3.1198078624    0.0468814885
H       -1.9393367713    2.0367473887    0.8121312881
H        0.2256952072    2.9249312074   -0.5851979124
C       -0.8692099422    0.1317470466    0.7767491230
H       -1.5123270757   -0.5678679422    1.2985190905
13   
From optimize.out: Frame 53 / 59, Energy=    -286.8504779611
C        0.4726386340   -0.2302605861    0.1807182459
C        0.3708808283   -1.3459536954   -0.8633767146
C        0.8446431285   -2.5589795863   -0.7086429856
C       -1.0875278944    1.4341863999    0.5201090935
C        0.0899415706    1.9046131772   -0.2253461117
N        0.9912718689    1.0041501890   -0.4307365052
H        1.1749396454   -0.5491139226    0.9643446051
H       -0.1438520225   -1.0610030210   -1.7818229227
H        1.3829737896   -3.1205671736    0.0453529067
H       -1.9384401757    2.0377272279    0.8129862667
H        0.2229920478    2.9217462152   -0.5906938694
C       -0.8696039129    0.1320163027    0.7773054881
H       -1.5108575075   -0.5685615269    1.2998025032
13   
From optimize.out: Frame 52 / 59, Energy=    -286.8504568606
C        0.4727259987   -0.2309611800    0.1834201224
C        0.3704931479   -1.3436745613   -0.8634346415
C        0.8448591811   -2.5567796695   -0.7102038028
C       -1.0884189112    1.4335562928    0.5204238762
C        0.0900498143    1.9031676102   -0.2247085594
N        0.9910867874    1.0022128328   -0.4300925762
H        1.1744825274   -0.5514787323    0.9673420615
H       -0.1407578814   -1.0574400542   -1.7835984587
H        1.3811456067   -3.1190462478    0.0452918958
H       -1.9366291042    2.0400276685    0.8144834692
H        0.2202766067    2.9183306343   -0.5967176573
C       -0.8700041712    0.1313329891    0.7770186078
H       -1.5093096021   -0.5692475826    1.3007756631
13   
From optimize.out: Frame 51 / 59, Energy=    -286.8504289327
C        0.4729811880   -0.2321051975    0.1874088016
C        0.3710309490   -1.3406298409   -0.8638146637
C        0.8439612060   -2.5541535841   -0.7128972677
C       -1.0883985599    1.4314868386    0.5207079032
C        0.0900558694    1.9016153797   -0.2245417756
N        0.9907960117    1.0002481345   -0.4288961724
H        1.1746270343   -0.5538768539    0.9704331365
H       -0.1366894244   -1.0514115320   -1.7851375777
H        1.3758107125   -3.1163478191    0.0454867082
H       -1.9354465521    2.0398534525    0.8128607635
H        0.2167368791    2.9148958239   -0.6034767115
C       -0.8689556252    0.1299397608    0.7778357100
H       -1.5065096885   -0.5695145625    1.3040311457
13   
From optimize.out: Frame 50 / 59, Energy=    -286.8503930811
C        0.4721723049   -0.2344377015    0.1900956959
C        0.3716506136   -1.3381348784   -0.8667099723
C        0.8437657639   -2.5517878370   -0.7151960213
C       -1.0869087949    1.4293341575    0.5219167076
C        0.0903372300    1.9001886174   -0.2246211924
N        0.9903626818    0.9977984230   -0.4276782046
H        1.1735869256   -0.5577071160    0.9715643339
H       -0.1334661321   -1.0454540369   -1.7887477849
H        1.3706688572   -3.1093830703    0.0492282390
H       -1.9344696641    2.0394800253    0.8105854472
H        0.2141010301    2.9123023615   -0.6086952109
C       -0.8675997601    0.1275994498    0.7793757262
H       -1.5042010560   -0.5697983945    1.3088822367
13   
From optimize.out: Frame 49 / 59, Energy=    -286.8503474280
C        0.4726359276   -0.2365334623    0.1923040671
C        0.3731943188   -1.3352184050   -0.8703019447
C        0.8421884912   -2.5495261105   -0.7185412844
C       -1.0847825402    1.4261885002    0.5228285410
C        0.0900586537    1.8983995963   -0.2257397416
N        0.9910272837    0.9963945056   -0.4253507782
H        1.1733989966   -0.5616667758    0.9724213752
H       -0.1290830217   -1.0367208388   -1.7924200802
H        1.3617137818   -3.1020282414    0.0533757581
H       -1.9352949874    2.0359628454    0.8045534569
H        0.2111114311    2.9095323211   -0.6141229806
C       -0.8649875834    0.1252634183    0.7836730358
H       -1.5011807520   -0.5700473530    1.3173205755
13   
From optimize.out: Frame 48 / 59, Energy=    -286.8502965245
C        0.4742594134   -0.2378196213    0.1935735715
C        0.3744939479   -1.3322966583   -0.8745573445
C        0.8401882177   -2.5478180868   -0.7211830482
C       -1.0832674635    1.4237926220    0.5237445442
C        0.0892294181    1.8961028893   -0.2276683849
N        0.9929159764    0.9957904846   -0.4220225303
H        1.1736946376   -0.5653772274    0.9732262087
H       -0.1246428473   -1.0270699317   -1.7962722646
H        1.3530928045   -3.0967581311    0.0566390348
H       -1.9380514026    2.0324825533    0.7975135288
H        0.2087507645    2.9062424758   -0.6194334362
C       -0.8624605162    0.1232976390    0.7893542216
H       -1.4982029506   -0.5705690073    1.3270858991
13   
From optimize.out: Frame 47 / 59, Energy=    -286.8502528600
C        0.4776292307   -0.2376117497    0.1950817692
C        0.3761092558   -1.3289509070   -0.8762065063
C        0.8366773808   -2.5464412931   -0.7242704769
C       -1.0833964753    1.4214826444    0.5235044962
C        0.0877221416    1.8936509223   -0.2299847173
N        0.9956235861    0.9965097907   -0.4184023029
H        1.1757066012   -0.5669398957    0.9753678506
H       -0.1196439399   -1.0171375643   -1.7975710990
H        1.3440692670   -3.0969855452    0.0561637400
H       -1.9420700612    2.0280071334    0.7897116906
H        0.2063002337    2.9025289588   -0.6249865959
C       -0.8599318901    0.1227051356    0.7953570846
H       -1.4947953304   -0.5708176303    1.3362350673
13   
From optimize.out: Frame 46 / 59, Energy=    -286.8502157008
C        0.4815369426   -0.2364387728    0.1975493360
C        0.3772544732   -1.3252577227   -0.8766425377
C        0.8327475742   -2.5452713178   -0.7263669999
C       -1.0850949044    1.4201706282    0.5227635963
C        0.0858987393    1.8909494726   -0.2326119192
N        0.9985869991    0.9973661528   -0.4144536725
H        1.1786984479   -0.5675227812    0.9783108692
H       -0.1145884646   -1.0074653990   -1.7976913815
H        1.3367610075   -3.1015101167    0.0525703278
H       -1.9472377315    2.0247162380    0.7825971418
H        0.2041860548    2.8983076992   -0.6308029362
C       -0.8579090472    0.1227762488    0.8005234110
H       -1.4908400907   -0.5708203294    1.3442547650
13   
From optimize.out: Frame 45 / 59, Energy=    -286.8501757169
C        0.4865349771   -0.2344751311    0.2019158700
C        0.3791814680   -1.3200156714   -0.8744166803
C        0.8266491883   -2.5435875615   -0.7295380482
C       -1.0882597546    1.4182574180    0.5205374123
C        0.0834649415    1.8878152201   -0.2358137424
N        1.0018465744    0.9986530439   -0.4100574034
H        1.1837651366   -0.5670403049    0.9825325150
H       -0.1078640013   -0.9959921864   -1.7957457891
H        1.3274221800   -3.1102956915    0.0456008597
H       -1.9538734624    2.0195769912    0.7736844862
H        0.2014046708    2.8932513272   -0.6376485759
C       -0.8553060117    0.1238666571    0.8058951425
H       -1.4849659066   -0.5700141108    1.3530539536
13   
From optimize.out: Frame 44 / 59, Energy=    -286.8501213164
C        0.4918791523   -0.2318309886    0.2098355599
C        0.3814550397   -1.3129767791   -0.8707996122
C        0.8184911449   -2.5413360446   -0.7325230478
C       -1.0927222109    1.4164786984    0.5165553780
C        0.0805507180    1.8840359011   -0.2401978863
N        1.0050874230    0.9994041082   -0.4047108836
H        1.1912646018   -0.5668021592    0.9873571277
H       -0.0990965545   -0.9815954029   -1.7926383777
H        1.3164496887   -3.1229798297    0.0350615268
H       -1.9632543107    2.0131571582    0.7626971880
H        0.1981188757    2.8872367122   -0.6455369400
C       -0.8520707045    0.1253606065    0.8111421265
H       -1.4761528635   -0.5681519805    1.3637578408
13   
From optimize.out: Frame 43 / 59, Energy=    -286.8500583096
C        0.4957584191   -0.2298152767    0.2182671015
C        0.3841887928   -1.3063320181   -0.8662797234
C        0.8101732518   -2.5391174618   -0.7359050458
C       -1.0961950426    1.4141693585    0.5112640693
C        0.0781903410    1.8811804977   -0.2441566031
N        1.0069713618    0.9996362994   -0.4008313242
H        1.1989866707   -0.5670802094    0.9906227238
H       -0.0907335503   -0.9685650566   -1.7890390312
H        1.3052967535   -3.1334767878    0.0259962824
H       -1.9718226434    2.0051760108    0.7521517502
H        0.1951057864    2.8828553671   -0.6510815108
C       -0.8486717430    0.1269023348    0.8151862142
H       -1.4672483977   -0.5655330578    1.3738050971
13   
From optimize.out: Frame 42 / 59, Energy=    -286.8499816211
C        0.4976294358   -0.2286739952    0.2264938872
C        0.3865707797   -1.3013296150   -0.8629891292
C        0.8030507095   -2.5377261808   -0.7382851048
C       -1.0980335709    1.4121058014    0.5051334712
C        0.0768616147    1.8795112543   -0.2477309715
N        1.0073653677    0.9988170937   -0.3985901253
H        1.2061482422   -0.5687976792    0.9915415822
H       -0.0835231666   -0.9572699263   -1.7860406751
H        1.2956961932   -3.1397294678    0.0198392307
H       -1.9795413536    1.9973589867    0.7435380716
H        0.1928895168    2.8807651539   -0.6537186701
C       -0.8456337579    0.1275602562    0.8178007768
H       -1.4594800107   -0.5625916819    1.3830076563
13   
From optimize.out: Frame 41 / 59, Energy=    -286.8498878829
C        0.4984940248   -0.2287654446    0.2319582479
C        0.3887514885   -1.2988300238   -0.8605918088
C        0.7972447608   -2.5376793814   -0.7407284160
C       -1.0981784024    1.4090921548    0.4983869968
C        0.0765541420    1.8793521173   -0.2504101986
N        1.0066294269    0.9978728782   -0.3986373139
H        1.2123889702   -0.5712773946    0.9905985822
H       -0.0776207616   -0.9478919463   -1.7829843982
H        1.2869644719   -3.1403309196    0.0179927546
H       -1.9848843727    1.9891527026    0.7374544959
H        0.1913562884    2.8818096320   -0.6535242342
C       -0.8429867217    0.1271292553    0.8195746396
H       -1.4547133150   -0.5596336296    1.3909106528
13   
From optimize.out: Frame 40 / 59, Energy=    -286.8497915084
C        0.5025743944   -0.2280679441    0.2370860618
C        0.3916153980   -1.2970963805   -0.8568583901
C        0.7908332570   -2.5382827814   -0.7423073825
C       -1.0989890384    1.4044823557    0.4912981246
C        0.0759780964    1.8795865305   -0.2536664955
N        1.0071167274    0.9988979163   -0.3976525345
H        1.2202029065   -0.5714458666    0.9929345682
H       -0.0701358285   -0.9357754136   -1.7765242487
H        1.2743167687   -3.1442035383    0.0108803605
H       -1.9899356028    1.9801268916    0.7306313543
H        0.1876246582    2.8832778118   -0.6571038036
C       -0.8396715677    0.1259123729    0.8225869561
H       -1.4515301691   -0.5574119541    1.3986954293
13   
From optimize.out: Frame 39 / 59, Energy=    -286.8496836279
C        0.5066936769   -0.2312504970    0.2369354655
C        0.3895526589   -1.2991714449   -0.8577568729
C        0.7865243153   -2.5427209695   -0.7467284750
C       -1.1014958519    1.3997874298    0.4861832451
C        0.0749078832    1.8796111080   -0.2566042602
N        1.0067867976    0.9979575149   -0.3990657405
H        1.2260165159   -0.5727019028    0.9940558858
H       -0.0649175674   -0.9212580131   -1.7724758083
H        1.2719047060   -3.1416244286    0.0161084820
H       -1.9912153157    1.9773010536    0.7312957332
H        0.1875077272    2.8871690789   -0.6585595882
C       -0.8385421840    0.1218730083    0.8224636605
H       -1.4537233620   -0.5549719378    1.4041482730
13   
From optimize.out: Frame 38 / 59, Energy=    -286.8495484686
C        0.5166207310   -0.2300936627    0.2417348212
C        0.3915649729   -1.2972537855   -0.8514531148
C        0.7787375953   -2.5441362206   -0.7502054100
C       -1.1057182433    1.3932813745    0.4811465277
C        0.0720735612    1.8788348575   -0.2607977299
N        1.0096721108    1.0019526276   -0.3954769678
H        1.2354320413   -0.5675946123    1.0032100124
H       -0.0556933314   -0.9034299682   -1.7619630229
H        1.2573770913   -3.1540075154    0.0030509881
H       -1.9946722955    1.9697175592    0.7238567576
H        0.1813381163    2.8864101733   -0.6696228889
C       -0.8345887952    0.1201534808    0.8262125672
H       -1.4521435546   -0.5538343081    1.4103074602
13   
From optimize.out: Frame 37 / 59, Energy=    -286.8493424680
C        0.5275214957   -0.2291732777    0.2479074455
C        0.3916413495   -1.2942779810   -0.8448405952
C        0.7713351358   -2.5455256026   -0.7544237991
C       -1.1114918433    1.3879539856    0.4790294552
C        0.0674770091    1.8765511223   -0.2654665714
N        1.0134577457    1.0062169470   -0.3898927671
H        1.2436245911   -0.5596563421    1.0156697076
H       -0.0477450153   -0.8832895031   -1.7520799091
H        1.2478440236   -3.1720484461   -0.0113170836
H       -1.9970227968    1.9675015882    0.7182593414
H        0.1750500301    2.8816227454   -0.6846807529
C       -0.8309084710    0.1180468215    0.8284059985
H       -1.4507832541   -0.5539220574    1.4134295302
13   
From optimize.out: Frame 36 / 59, Energy=    -286.8490395427
C        0.5411401296   -0.2238555789    0.2610705010
C        0.3943249790   -1.2869077223   -0.8318357615
C        0.7608055023   -2.5436949407   -0.7591303899
C       -1.1166595180    1.3818367645    0.4769068895
C        0.0606924957    1.8731086547   -0.2709127937
N        1.0192294800    1.0142333553   -0.3800658931
H        1.2540046882   -0.5459040533    1.0341541821
H       -0.0380445645   -0.8598713341   -1.7380015539
H        1.2300509093   -3.2032048074   -0.0390671090
H       -2.0006352082    1.9613421050    0.7050089787
H        0.1637825166    2.8706388610   -0.7068676583
C       -0.8240195701    0.1177322365    0.8328288524
H       -1.4446718399   -0.5554535402    1.4159117558
13   
From optimize.out: Frame 35 / 59, Energy=    -286.8485919334
C        0.5544453537   -0.2147775674    0.2809753268
C        0.3997463576   -1.2750254924   -0.8147323281
C        0.7476486516   -2.5386156143   -0.7618899413
C       -1.1189120480    1.3753149635    0.4726790037
C        0.0533661983    1.8682622336   -0.2768321364
N        1.0265478872    1.0236934820   -0.3672485297
H        1.2645751868   -0.5278051802    1.0564260980
H       -0.0284354121   -0.8324834667   -1.7209375906
H        1.2085160927   -3.2438646799   -0.0772210737
H       -2.0052668818    1.9546449159    0.6879988971
H        0.1479446242    2.8527650813   -0.7348864158
C       -0.8146082321    0.1175902506    0.8391255467
H       -1.4355677781   -0.5596989260    1.4165431432
13   
From optimize.out: Frame 34 / 59, Energy=    -286.8482829883
C        0.5615559687   -0.2063041939    0.2951002698
C        0.4048829441   -1.2678390043   -0.8039133795
C        0.7391308976   -2.5349979928   -0.7647742379
C       -1.1174345908    1.3708898581    0.4682181555
C        0.0501034883    1.8657860563   -0.2795844464
N        1.0311070860    1.0296183208   -0.3602015037
H        1.2708496005   -0.5152449189    1.0696590584
H       -0.0227574870   -0.8165250973   -1.7083588207
H        1.1912071635   -3.2685292445   -0.1016874751
H       -2.0078733741    1.9466517314    0.6748751191
H        0.1361875963    2.8415000362   -0.7512036288
C       -0.8077297867    0.1181696823    0.8452820031
H       -1.4292295064   -0.5631752334    1.4165888863
13   
From optimize.out: Frame 33 / 59, Energy=    -286.8477573551
C        0.5631345288   -0.1989881334    0.3070838051
C        0.4142641223   -1.2591546300   -0.7954364004
C        0.7297762625   -2.5312135462   -0.7666823484
C       -1.1110611270    1.3646952103    0.4582563619
C        0.0517051441    1.8621934596   -0.2809399950
N        1.0367991159    1.0301411383   -0.3565508372
H        1.2711381644   -0.4993326525    1.0823567892
H       -0.0213246995   -0.7965453103   -1.6926069395
H        1.1815441780   -3.2874595706   -0.1216267110
H       -2.0052084147    1.9454681126    0.6719392493
H        0.1211117768    2.8254524509   -0.7689154122
C       -0.8026022475    0.1167076662    0.8534942726
H       -1.4292768041   -0.5719641949    1.4096281659
13   
From optimize.out: Frame 32 / 59, Energy=    -286.8472865557
C        0.5634339820   -0.1931183628    0.3133150610
C        0.4183791577   -1.2584833560   -0.7953733571
C        0.7258758546   -2.5322467796   -0.7724406159
C       -1.1062238441    1.3611918875    0.4522483313
C        0.0546389478    1.8604813630   -0.2802352538
N        1.0394392060    1.0286816623   -0.3570915571
H        1.2705265503   -0.4891539095    1.0872043984
H       -0.0217312393   -0.7857039405   -1.6821788445
H        1.1752915350   -3.2920058270   -0.1249683957
H       -2.0009614979    1.9408339559    0.6696689396
H        0.1122645358    2.8197327704   -0.7747822820
C       -0.8003182226    0.1168887166    0.8597341210
H       -1.4306149652   -0.5770981804    1.4048994547
13   
From optimize.out: Frame 31 / 59, Energy=    -286.8468555368
C        0.5694786723   -0.1884200540    0.3246275700
C        0.4315959759   -1.2539838417   -0.7904278226
C        0.7198676207   -2.5297055557   -0.7628491743
C       -1.1080709947    1.3603498802    0.4466350020
C        0.0584303716    1.8578557957   -0.2855485744
N        1.0458519809    1.0281363953   -0.3486589585
H        1.2767905441   -0.4798507268    1.0993864693
H       -0.0134230251   -0.7735787510   -1.6673181503
H        1.1549734514   -3.3100364123   -0.1609306196
H       -2.0064893163    1.9362786141    0.6630182522
H        0.0974876620    2.8138961329   -0.7933199615
C       -0.8001262538    0.1211523791    0.8686760986
H       -1.4263666890   -0.5820938558    1.4067098691
13   
From optimize.out: Frame 30 / 59, Energy=    -286.8464698447
C        0.5705156897   -0.1903384674    0.3309050301
C        0.4467444864   -1.2568457071   -0.7811865121
C        0.7244187950   -2.5355201468   -0.7857490119
C       -1.1083714983    1.3723944366    0.4570998037
C        0.0612831272    1.8576946672   -0.2901948109
N        1.0452719353    1.0227777420   -0.3486640434
H        1.2742304601   -0.4619108159    1.1219495598
H       -0.0058519140   -0.7819499344   -1.6526321346
H        1.1492188775   -3.3268047279   -0.1802389585
H       -2.0079407837    1.9483217834    0.6735111996
H        0.0872965633    2.8121653352   -0.8124344573
C       -0.8056842334    0.1272828590    0.8712633348
H       -1.4311315050   -0.5872670239    1.3963710007
13   
From optimize.out: Frame 29 / 59, Energy=    -286.8460828086
C        0.5774680303   -0.1863354674    0.3414063250
C        0.4544571681   -1.2563300016   -0.7727030132
C        0.7232177942   -2.5352718562   -0.7897160256
C       -1.1111717908    1.3770449560    0.4617671422
C        0.0595973104    1.8577392433   -0.2951214116
N        1.0465445460    1.0264492632   -0.3417954005
H        1.2819481580   -0.4545415943    1.1351638085
H        0.0041047332   -0.7830476086   -1.6429649792
H        1.1286705562   -3.3457389441   -0.2080674669
H       -2.0153991660    1.9412686347    0.6623660091
H        0.0791940465    2.8126608040   -0.8252845593
C       -0.8047006389    0.1329683398    0.8748839454
H       -1.4239307472   -0.5868657688    1.4000656262
13   
From optimize.out: Frame 28 / 59, Energy=    -286.8456912775
C        0.5824355710   -0.1852439602    0.3496696994
C        0.4605302403   -1.2527937252   -0.7607660204
C        0.7226662063   -2.5328877929   -0.7924017945
C       -1.1133559366    1.3827856350    0.4683528461
C        0.0551087557    1.8585388319   -0.3003668357
N        1.0462369473    1.0314175654   -0.3346535927
H        1.2889416880   -0.4503639084    1.1481913832
H        0.0132801734   -0.7879555400   -1.6376655651
H        1.1131838691   -3.3654233582   -0.2347872888
H       -2.0237537178    1.9385835097    0.6534616089
H        0.0746551906    2.8120172281   -0.8372961854
C       -0.8035557980    0.1366600713    0.8747471999
H       -1.4163731892   -0.5853345565    1.4035145452
13   
From optimize.out: Frame 27 / 59, Energy=    -286.8452593889
C        0.5895151305   -0.1789343590    0.3609929261
C        0.4616799637   -1.2470363565   -0.7481941502
C        0.7187206922   -2.5275527430   -0.7910262700
C       -1.1134318092    1.3838629402    0.4710021236
C        0.0477505593    1.8598986475   -0.3044736960
N        1.0458994383    1.0417311155   -0.3256556276
H        1.3004307186   -0.4493416289    1.1568895096
H        0.0227265098   -0.7889306616   -1.6333477119
H        1.0897639169   -3.3866267294   -0.2615164344
H       -2.0333702941    1.9239146410    0.6319916917
H        0.0706701994    2.8114734443   -0.8449156161
C       -0.7975695966    0.1390387235    0.8759298936
H       -1.4027854289   -0.5814970335    1.4123233616
13   
From optimize.out: Frame 26 / 59, Energy=    -286.8448277954
C        0.5952772966   -0.1724577360    0.3697082096
C        0.4612962302   -1.2385068940   -0.7366290777
C        0.7130429804   -2.5196901900   -0.7834489551
C       -1.1119664499    1.3813405364    0.4691332472
C        0.0407454409    1.8614317311   -0.3070499288
N        1.0463689136    1.0521286043   -0.3174998522
H        1.3107430177   -0.4518335690    1.1610331597
H        0.0299351835   -0.7875567465   -1.6315059497
H        1.0697632063   -3.4047204432   -0.2848960240
H       -2.0428493539    1.9098775685    0.6114451828
H        0.0682105295    2.8091526074   -0.8498735337
C       -0.7906605973    0.1387070583    0.8777415603
H       -1.3899063977   -0.5778725273    1.4218419618
13   
From optimize.out: Frame 25 / 59, Energy=    -286.8444402460
C        0.6015059777   -0.1633710224    0.3765768847
C        0.4599940231   -1.2309261669   -0.7280499912
C        0.7066032931   -2.5122203169   -0.7757513933
C       -1.1097270303    1.3753835958    0.4635688325
C        0.0357448233    1.8632214484   -0.3069248652
N        1.0478126001    1.0625218055   -0.3121086183
H        1.3196576563   -0.4551090886    1.1609924909
H        0.0356564540   -0.7848800418   -1.6298616464
H        1.0500428133   -3.4190080953   -0.3022930710
H       -2.0521452862    1.8937205862    0.5905099360
H        0.0662485708    2.8073377268   -0.8513993138
C       -0.7825414422    0.1377293735    0.8824848660
H       -1.3788524530   -0.5743998043    1.4322558891
13   
From optimize.out: Frame 24 / 59, Energy=    -286.8438827063
C        0.6111371447   -0.1506898207    0.3814412503
C        0.4611605911   -1.2210502183   -0.7188357450
C        0.6978102182   -2.5031183654   -0.7625017208
C       -1.1097350739    1.3650740018    0.4528759506
C        0.0325410456    1.8663870548   -0.3044184007
N        1.0527120610    1.0750644703   -0.3079812953
H        1.3287082350   -0.4610815540    1.1573957938
H        0.0428394783   -0.7825811393   -1.6289367125
H        1.0258153388   -3.4351085126   -0.3239671651
H       -2.0671037451    1.8757909466    0.5672716818
H        0.0644996935    2.8051638209   -0.8526204593
C       -0.7718937423    0.1363371687    0.8926040442
H       -1.3684912450   -0.5701878528    1.4476727781
13   
From optimize.out: Frame 23 / 59, Energy=    -286.8429018349
C        0.6274904381   -0.1328765641    0.3846610232
C        0.4668660234   -1.2100351562   -0.7092381201
C        0.6854965769   -2.4941639216   -0.7460141327
C       -1.1168529708    1.3489685803    0.4370850255
C        0.0329048399    1.8709873254   -0.2988284841
N        1.0623257048    1.0913948720   -0.3049799235
H        1.3396247515   -0.4680561808    1.1496713262
H        0.0531547924   -0.7815116403   -1.6267980767
H        0.9901597756   -3.4534790989   -0.3512972674
H       -2.0875712662    1.8495366016    0.5373206854
H        0.0616413271    2.8051421515   -0.8529820985
C       -0.7573435138    0.1385521500    0.9104213104
H       -1.3578964789   -0.5644591188    1.4709787323
13   
From optimize.out: Frame 22 / 59, Energy=    -286.8419653378
C        0.6394882871   -0.1230133386    0.3858866523
C        0.4729758350   -1.2033801915   -0.7062124529
C        0.6781657672   -2.4898745610   -0.7330265910
C       -1.1301036645    1.3406816525    0.4282318984
C        0.0360062060    1.8741818976   -0.2956064571
N        1.0708681736    1.0996187549   -0.3019520461
H        1.3457324170   -0.4732214158    1.1438563078
H        0.0603243673   -0.7832718997   -1.6273751352
H        0.9703368626   -3.4671936482   -0.3713013933
H       -2.1036192070    1.8378441926    0.5217597846
H        0.0607564707    2.8057277220   -0.8547773716
C       -0.7483476517    0.1429693943    0.9223994982
H       -1.3525838633   -0.5610685591    1.4881173059
13   
From optimize.out: Frame 21 / 59, Energy=    -286.8412115401
C        0.6474191825   -0.1218327516    0.3874649851
C        0.4758183214   -1.1922819604   -0.7083511121
C        0.6658808333   -2.4839004022   -0.6998696999
C       -1.1406372417    1.3281613735    0.4146494529
C        0.0387357249    1.8712991050   -0.2968479440
N        1.0789378750    1.1053718036   -0.2913375043
H        1.3562522060   -0.4822003750    1.1338747827
H        0.0637483394   -0.7684620739   -1.6265664440
H        0.9516092169   -3.4673135507   -0.3925617041
H       -2.1069668968    1.8188702123    0.5048726553
H        0.0560161805    2.8055499779   -0.8558282109
C       -0.7436696345    0.1470025092    0.9274552840
H       -1.3431441070   -0.5602638678    1.5030454591
13   
From optimize.out: Frame 20 / 59, Energy=    -286.8405646229
C        0.6470937020   -0.1272300273    0.3912473984
C        0.4727162388   -1.1903735151   -0.7177956619
C        0.6611279801   -2.4736462236   -0.6651038838
C       -1.1505442228    1.3294300804    0.4101594180
C        0.0406624415    1.8656015332   -0.3027881109
N        1.0828802092    1.1013276704   -0.2784971970
H        1.3609757638   -0.4942207785    1.1275261680
H        0.0620331217   -0.7533879814   -1.6342169695
H        0.9608042607   -3.4692427309   -0.4079285482
H       -2.1108219706    1.8262082983    0.5052746836
H        0.0565662540    2.8017569207   -0.8605286622
C       -0.7464147108    0.1459276243    0.9229631545
H       -1.3370790676   -0.5621508705    1.5096882110
13   