13   
From optimize.out: Frame 4 / 5, Energy=    -286.8505973773
C        0.4556283744   -0.2440434559    0.2002947438
C        0.3427997002   -1.3563676241   -0.8445979894
C        0.8808806592   -2.5467900593   -0.7322657859
C       -1.0846620042    1.4434213999    0.5061920816
C        0.1120311673    1.8965232616   -0.2193801825
N        1.0003827572    0.9802669516   -0.4108748766
H        1.1474616248   -0.5652592280    0.9906073916
H       -0.2492391948   -1.0904876804   -1.7218850297
H        1.4997060965   -3.0831676815   -0.0233021517
H       -1.9399505811    2.0579974304    0.7637253815
H        0.2696246603    2.9122756731   -0.5802296105
C       -0.8868969286    0.1405314116    0.7771461405
H       -1.5477663317   -0.5449003991    1.2945698876
13   
From optimize.out: Frame 3 / 5, Energy=    -286.8505925824
C        0.4544418903   -0.2447837367    0.2013477847
C        0.3418353857   -1.3570963878   -0.8433179695
C        0.8832315240   -2.5460400275   -0.7329856996
C       -1.0839080314    1.4447976478    0.5069150555
C        0.1117423802    1.8949531104   -0.2220402723
N        1.0008113754    0.9787204581   -0.4095136062
H        1.1457747656   -0.5657922275    0.9927540957
H       -0.2545159352   -1.0927364248   -1.7181469298
H        1.5070979984   -3.0800771384   -0.0271457731
H       -1.9377625514    2.0611441250    0.7652075689
H        0.2723194410    2.9109566662   -0.5801305003
C       -0.8894479292    0.1406813736    0.7753420600
H       -1.5516203134   -0.5447274384    1.2917141859
13   
From optimize.out: Frame 2 / 5, Energy=    -286.8505749504
C        0.4646647286   -0.2366486321    0.1892198582
C        0.3573496683   -1.3514905197   -0.8537543985
C        0.8591731305   -2.5552523595   -0.7187093172
C       -1.0864284543    1.4373386935    0.5125584605
C        0.1012106791    1.9016942130   -0.2210608661
N        0.9950205453    0.9930301940   -0.4224799309
H        1.1646932207   -0.5501254900    0.9757345044
H       -0.1981178393   -1.0754164837   -1.7515034535
H        1.4401945030   -3.1065334555    0.0103147272
H       -1.9432762531    2.0448103542    0.7814951215
H        0.2489558575    2.9198584890   -0.5790137901
C       -0.8760238656    0.1352926416    0.7780914613
H       -1.5274159206   -0.5565576447    1.2991076234
13   
From optimize.out: Frame 1 / 5, Energy=    -286.8505190740
C        0.4729051860   -0.2303938421    0.1793612025
C        0.3730429430   -1.3472542467   -0.8623836333
C        0.8418271735   -2.5620609906   -0.7065448051
C       -1.0856530017    1.4328747334    0.5215287554
C        0.0914294828    1.9072129918   -0.2227841348
N        0.9895803730    1.0045839898   -0.4334601937
H        1.1773092210   -0.5382124469    0.9633671754
H       -0.1548035084   -1.0657969676   -1.7749905466
H        1.3869157839   -3.1255073736    0.0415574405
H       -1.9427608873    2.0339710245    0.8031011429
H        0.2285640378    2.9275846931   -0.5803513052
C       -0.8671393396    0.1300069495    0.7748529286
H       -1.5112174641   -0.5670085148    1.2967459733
13   
From optimize.out: Frame 58 / 59, Energy=    -286.8505190734
C        0.4729051860   -0.2303938421    0.1793612025
C        0.3730429430   -1.3472542467   -0.8623836333
C        0.8418271735   -2.5620609906   -0.7065448051
C       -1.0856530017    1.4328747334    0.5215287554
C        0.0914294828    1.9072129918   -0.2227841348
N        0.9895803730    1.0045839898   -0.4334601937
H        1.1773092210   -0.5382124469    0.9633671754
H       -0.1548035084   -1.0657969676   -1.7749905466
H        1.3869157839   -3.1255073736    0.0415574405
H       -1.9427608873    2.0339710245    0.8031011429
H        0.2285640378    2.9275846931   -0.5803513052
C       -0.8671393396    0.1300069495    0.7748529286
H       -1.5112174641   -0.5670085148    1.2967459733
13   
From optimize.out: Frame 56 / 59, Energy=    -286.8505096260
C        0.4825013426   -0.2360560202    0.1986769451
C        0.3780240896   -1.3240693103   -0.8761245667
C        0.8317018284   -2.5448691300   -0.7269077705
C       -1.0859621066    1.4197478406    0.5219295944
C        0.0855493007    1.8903026734   -0.2330694300
N        0.9995025897    0.9976478786   -0.4129619515
H        1.1793079612   -0.5675538572    0.9796955497
H       -0.1123646737   -1.0048456441   -1.7974273046
H        1.3346502730   -3.1034273526    0.0513981700
H       -1.9489424219    2.0236098942    0.7800031066
H        0.2039785332    2.8972870676   -0.6318830489
C       -0.8577195271    0.1229578067    0.8012841969
H       -1.4902271893   -0.5707318466    1.3453865093
13   
From optimize.out: Frame 54 / 59, Energy=    -286.8504924972
C        0.5007547242   -0.2284564019    0.2359848016
C        0.3920234690   -1.2971947710   -0.8582901704
C        0.7942845527   -2.5376359185   -0.7419533149
C       -1.0995106917    1.4058102583    0.4927971810
C        0.0766115607    1.8796539904   -0.2512806552
N        1.0076110392    0.9987676914   -0.3957348478
H        1.2158205273   -0.5719882258    0.9937903039
H       -0.0698176587   -0.9389546602   -1.7794625968
H        1.2786952137   -3.1428666119    0.0136130669
H       -1.9893638327    1.9828649290    0.7309087345
H        0.1900372509    2.8831527290   -0.6538198048
C       -0.8421893345    0.1258557705    0.8202151337
H       -1.4549568200   -0.5590087794    1.3932321683
13   
From optimize.out: Frame 51 / 59, Energy=    -286.8504289327
C        0.5368836364   -0.2254937066    0.2589604776
C        0.3961365600   -1.2878231247   -0.8355450110
C        0.7658967810   -2.5432413051   -0.7586362460
C       -1.1167958306    1.3827939024    0.4758214557
C        0.0630990495    1.8743134909   -0.2671570141
N        1.0187702757    1.0126672775   -0.3784899120
H        1.2483704898   -0.5505689664    1.0323561169
H       -0.0354505826   -0.8639203672   -1.7427531796
H        1.2349616639   -3.1950239198   -0.0320019440
H       -2.0018790473    1.9619850185    0.7049095417
H        0.1685297135    2.8742996552   -0.6973221412
C       -0.8282152074    0.1167986709    0.8294249057
H       -1.4503075020   -0.5567866257    1.4104329502
13   
From optimize.out: Frame 49 / 59, Energy=    -286.8503474280
C        0.5604519126   -0.2062323825    0.2979008375
C        0.4091420850   -1.2657463402   -0.8038830894
C        0.7422169925   -2.5332376136   -0.7662953802
C       -1.1192356867    1.3694268342    0.4652796134
C        0.0510194998    1.8660491441   -0.2761416171
N        1.0327923166    1.0304886682   -0.3537773257
H        1.2664523660   -0.5158392805    1.0749368604
H       -0.0153121240   -0.8121464734   -1.7088287242
H        1.1916272234   -3.2693860292   -0.1038314964
H       -2.0109015488    1.9449863832    0.6696813714
H        0.1377800120    2.8417825261   -0.7467622418
C       -0.8109624877    0.1164120283    0.8426355451
H       -1.4350705606   -0.5665574650    1.4090856472
13   
From optimize.out: Frame 47 / 59, Energy=    -286.8502528600
C        0.5682437849   -0.1899485344    0.3302796881
C        0.4434381371   -1.2534283961   -0.7865016894
C        0.7269037737   -2.5305172498   -0.7757298300
C       -1.1110090426    1.3647935581    0.4487862823
C        0.0608579960    1.8584520349   -0.2831670067
N        1.0471724917    1.0266361628   -0.3406315873
H        1.2696602127   -0.4734882248    1.1159987900
H       -0.0005985411   -0.7737634853   -1.6620973945
H        1.1540074472   -3.3173754207   -0.1715810453
H       -2.0112910888    1.9399924143    0.6616378628
H        0.0961971345    2.8149323151   -0.7954832879
C       -0.8075204162    0.1218798638    0.8658393112
H       -1.4360618892   -0.5881650380    1.3926499069
13   
From optimize.out: Frame 45 / 59, Energy=    -286.8501757169
C        0.5850025287   -0.1817171489    0.3611101409
C        0.4666999672   -1.2465131303   -0.7523165358
C        0.7257727892   -2.5267394583   -0.7937114555
C       -1.1168639722    1.3819957725    0.4665602861
C        0.0516228773    1.8603606845   -0.2976124858
N        1.0480020627    1.0397931839   -0.3182345658
H        1.2892226267   -0.4526954317    1.1618308503
H        0.0312142424   -0.7839780285   -1.6366938194
H        1.0990924839   -3.3794017579   -0.2557372767
H       -2.0352058487    1.9260701295    0.6300047594
H        0.0770230242    2.8140368210   -0.8341374208
C       -0.8053170206    0.1356929815    0.8705053131
H       -1.4162657607   -0.5869046173    1.3984322099
13   
From optimize.out: Frame 42 / 59, Energy=    -286.8499816211
C        0.6064237343   -0.1541119786    0.3848898243
C        0.4668519724   -1.2203305162   -0.7208481103
C        0.7058179518   -2.5020741854   -0.7675964032
C       -1.1135286079    1.3652237213    0.4504956576
C        0.0352155194    1.8668351534   -0.2983870118
N        1.0540829880    1.0740128478   -0.2967962827
H        1.3179631395   -0.4636893615    1.1669799204
H        0.0546100514   -0.7775614416   -1.6313127054
H        1.0331693901   -3.4310360433   -0.3233645020
H       -2.0692326787    1.8767652627    0.5612389197
H        0.0711011681    2.8083754926   -0.8425354561
C       -0.7808354091    0.1335138966    0.8851023169
H       -1.3816392193   -0.5759228479    1.4321338326
13   
From optimize.out: Frame 40 / 59, Energy=    -286.8497915084
C        0.6387259353   -0.1240132466    0.3916681937
C        0.4803088695   -1.1969647781   -0.7071261029
C        0.6805844928   -2.4851269584   -0.7249378027
C       -1.1375111716    1.3348016425    0.4184518544
C        0.0394222678    1.8742872521   -0.2887532725
N        1.0761373070    1.1027172208   -0.2846982038
H        1.3391358511   -0.4804291392    1.1506630000
H        0.0760303934   -0.7722112448   -1.6293575246
H        0.9675758864   -3.4657667571   -0.3827543148
H       -2.1094084723    1.8293836102    0.5040395512
H        0.0665398096    2.8088158763   -0.8441848527
C       -0.7549672890    0.1408846353    0.9179597231
H       -1.3625738801   -0.5663781132    1.4790297516
13   
From optimize.out: Frame 38 / 59, Energy=    -286.8495484686
C        0.6382269705   -0.1381606462    0.4032537606
C        0.4682531915   -1.1795027970   -0.7308610473
C        0.6557907750   -2.4582104374   -0.6163821346
C       -1.1521324969    1.3223749483    0.3931363834
C        0.0408542276    1.8557564965   -0.3054400478
N        1.0872661758    1.0984692605   -0.2440226574
H        1.3631216391   -0.5141625100    1.1277096732
H        0.0704598837   -0.7109574303   -1.6413809237
H        0.9715728066   -3.4570278843   -0.4254550662
H       -2.1062917313    1.8169596504    0.4847456315
H        0.0595647173    2.7994853054   -0.8514289443
C       -0.7604601043    0.1369987914    0.9065712074
H       -1.3362260547   -0.5720227473    1.4995541653
13   
From optimize.out: Frame 36 / 59, Energy=    -286.8490395427
C        0.6415468237   -0.1088994281    0.4355555118
C        0.4297913340   -1.1945581370   -0.7581834599
C        0.6504515031   -2.4524532040   -0.5836243884
C       -1.1264782893    1.3138899123    0.3848407119
C        0.0268210047    1.8487302917   -0.3133878164
N        1.0860028967    1.1045444290   -0.2227197154
H        1.3924345327   -0.5304932899    1.1166840970
H        0.0682907541   -0.6596666581   -1.6453274773
H        0.9522105532   -3.4615144146   -0.4284095241
H       -2.1170190151    1.7782472504    0.4309966883
H        0.0548136758    2.8020724609   -0.8400310906
C       -0.7553868626    0.1275470242    0.9065000421
H       -1.3034789112   -0.5674462370    1.5171064211
13   
From optimize.out: Frame 33 / 59, Energy=    -286.8477573551
C        0.6702580533   -0.0562134557    0.4796120714
C        0.4002993486   -1.2288468773   -0.7848806572
C        0.6506343080   -2.4627717344   -0.5967194933
C       -1.1336487349    1.3125436888    0.3864358256
C        0.0178952747    1.8561775288   -0.3136427601
N        1.0923210637    1.1226842636   -0.2105712062
H        1.4250585604   -0.5313795988    1.1052013605
H        0.0834525923   -0.6380031046   -1.6418536972
H        0.8886452098   -3.4879435131   -0.4345599099
H       -2.1474811453    1.7090118614    0.3463959422
H        0.0513446109    2.8201801999   -0.8185438913
C       -0.7295310538    0.1362514224    0.9258672111
H       -1.2692480877   -0.5516906810    1.5572592044
13   
From optimize.out: Frame 31 / 59, Energy=    -286.8468555368
C        0.6984729366   -0.0126510395    0.5143273547
C        0.3785106911   -1.2515206525   -0.7998651021
C        0.6443119138   -2.4703228516   -0.6105578736
C       -1.1417571939    1.3043266720    0.3809985782
C        0.0108929538    1.8642639634   -0.3121280368
N        1.0991967088    1.1436303983   -0.1996166862
H        1.4577378116   -0.5283102482    1.0926132077
H        0.0986201580   -0.6172646815   -1.6332700873
H        0.8156768976   -3.5094863450   -0.4407761243
H       -2.1692693864    1.6281591095    0.2601121913
H        0.0445091935    2.8385809475   -0.7951268038
C       -0.7024172792    0.1466150587    0.9477383262
H       -1.2344854052   -0.5360203312    1.5955510558
13   
From optimize.out: Frame 29 / 59, Energy=    -286.8460828086
C        0.7249050415    0.0240969061    0.5412233947
C        0.3615113958   -1.2644310793   -0.8057760711
C        0.6346520312   -2.4768633721   -0.6224217819
C       -1.1472563488    1.2900613359    0.3708063459
C        0.0045411724    1.8719439737   -0.3094796560
N        1.1057247164    1.1662130886   -0.1911150097
H        1.4896396155   -0.5237309420    1.0787790745
H        0.1139002481   -0.5962675184   -1.6208583891
H        0.7365464000   -3.5247576611   -0.4471101577
H       -2.1835883730    1.5392047632    0.1740498822
H        0.0353439250    2.8571479553   -0.7699471893
C       -0.6753306121    0.1577598564    0.9701727426
H       -1.2005892119   -0.5203773062    1.6316768150
13   
From optimize.out: Frame 27 / 59, Energy=    -286.8452593889
C        0.7486096962    0.0543937222    0.5599106698
C        0.3475356928   -1.2694452172   -0.8011480593
C        0.6256197444   -2.4799137129   -0.6284803840
C       -1.1531426012    1.2734715664    0.3594968332
C       -0.0018882488    1.8788551571   -0.3080418040
N        1.1102585445    1.1871133919   -0.1884040256
H        1.5170091571   -0.5202689503    1.0605099312
H        0.1332816216   -0.5777004424   -1.6055616593
H        0.6530028535   -3.5333973102   -0.4561338028
H       -2.1890418411    1.4429170450    0.0906180401
H        0.0261991729    2.8768000307   -0.7403433522
C       -0.6494753228    0.1690496762    0.9909146199
H       -1.1679684691   -0.5018749566    1.6666629930
13   
From optimize.out: Frame 24 / 59, Energy=    -286.8438827063
C        0.7700969166    0.0791375751    0.5712604649
C        0.3374641204   -1.2687947980   -0.7877247175
C        0.6204273915   -2.4802979142   -0.6302134380
C       -1.1594579539    1.2539642879    0.3456541219
C       -0.0079509136    1.8850342022   -0.3077118574
N        1.1131478399    1.2057920152   -0.1917193652
H        1.5397046613   -0.5175702216    1.0400846888
H        0.1517486004   -0.5604281507   -1.5856011537
H        0.5668766684   -3.5351873137   -0.4681160586
H       -2.1854201969    1.3424406234    0.0100253425
H        0.0174588772    2.8969405503   -0.7061479517
C       -0.6243014220    0.1806661237    1.0097102208
H       -1.1397945892   -0.4816969796    1.7004997032
13   
From optimize.out: Frame 22 / 59, Energy=    -286.8419653378
C        0.7906494550    0.0998430416    0.5781270223
C        0.3315089866   -1.2647359784   -0.7685792607
C        0.6181389219   -2.4794653918   -0.6293688797
C       -1.1657549502    1.2303631855    0.3293927856
C       -0.0132629193    1.8915322840   -0.3066742761
N        1.1153874854    1.2233755306   -0.1991022642
H        1.5590271230   -0.5155733824    1.0200625901
H        0.1669956235   -0.5430065544   -1.5612345408
H        0.4788823956   -3.5298103486   -0.4820872467
H       -2.1729407200    1.2393077930   -0.0668466159
H        0.0073029360    2.9159641312   -0.6713565654
C       -0.5990663492    0.1921431640    1.0273736446
H       -1.1168679884   -0.4599374743    1.7302936068
13   
From optimize.out: Frame 20 / 59, Energy=    -286.8405646229
C        0.8108580625    0.1179027034    0.5817590342
C        0.3300625772   -1.2592480444   -0.7464520958
C        0.6179038891   -2.4789296833   -0.6270465866
C       -1.1715048676    1.2025039508    0.3115822447
C       -0.0183300879    1.8984310809   -0.3049110427
N        1.1170377535    1.2406384772   -0.2100225887
H        1.5751468976   -0.5143636853    1.0006774119
H        0.1819372535   -0.5253043266   -1.5343657595
H        0.3883377253   -3.5169219729   -0.4967443061
H       -2.1518765289    1.1357236852   -0.1384007230
H       -0.0056229609    2.9332638993   -0.6376749973
C       -0.5733137170    0.2036327149    1.0441359783
H       -1.1006359965   -0.4373287990    1.7574634305
13   
From optimize.out: Frame 18 / 59, Energy=    -286.8389100337
C        0.8311583606    0.1336094057    0.5829030664
C        0.3327345654   -1.2540616401   -0.7225278348
C        0.6187702892   -2.4800843953   -0.6236784528
C       -1.1763785474    1.1698684284    0.2930313545
C       -0.0232842367    1.9063364179   -0.3023783620
N        1.1182035433    1.2580465012   -0.2257654449
H        1.5879429802   -0.5148588766    0.9817870905
H        0.1981633198   -0.5073439969   -1.5059199548
H        0.2961121464   -3.4960804010   -0.5106640417
H       -2.1234184831    1.0331837823   -0.2031501128
H       -0.0217683482    2.9494763406   -0.6049917609
C       -0.5470363026    0.2148765642    1.0597903147
H       -1.0911992871   -0.4129681304    1.7815641387
13   
From optimize.out: Frame 16 / 59, Energy=    -286.8369785097
C        0.8520645802    0.1471564903    0.5824980142
C        0.3385730920   -1.2494251748   -0.6978474535
C        0.6188581274   -2.4829873557   -0.6197520220
C       -1.1794663946    1.1326196128    0.2741995847
C       -0.0278270822    1.9151589995   -0.2997289126
N        1.1197366319    1.2767107702   -0.2462710340
H        1.5979267025   -0.5171142630    0.9641856972
H        0.2164299387   -0.4883065788   -1.4768174635
H        0.2030106818   -3.4673263621   -0.5227035506
H       -2.0891256399    0.9322750877   -0.2604847680
H       -0.0409570602    2.9644721648   -0.5744396962
C       -0.5202758947    0.2254533385    1.0736461195
H       -1.0889476830   -0.3886867295    1.8035154848
13   
From optimize.out: Frame 13 / 59, Energy=    -286.8198524869
C        0.8743652644    0.1583983797    0.5806801322
C        0.3464271191   -1.2460405187   -0.6724760504
C        0.6167342927   -2.4881063457   -0.6149057055
C       -1.1802276861    1.0903268256    0.2556872030
C       -0.0311630671    1.9264049413   -0.2973609783
N        1.1228625940    1.2986032396   -0.2728865840
H        1.6061590771   -0.5211588233    0.9477537248
H        0.2359935555   -0.4679608893   -1.4474268976
H        0.1096786858   -3.4312424766   -0.5307187656
H       -2.0512417846    0.8337704230   -0.3090822401
H       -0.0623936229    2.9798319944   -0.5460421032
C       -0.4931268016    0.2337458595    1.0845190899
H       -1.0940676263   -0.3665726094    1.8222591748
13   
From optimize.out: Frame 11 / 59, Energy=    -286.8081406194
C        0.8987519905    0.1673545716    0.5773378940
C        0.3558478058   -1.2445104497   -0.6465372551
C        0.6120156651   -2.4958812687   -0.6093570706
C       -1.1782972449    1.0437267925    0.2380911963
C       -0.0325295747    1.9413006386   -0.2964793579
N        1.1286747095    1.3248027101   -0.3059858311
H        1.6136777393   -0.5263565421    0.9321337915
H        0.2565362866   -0.4459664790   -1.4180574454
H        0.0169574255   -3.3885290421   -0.5338567743
H       -2.0118882119    0.7393696543   -0.3481621452
H       -0.0844268671    2.9968357175   -0.5205462898
C       -0.4656481017    0.2384219782    1.0914401568
H       -1.1096716220   -0.3505682812    1.8399791307
13   
From optimize.out: Frame 9 / 59, Energy=    -286.7924147753
C        0.9252099360    0.1745076003    0.5725069798
C        0.3659127518   -1.2445658137   -0.6204678205
C        0.6041889446   -2.5056193944   -0.6033288606
C       -1.1728777632    0.9937324287    0.2215926737
C       -0.0315460190    1.9598663386   -0.2977890268
N        1.1378500312    1.3549290938   -0.3444003852
H        1.6212783025   -0.5314365873    0.9171307939
H        0.2769573765   -0.4213664966   -1.3897325740
H       -0.0731858647   -3.3399287401   -0.5314842296
H       -1.9719312547    0.6500227373   -0.3781718447
H       -0.1054776333    3.0154542484   -0.4990359061
C       -0.4380830290    0.2384567656    1.0942645849
H       -1.1382957787   -0.3440521805    1.8589156152
13   
From optimize.out: Frame 7 / 59, Energy=    -286.7670863552
C        0.9531803188    0.1802564814    0.5660047962
C        0.3758743692   -1.2460780490   -0.5948688609
C        0.5930405448   -2.5167290697   -0.5967321946
C       -1.1635378268    0.9417548178    0.2066340634
C       -0.0287182711    1.9815324206   -0.3014851090
N        1.1505157284    1.3871042689   -0.3864816866
H        1.6289826816   -0.5352728288    0.9020883776
H        0.2968445625   -0.3929892382   -1.3638803079
H       -0.1582184177   -3.2867357758   -0.5232345554
H       -1.9317032745    0.5662403032   -0.3994456107
H       -0.1247079245    3.0349939925   -0.4822281152
C       -0.4109242735    0.2332741226    1.0937411835
H       -1.1806282171   -0.3473514453    1.8798880196
13   
From optimize.out: Frame 4 / 59, Energy=    -286.6953614961
C        0.9828698216    0.1825085053    0.5554971276
C        0.3888965477   -1.2534425949   -0.5697960604
C        0.5811391951   -2.5342570907   -0.5887389777
C       -1.1530626769    0.8917002946    0.1967823847
C       -0.0266756188    2.0083805315   -0.3089900169
N        1.1663917851    1.4183128521   -0.4346110314
H        1.6341764468   -0.5393146635    0.8833449890
H        0.3230099127   -0.3607681986   -1.3406033780
H       -0.2372956406   -3.2317017385   -0.5099211389
H       -1.8941448759    0.4917651289   -0.4057419251
H       -0.1432327066    3.0571434484   -0.4692874590
C       -0.3849274997    0.2227497638    1.0907578108
H       -1.2371446905   -0.3530762384    1.9013076753
13   
From optimize.out: Frame 2 / 59, Energy=    -286.6055565628
C        1.0058259377    0.1879985030    0.5487924759
C        0.3872019230   -1.2455996094   -0.5442723831
C        0.5563460422   -2.5308563998   -0.5779167332
C       -1.1286179836    0.8348501347    0.1751430774
C       -0.0266274859    2.0237666530   -0.3090168994
N        1.1768099148    1.4390240835   -0.4679965278
H        1.6336407184   -0.5340822653    0.8650385792
H        0.3295850323   -0.3152466426   -1.3067083396
H       -0.3007470856   -3.1727082550   -0.4889431172
H       -1.8329785738    0.4094311517   -0.4274683997
H       -0.1663037654    3.0651833129   -0.4558875966
C       -0.3618334457    0.2065848746    1.0861930582
H       -1.2723012284   -0.3683455413    1.9030428059
13   
C6H6N->C4H4N+C2H2 atoms 1-13 frame 809 charge +0.000 sz -1.000 sz^2 0.949
C        1.0234887552    0.1846379979    0.5423884318
C        0.3664775897   -1.2360751645   -0.5480398236
C        0.5339110320   -2.5274585228   -0.5930297847
C       -1.1255781480    0.8214785325    0.1801941224
C       -0.0288107313    2.0367914448   -0.2999028189
N        1.1792246613    1.4504134365   -0.4748600465
H        1.6194990422   -0.5692766308    0.8376537415
H        0.3112538818   -0.2777534190   -1.2606417236
H       -0.2914579966   -3.1488935104   -0.4336751552
H       -1.8165315763    0.3812842561   -0.4485909198
H       -0.1741288450    3.0623496681   -0.4537478635
C       -0.3492038233    0.1858517879    1.0923860203
H       -1.2481438418   -0.3633498764    1.8598658198
13   
C6H6N->C4H4N+C2H2 atoms 1-13 frame 811 charge -0.000 sz -1.000 sz^2 0.948
C        1.0330356013    0.1775282564    0.5382927122
C        0.3347351978   -1.2224105991   -0.5707727232
C        0.5111993636   -2.5201683193   -0.6244229764
C       -1.1347454014    0.8397274746    0.2012350741
C       -0.0316941901    2.0469817980   -0.2829794488
N        1.1766609819    1.4570364897   -0.4596604892
H        1.6177884901   -0.6310844667    0.8164756012
H        0.2781218061   -0.2626590119   -1.2063976618
H       -0.2457281591   -3.1603929148   -0.3661011028
H       -1.8437639096    0.3926235454   -0.4719831654
H       -0.1749622333    3.0643072215   -0.4596992892
C       -0.3483131667    0.1634334429    1.1051309211
H       -1.1723343806   -0.3449229165    1.7808825481
13   
From optimize.out: Frame 1 / 100, Energy=    -286.5896195537
C        1.0374251483    0.1724956317    0.5374186909
C        0.3058334119   -1.2061939129   -0.5940133720
C        0.4894950081   -2.5078971481   -0.6555752634
C       -1.1430627795    0.8611815492    0.2194032053
C       -0.0344411294    2.0550178250   -0.2648075582
N        1.1740766594    1.4650034139   -0.4383347050
H        1.6340721734   -0.6869004005    0.8054470815
H        0.2472916516   -0.2646327384   -1.1568113895
H       -0.2106882403   -3.1907198354   -0.3063795528
H       -1.8799039454    0.4125937109   -0.4936684982
H       -0.1797111824    3.0795751073   -0.4679862276
C       -0.3533231727    0.1425763695    1.1157366222
H       -1.0870636030   -0.3320995722    1.6995709667
13   
From optimize.out: Frame 3 / 100, Energy=    -286.6833966005
C        1.0172723183    0.1725852933    0.5460145263
C        0.3046606345   -1.2155869935   -0.6223021762
C        0.5083416013   -2.5084141818   -0.6724191783
C       -1.1552915424    0.9054771886    0.2380955364
C       -0.0339289069    2.0408958708   -0.2645600447
N        1.1669889587    1.4503788992   -0.4081856018
H        1.6320283775   -0.6825965667    0.8222181441
H        0.2372001155   -0.2974337114   -1.1932013463
H       -0.1540792097   -3.2379688655   -0.3068601800
H       -1.9148235212    0.4808576516   -0.4695207200
H       -0.1649414125    3.0723160066   -0.4866482001
C       -0.3711500938    0.1532720563    1.1188000889
H       -1.0722773192   -0.3337826476    1.6985691516
13   
From optimize.out: Frame 5 / 100, Energy=    -286.7438459300
C        0.9873340824    0.1759910853    0.5603672636
C        0.3078733539   -1.2295891834   -0.6511283964
C        0.5350300132   -2.5068158002   -0.6850876587
C       -1.1646722851    0.9548237838    0.2521278607
C       -0.0331115313    2.0158853816   -0.2677561461
N        1.1566245796    1.4238170384   -0.3702207948
H        1.6218096003   -0.6573397005    0.8487302061
H        0.2282122179   -0.3325927435   -1.2505920675
H       -0.0838662595   -3.2876440343   -0.3279058276
H       -1.9416095435    0.5592552840   -0.4386199253
H       -0.1447937814    3.0514468468   -0.5092720158
C       -0.3931768168    0.1744136476    1.1190643093
H       -1.0756536298   -0.3416516055    1.7202931925
13   
From optimize.out: Frame 7 / 100, Energy=    -286.7807150575
C        0.9525416391    0.1825271200    0.5801587197
C        0.3043870840   -1.2383929938   -0.6785311209
C        0.5530101860   -2.4948361310   -0.6978955170
C       -1.1665548685    1.0016240843    0.2572496251
C       -0.0336757106    1.9844087727   -0.2674049033
N        1.1431906828    1.3882573507   -0.3225519965
H        1.6089442004   -0.6262559055    0.8783774665
H        0.2114711270   -0.3574054780   -1.2982938766
H       -0.0012022456   -3.3361551939   -0.3541692851
H       -1.9565150563    0.6322890343   -0.4188322737
H       -0.1261561348    3.0214084051   -0.5341558947
C       -0.4171593801    0.1966248055    1.1176760101
H       -1.0722815235   -0.3540938704    1.7383730465
13   
From optimize.out: Frame 10 / 100, Energy=    -286.8136323637
C        0.9209617458    0.1855902115    0.5949656152
C        0.3056446292   -1.2564498263   -0.7078376040
C        0.5711311728   -2.4977625474   -0.7088444308
C       -1.1717161894    1.0521565123    0.2701085308
C       -0.0348247299    1.9653026767   -0.2706185644
N        1.1335539425    1.3570118331   -0.2845214720
H        1.5947201165   -0.6023913278    0.9037596966
H        0.2073948925   -0.3872297122   -1.3413332068
H        0.0817966139   -3.3869176673   -0.3810529398
H       -1.9864468552    0.7143946918   -0.3850027838
H       -0.1059941551    3.0016210934   -0.5592136653
C       -0.4431204963    0.2141471183    1.1164015239
H       -1.0731006873   -0.3594730561    1.7531893005
13   
From optimize.out: Frame 12 / 100, Energy=    -286.8262121199
C        0.8905345690    0.1893196575    0.6111184343
C        0.3046362396   -1.2762717571   -0.7386318098
C        0.5846356200   -2.5033882367   -0.7184726595
C       -1.1745957790    1.0983444427    0.2828680126
C       -0.0333942909    1.9503548448   -0.2754535810
N        1.1272809898    1.3305553860   -0.2492207909
H        1.5805215070   -0.5783746689    0.9307273157
H        0.2022288597   -0.4155634077   -1.3807372937
H        0.1687181678   -3.4356463131   -0.4066320211
H       -2.0185420925    0.7985317380   -0.3462251506
H       -0.0839949857    2.9840444463   -0.5871834426
C       -0.4713383615    0.2269828059    1.1141426636
H       -1.0766904433   -0.3688889377    1.7637003232
13   
From optimize.out: Frame 14 / 100, Energy=    -286.8333975367
C        0.8626446575    0.1920362921    0.6265928564
C        0.3040573627   -1.2994131473   -0.7708795845
C        0.5958813684   -2.5136909927   -0.7266072906
C       -1.1768727289    1.1416685249    0.2968521906
C       -0.0308462554    1.9396220371   -0.2813046615
N        1.1229140919    1.3089406494   -0.2190764581
H        1.5668820637   -0.5570537287    0.9571346449
H        0.1987148882   -0.4443512085   -1.4174860913
H        0.2557197410   -3.4817194425   -0.4290023938
H       -2.0537557146    0.8871800040   -0.3005617412
H       -0.0625249712    2.9695785828   -0.6150218418
C       -0.5002358671    0.2364550277    1.1098998956