13   
From optimize.out: Frame 4 / 5, Energy=    -286.8505973773
C        0.4556283744   -0.2440434559    0.2002947438
C        0.3427997002   -1.3563676241   -0.8445979894
C        0.8808806592   -2.5467900593   -0.7322657859
C       -1.0846620042    1.4434213999    0.5061920816
C        0.1120311673    1.8965232616   -0.2193801825
N        1.0003827572    0.9802669516   -0.4108748766
H        1.1474616248   -0.5652592280    0.9906073916
H       -0.2492391948   -1.0904876804   -1.7218850297
H        1.4997060965   -3.0831676815   -0.0233021517
H       -1.9399505811    2.0579974304    0.7637253815
H        0.2696246603    2.9122756731   -0.5802296105
C       -0.8868969286    0.1405314116    0.7771461405
H       -1.5477663317   -0.5449003991    1.2945698876
13   
From optimize.out: Frame 3 / 5, Energy=    -286.8505925824
C        0.4678567474   -0.2342257803    0.1854010150
C        0.3634286061   -1.3498495595   -0.8570970139
C        0.8524540106   -2.5578897469   -0.7139972788
C       -1.0861280755    1.4356095365    0.5160331887
C        0.0974218405    1.9038319640   -0.2217283905
N        0.9929132433    0.9975056657   -0.4267332392
H        1.1695801473   -0.5455108605    0.9709439030
H       -0.1813396251   -1.0716902735   -1.7606014003
H        1.4195564892   -3.1138831815    0.0224168865
H       -1.9430766213    2.0406116377    0.7898644174
H        0.2410568940    2.9228513070   -0.5795318892
C       -0.8725823607    0.1332451789    0.7768369852
H       -1.5211412959   -0.5606058877    1.2981928160
13   
From optimize.out: Frame 2 / 5, Energy=    -286.8505749504
C        0.4806617223   -0.2349705588    0.1949740426
C        0.3770691846   -1.3285139521   -0.8734903766
C        0.8336428961   -2.5481648761   -0.7230041113
C       -1.0859028500    1.4222643167    0.5218527521
C        0.0866765544    1.8935444468   -0.2310976992
N        0.9976004624    0.9989775579   -0.4168915437
H        1.1789247950   -0.5619289955    0.9765653373
H       -0.1205003623   -1.0165302483   -1.7931260914
H        1.3446697734   -3.1076601779    0.0495116641
H       -1.9477573978    2.0255961629    0.7844310894
H        0.2086916694    2.9030952395   -0.6220042146
C       -0.8595253415    0.1243091546    0.7962172207
H       -1.4942511060   -0.5700180695    1.3360619307
13   
From optimize.out: Frame 58 / 59, Energy=    -286.8505190734
C        0.4982637511   -0.2294934944    0.2308935330
C        0.3901130241   -1.3008622425   -0.8607239662
C        0.7993907534   -2.5386230088   -0.7399001037
C       -1.0976617652    1.4077122699    0.4967727764
C        0.0778312619    1.8811071778   -0.2487954350
N        1.0065045083    0.9986148746   -0.3980857685
H        1.2108377891   -0.5713830835    0.9918668436
H       -0.0756238964   -0.9479465651   -1.7819141757
H        1.2863311989   -3.1374844784    0.0187694637
H       -1.9838476685    1.9884252475    0.7376084664
H        0.1919397674    2.8850815912   -0.6508261748
C       -0.8443086839    0.1254602958    0.8176316970
H       -1.4597700401   -0.5606085841    1.3867028438
13   
From optimize.out: Frame 56 / 59, Energy=    -286.8505096260
C        0.5349180995   -0.2256548874    0.2577105219
C        0.3959127938   -1.2883329745   -0.8367824258
C        0.7674411733   -2.5429363528   -0.7577286372
C       -1.1158554597    1.3840460712    0.4767449935
C        0.0638341765    1.8746040324   -0.2662932856
N        1.0181631749    1.0119110923   -0.3794280957
H        1.2465996601   -0.5517342477    1.0302580042
H       -0.0373202696   -0.8680024905   -1.7447502979
H        1.2373409192   -3.1921863831   -0.0295203307
H       -2.0011981766    1.9631209573    0.7063239871
H        0.1696997974    2.8747812928   -0.6949554647
C       -0.8289754479    0.1172914083    0.8289238625
H       -1.4505604409   -0.5569075185    1.4094971686
13   
From optimize.out: Frame 54 / 59, Energy=    -286.8504924972
C        0.5592241078   -0.2072358137    0.2958722140
C        0.4084645537   -1.2668964447   -0.8055325380
C        0.7434506065   -2.5337587624   -0.7658963726
C       -1.1191085808    1.3701232004    0.4658287976
C        0.0516487918    1.8664796807   -0.2756735583
N        1.0320618292    1.0295602512   -0.3550647441
H        1.2655103789   -0.5176485462    1.0727185887
H       -0.0163612502   -0.8148436682   -1.7105960409
H        1.1938847594   -3.2655120864   -0.1000894889
H       -2.0104315157    1.9458719382    0.6715166059
H        0.1393819378    2.8434765272   -0.7441866275
C       -0.8118612794    0.1164321707    0.8419473282
H       -1.4358643391   -0.5660484467    1.4091558359
13   
From optimize.out: Frame 51 / 59, Energy=    -286.8504289327
C        0.5693914222   -0.1893848498    0.3323909548
C        0.4450311053   -1.2529548393   -0.7841606931
C        0.7268263240   -2.5302585470   -0.7769612102
C       -1.1114099877    1.3659715643    0.4500034445
C        0.0602255759    1.8585827391   -0.2841562318
N        1.0472293006    1.0275371545   -0.3390978412
H        1.2709998451   -0.4720643361    1.1191373655
H        0.0015799956   -0.7744629763   -1.6603577599
H        1.1502468753   -3.3216229789   -0.1773440568
H       -2.0129287695    1.9390390174    0.6594716306
H        0.0948840931    2.8148709917   -0.7981303196
C       -0.8073695279    0.1228257849    0.8661588386
H       -1.4347062520   -0.5880787245    1.3930458785
13   
From optimize.out: Frame 47 / 59, Energy=    -286.8502528600
C        0.5882279332   -0.1775606210    0.3646906629
C        0.4667228547   -1.2425707976   -0.7475783151
C        0.7227681767   -2.5230255925   -0.7897792956
C       -1.1163617643    1.3794703941    0.4641414249
C        0.0491524111    1.8613355494   -0.2977291066
N        1.0489176715    1.0449456603   -0.3150065899
H        1.2935501039   -0.4543507947    1.1626061491
H        0.0347369641   -0.7830118789   -1.6358835816
H        1.0891664019   -3.3871763649   -0.2659199508
H       -2.0403292900    1.9186462645    0.6196506435
H        0.0761313666    2.8131843912   -0.8354019183
C       -0.8016308089    0.1353648753    0.8727031932
H       -1.4110520205   -0.5852510853    1.4035066845
13   
From optimize.out: Frame 45 / 59, Energy=    -286.8501757169
C        0.6116980937   -0.1491974055    0.3859966082
C        0.4690492379   -1.2165153180   -0.7186075572
C        0.7016977889   -2.4993070128   -0.7606310330
C       -1.1174445224    1.3602563515    0.4452634899
C        0.0359024046    1.8680519450   -0.2968139982
N        1.0576840554    1.0786997476   -0.2948208874
H        1.3214202565   -0.4664226614    1.1643156653
H        0.0581076020   -0.7766878522   -1.6309934601
H        1.0224591691   -3.4367069344   -0.3330617735
H       -2.0757926519    1.8690287044    0.5518993076
H        0.0703563816    2.8084473992   -0.8428047724
C       -0.7766116177    0.1347174035    0.8904673311
H       -1.3785261977   -0.5743643670    1.4397910795
13   
From optimize.out: Frame 42 / 59, Energy=    -286.8499816211
C        0.6386276086   -0.1268011537    0.3939512624
C        0.4779331601   -1.1935236947   -0.7118033456
C        0.6756986067   -2.4798227496   -0.7035456648
C       -1.1403924713    1.3323528201    0.4134631509
C        0.0397044519    1.8706355545   -0.2920415927
N        1.0783303781    1.1018801116   -0.2766826215
H        1.3438625254   -0.4870766863    1.1461397840
H        0.0749326607   -0.7601404790   -1.6317268731
H        0.9683635253   -3.4640446621   -0.3911689870
H       -2.1087942828    1.8269353266    0.5002374633
H        0.0651652877    2.8069771805   -0.8456123839
C       -0.7560497112    0.1401188852    0.9157154857
H       -1.3573817393   -0.5674904530    1.4830743224
13   
From optimize.out: Frame 40 / 59, Energy=    -286.8497915084
C        0.6394318940   -0.1275404390    0.4149775135
C        0.4542936600   -1.1849670545   -0.7407775751
C        0.6538529140   -2.4561208794   -0.6044928807
C       -1.1428214354    1.3192953485    0.3901255125
C        0.0357609422    1.8532063719   -0.3083246492
N        1.0868076752    1.1006742114   -0.2362908652
H        1.3737606017   -0.5200896818    1.1237079975
H        0.0696726094   -0.6923417108   -1.6428133048
H        0.9645453773   -3.4586562472   -0.4265273713
H       -2.1101851433    1.8029091858    0.4652377316
H        0.0578403515    2.8004243001   -0.8472921525
C       -0.7586187975    0.1335683216    0.9065453783
H       -1.3243406489   -0.5703617266    1.5059246654
13   
From optimize.out: Frame 38 / 59, Energy=    -286.8495484686
C        0.6568751105   -0.0807715594    0.4590763289
C        0.4140462191   -1.2128641327   -0.7724364997
C        0.6505490986   -2.4579620378   -0.5906155736
C       -1.1303064307    1.3131711935    0.3856923076
C        0.0220557560    1.8527062059   -0.3135239252
N        1.0893760255    1.1142288832   -0.2162338966
H        1.4098517754   -0.5309664705    1.1105537194
H        0.0763853222   -0.6481009688   -1.6434729034
H        0.9182744304   -3.4756243224   -0.4316930783
H       -2.1332820688    1.7412840163    0.3858302319
H        0.0529616192    2.8117397799   -0.8285595529
C       -0.7415830214    0.1321941088    0.9168397428
H       -1.2852038360   -0.5590346961    1.5385430989
13   
From optimize.out: Frame 33 / 59, Energy=    -286.8477573551
C        0.6851540911   -0.0332146932    0.4979399932
C        0.3887960344   -1.2408174890   -0.7927916897
C        0.6472964022   -2.4667583441   -0.6040254614
C       -1.1379295930    1.3082055176    0.3835652327
C        0.0141984018    1.8604467592   -0.3128430625
N        1.0959510582    1.1337427681   -0.2047877711
H        1.4423115597   -0.5297591362    1.0985554496
H        0.0914603033   -0.6270542613   -1.6373219833
H        0.8501216147   -3.4993170437   -0.4378417581
H       -2.1589842396    1.6663256791    0.3008424659
H        0.0477358546    2.8298948682   -0.8061808481
C       -0.7152163459    0.1417229006    0.9374140588
H       -1.2508951415   -0.5434175253    1.5774753741
13   
From optimize.out: Frame 31 / 59, Energy=    -286.8468555368
C        0.7122592489    0.0065157524    0.5283556437
C        0.3696442919   -1.2582544021   -0.8029481129
C        0.6392735652   -2.4737342204   -0.6167457858
C       -1.1446254130    1.2968862362    0.3756825696
C        0.0075800265    1.8682696611   -0.3107467089
N        1.1026015512    1.1554089540   -0.1951824284
H        1.4743769795   -0.5259217988    1.0853976764
H        0.1065898636   -0.6063130964   -1.6267964618
H        0.7744044467   -3.5174514743   -0.4440797947
H       -2.1767378049    1.5817627895    0.2152242842
H        0.0397288230    2.8482650256   -0.7819937586
C       -0.6882895640    0.1524279011    0.9594395461
H       -1.2168060146   -0.5278613280    1.6143933311
13   
From optimize.out: Frame 29 / 59, Energy=    -286.8460828086
C        0.7370964085    0.0396786392    0.5508343100
C        0.3543236546   -1.2670098638   -0.8033958723
C        0.6300067021   -2.4784321705   -0.6255377371
C       -1.1502836641    1.2815291733    0.3649898334
C        0.0012345040    1.8754984137   -0.3087401649
N        1.1080564762    1.1769621702   -0.1897207434
H        1.5037158436   -0.5219504305    1.0693832055
H        0.1238681400   -0.5867184218   -1.6129912403
H        0.6935797318   -3.5292010556   -0.4517510424
H       -2.1863931062    1.4896837337    0.1311406639
H        0.0306407547    2.8672550700   -0.7547218571
C       -0.6620331680    0.1635662407    0.9808403453
H       -1.1838122772   -0.5108614986    1.6496702994
13   
From optimize.out: Frame 27 / 59, Energy=    -286.8452593889
C        0.7595042460    0.0669394648    0.5656652954
C        0.3424291576   -1.2691154386   -0.7943420945
C        0.6229870936   -2.4801085124   -0.6293590851
C       -1.1563446405    1.2635808959    0.3524782378
C       -0.0049621691    1.8819880851   -0.3078745130
N        1.1117234884    1.1965839138   -0.1900849844
H        1.5285163365   -0.5189006284    1.0501538304
H        0.1426448345   -0.5689429652   -1.5954411915
H        0.6093347571   -3.5343048860   -0.4622091015
H       -2.1872055783    1.3919730254    0.0497555581
H        0.0217676278    2.8870117700   -0.7230054422
C       -0.6367115352    0.1749395011    1.0004444523
H       -1.1536836183   -0.4916442255    1.6838190382
13   
From optimize.out: Frame 22 / 59, Energy=    -286.8419653378
C        0.7803633867    0.0894804363    0.5746904698
C        0.3344893928   -1.2667673233   -0.7781611173
C        0.6192842478   -2.4798820499   -0.6297915615
C       -1.1626034497    1.2421749893    0.3375312069
C       -0.0106043838    1.8882801449   -0.3071935615
N        1.1142665948    1.2145753894   -0.1954072947
H        1.5493566795   -0.5165727540    1.0300831857
H        0.1593648424   -0.5517256589   -1.5734294649
H        0.5229214862   -3.5325013948   -0.4750949914
H       -2.1791864085    1.2909233802   -0.0283739855
H        0.0123857488    2.9064432706   -0.6887688465
C       -0.6116959172    0.1863991718    1.0185335111
H       -1.1283422198   -0.4708276015    1.7153824498
13   
From optimize.out: Frame 20 / 59, Energy=    -286.8405646229
C        0.8005863970    0.1087233076    0.5799129490
C        0.3307977607   -1.2620374609   -0.7576989290
C        0.6180233519   -2.4792019741   -0.6282269657
C       -1.1685822898    1.2166642902    0.3206350169
C       -0.0157545387    1.8949245486   -0.3058072620
N        1.1161989524    1.2318640372   -0.2044719875
H        1.5669535110   -0.5149785522    1.0105305434
H        0.1743426963   -0.5343020452   -1.5480226696
H        0.4343599252   -3.5234728986   -0.4892943909
H       -2.1625830720    1.1883735927   -0.1020310791
H        0.0009470361    2.9244707436   -0.6547947223
C       -0.5864033089    0.1977927863    1.0356159907
H       -1.1088864211   -0.4488203752    1.7436535061
13   
From optimize.out: Frame 18 / 59, Energy=    -286.8389100337
C        0.8206811187    0.1255029769    0.5823126168
C        0.3313555183   -1.2567384093   -0.7348754500
C        0.6183231291   -2.4794884338   -0.6254167895
C       -1.1738631793    1.1867120364    0.3026057048
C       -0.0207273375    1.9022563730   -0.3036855107
N        1.1176018644    1.2490619987   -0.2176403567
H        1.5813387593   -0.5146033021    0.9915366255
H        0.1897888407   -0.5166135514   -1.5206011963
H        0.3437109402   -3.5068370012   -0.5034798892
H       -2.1381060423    1.0861059299   -0.1697321295
H       -0.0134355085    2.9411088935   -0.6218599947
C       -0.5605984102    0.2090734706    1.0517109126
H       -1.0960696928   -0.4255409812    1.7691254568
13   
From optimize.out: Frame 16 / 59, Energy=    -286.8369785097
C        0.8411199804    0.1400644659    0.5827100628
C        0.3355165692   -1.2518524074   -0.7107678619
C        0.6188121433   -2.4814676291   -0.6218075449
C       -1.1778498779    1.1521197131    0.2840581908
C       -0.0254488604    1.9105402963   -0.3011159239
N        1.1189340458    1.2669398523   -0.2355361680
H        1.5927001313   -0.5159335473    0.9734001898
H        0.2068671943   -0.4982728437   -1.4920528875
H        0.2517501618   -3.4823793681   -0.5164007561
H       -2.1070782613    0.9851017249   -0.2304695444
H       -0.0309115915    2.9566217118   -0.5904339853
C       -0.5342852164    0.2199162991    1.0663924772
H       -1.0901264186   -0.4013982680    1.7920237516
13   
From optimize.out: Frame 13 / 59, Energy=    -286.8198524869
C        0.8625435800    0.1524390079    0.5816437989
C        0.3422636670   -1.2478347388   -0.6859255355
C        0.6178601462   -2.4853927481   -0.6174747578
C       -1.1798241223    1.1127464061    0.2655006927
C       -0.0293946477    1.9204434213   -0.2986162300
N        1.1212055086    1.2869979515   -0.2587775715
H        1.6017950614   -0.5190147852    0.9564643810
H        0.2256228017   -0.4787462230   -1.4630069575
H        0.1591543609   -3.4503706928   -0.5264698672
H       -2.0713241722    0.8859881510   -0.2833205202
H       -0.0510300128    2.9716896855   -0.5610957841
C       -0.5075186476    0.2293499600    1.0787552835
H       -1.0913535233   -0.3782953954    1.8123230676
13   
From optimize.out: Frame 9 / 59, Energy=    -286.7924147753
C        0.8856952264    0.1625593857    0.5791273435
C        0.3508039273   -1.2453296556   -0.6604250041
C        0.6145420398   -2.4917185396   -0.6123278350
C       -1.1793308119    1.0686766623    0.2475121784
C       -0.0317979403    1.9333254145   -0.2969513814
N        1.1255628764    1.3107753944   -0.2882643436
H        1.6096522133   -0.5235736598    0.9404967749
H        0.2455376149   -0.4577423864   -1.4337819838
H        0.0666008102   -3.4113980093   -0.5321766702
H       -2.0329582938    0.7899122554   -0.3272385862
H       -0.0726301679    2.9877318468   -0.5341968643
C       -0.4803603227    0.2359183629    1.0877345861
H       -1.1013171717   -0.3591370714    1.8304917857
13   
From optimize.out: Frame 7 / 59, Energy=    -286.7670863552
C        0.9109238842    0.1706452997    0.5751154473
C        0.3604781522   -1.2445359197   -0.6345440947
C        0.6084150072   -2.5003612624   -0.6065838117
C       -1.1758040296    1.0207270445    0.2305011035
C       -0.0320770931    1.9498417298   -0.2970818669
N        1.1328957870    1.3386622571   -0.3236583245
H        1.6171743542   -0.5286936008    0.9252317102
H        0.2659309440   -0.4346493354   -1.4050266784
H       -0.0245127084   -3.3661706278   -0.5327652927
H       -1.9935061409    0.6982658894   -0.3619680120
H       -0.0941112051    3.0054011134   -0.5106505062
C       -0.4529668777    0.2384379820    1.0927395260
H       -1.1228400742   -0.3475705698    1.8486908001
13   
From optimize.out: Frame 4 / 59, Energy=    -286.6953614961
C        0.9379319469    0.1771224136    0.5695495354
C        0.3704436803   -1.2452536368   -0.6088244245
C        0.5991182216   -2.5106725040   -0.6003284420
C       -1.1686295992    0.9700910028    0.2147889197
C       -0.0302598500    1.9697209099   -0.2994701478
N        1.1436108797    1.3695636067   -0.3635405872
H        1.6247825519   -0.5331814582    0.9102889217
H        0.2860028372   -0.4084594230   -1.3779739644
H       -0.1118619556   -3.3157345245   -0.5277319590
H       -1.9536340149    0.6119152488   -0.3878479755
H       -0.1142243129    3.0243416790   -0.4913910733
C       -0.4257301775    0.2360994993    1.0940265217
H       -1.1575502075   -0.3455528136    1.8684546751
13   
From optimize.out: Frame 2 / 59, Energy=    -286.6055565628
C        0.9664904106    0.1812660856    0.5612941065
C        0.3817123380   -1.2493796463   -0.5836284815
C        0.5877050544   -2.5245870514   -0.5931487580
C       -1.1588417156    0.9193148900    0.2022174603
C       -0.0278025303    1.9935686889   -0.3048496319
N        1.1576331185    1.4010953792   -0.4080585383
H        1.6313110969   -0.5370848225    0.8936855349
H        0.3085747426   -0.3785442339   -1.3534450346
H       -0.1936695031   -3.2620634836   -0.5172660217
H       -1.9148654805    0.5328523608   -0.4022683094
H       -0.1330127638    3.0449238082   -0.4764266936
C       -0.3992696679    0.2285559505    1.0924037086
H       -1.2059650998   -0.3499179255    1.8894906588
13   
C6H6N->C4H4N+C2H2 atoms 1-13 frame 809 charge +0.000 sz -1.000 sz^2 0.949
C        0.9929855883    0.1849277097    0.5525426778
C        0.3881498000   -1.2499865307   -0.5585488806
C        0.5702139258   -2.5327585534   -0.5839700830
C       -1.1422909586    0.8666488898    0.1872468786
C       -0.0266544087    2.0151605293   -0.3090018628
N        1.1709826039    1.4274393953   -0.4493225746
H        1.6339403745   -0.5370089721    0.8752781466
H        0.3259072833   -0.3407088192   -1.3256673017
H       -0.2652559460   -3.2057058637   -0.5006770328
H       -1.8671915340    0.4554841088   -0.4153158420
H       -0.1533991236    3.0606862687   -0.4633827197
C       -0.3747509497    0.2156265968    1.0887463219
H       -1.2526366551   -0.3598047592    1.9020722723
13   
From optimize.out: Frame 1 / 100, Energy=    -286.5896195537
C        1.0168017667    0.1859102558    0.5448129470
C        0.3743236414   -1.2396810362   -0.5466135035
C        0.5424047310   -2.5287449294   -0.5873081153
C       -1.1267290032    0.8265409044    0.1782818408
C       -0.0279841736    2.0318603723   -0.3033533302
N        1.1783104594    1.4461015269   -0.4722615782
H        1.6248529573   -0.5559523513    0.8480214020
H        0.3181938953   -0.2919480262   -1.2780821423
H       -0.2949747646   -3.1579095648   -0.4545991231
H       -1.8227582659    0.3919404250   -0.4405941180
H       -0.1711663382    3.0634224613   -0.4545579478
C       -0.3539852881    0.1937011535    1.0900414189
H       -1.2572896175   -0.3652411915    1.8762122498
13   
From optimize.out: Frame 3 / 100, Energy=    -286.6833966005
C        1.0304656199    0.1794421768    0.5393952673
C        0.3432801514   -1.2260890578   -0.5646530970
C        0.5173132744   -2.5221308195   -0.6159720263
C       -1.1322776051    0.8348149159    0.1955709150
C       -0.0309179719    2.0442385864   -0.2875351677
N        1.1773511165    1.4552535843   -0.4637521630
H        1.6182489654   -0.6144459886    0.8221766910
H        0.2870408583   -0.2667223796   -1.2209999954
H       -0.2580384899   -3.1572973107   -0.3842918286
H       -1.8364330497    0.3895710438   -0.4656860452
H       -0.1747378878    3.0637802542   -0.4580971838
C       -0.3485529287    0.1694683920    1.1017000332
H       -1.1927420530   -0.3498833971    1.8021446004
13   
From optimize.out: Frame 5 / 100, Energy=    -286.7438459300
C        1.0362183937    0.1738791783    0.5376589729
C        0.3137789613   -1.2106521315   -0.5876241571
C        0.4954618721   -2.5112706834   -0.6470110164
C       -1.1407762032    0.8552834912    0.2144085042
C       -0.0336859532    2.0528085965   -0.2698032928
N        1.1747871298    1.4628131828   -0.4441974939
H        1.6295955362   -0.6715557343    0.8084789927
H        0.2557673394   -0.2640901303   -1.1704434250
H       -0.2203212576   -3.1823824945   -0.3227979334
H       -1.8699684888    0.4071036026   -0.4877068638
H       -0.1784056227    3.0753777286   -0.4657080196
C       -0.3519458443    0.1483103026    1.1128209504
H       -1.1105058627   -0.3356249085    1.7219247819
13   
From optimize.out: Frame 7 / 100, Energy=    -286.7807150575
C        1.0194016970    0.1725758195    0.5451062772
C        0.3047845519   -1.2145945063   -0.6193131380
C        0.5063502416   -2.5083595512   -0.6706394246
C       -1.1539994327    0.9007968438    0.2361204762
C       -0.0339830291    2.0423880180   -0.2645861974
N        1.1677378559    1.4519241477   -0.4113712020
H        1.6322443281   -0.6830513163    0.8204460881
H        0.2382664025   -0.2939679106   -1.1893563280
H       -0.1600606061   -3.2329764610   -0.3068093962
H       -1.9111338656    0.4736447796   -0.4720722110
H       -0.1665020089    3.0730830143   -0.4846763476
C       -0.3692664742    0.1521419337    1.1184763983
H       -1.0738396604   -0.3336048112    1.6986750049
13   
From optimize.out: Frame 12 / 100, Energy=    -286.8262121199
C        0.9896945326    0.1757225590    0.5592356364
C        0.3076200503   -1.2284851948   -0.6488556220
C        0.5329257921   -2.5069418230   -0.6840888251
C       -1.1639326698    0.9509331010    0.2510214962
C       -0.0331759765    2.0178573085   -0.2675041527
N        1.1574417486    1.4259112817   -0.3732140920
H        1.6226152895   -0.6593310528    0.8466398892
H        0.2289208597   -0.3298206649   -1.2460671537
H       -0.0894021291   -3.2837274455   -0.3262465046
H       -1.9394976264    0.5530741014   -0.4410562674
H       -0.1463823012    3.0530922547   -0.5074882637
C       -0.3914401419    0.1727467601    1.1190434771
H       -1.0753874280   -0.3410311854    1.7185803823
13   
From optimize.out: Frame 14 / 100, Energy=    -286.8333975367
C        0.9553867625    0.1819926412    0.5785402897
C        0.3046721709   -1.2376730695   -0.6762902857
C        0.5515398722   -2.4958157585   -0.6968481650
C       -1.1664009218    0.9977970283    0.2568307971
C       -0.0336295753    1.9869827464   -0.2674336259
N        1.1442892287    1.3911652148   -0.3264500732
H        1.6099962579   -0.6287977572    0.8759530862
H        0.2128401159   -0.3553764371   -1.2943931005
H       -0.0079620272   -3.3321882338   -0.3520216125
H       -1.9552961702    0.6263167596   -0.4204503926
H       -0.1276802130    3.0238647739   -0.5321210361
C       -0.4151982257    0.1948085064    1.1177895372
H       -1.0725572747   -0.3530764144    1.7368945813
13   
From optimize.out: Frame 16 / 100, Energy=    -286.8361596430
C        0.9237843157    0.1853164364    0.5936421941
C        0.3055322315   -1.2548359300   -0.7052182286
C        0.5695115425   -2.4975009881   -0.7078658311
C       -1.1712548773    1.0476399895    0.2689592184
C       -0.0347220320    1.9670103548   -0.2703313316
N        1.1344152618    1.3598045169   -0.2879205910
H        1.5959914467   -0.6045243128    0.9014910658
H        0.2077592211   -0.3845640608   -1.3374864072
H        0.0743782835   -3.3823805833   -0.3786501136
H       -1.9837715899    0.7070561946   -0.3880264197
H       -0.1077962067    3.0033896576   -0.5569740343
C       -0.4408001254    0.2125809967    1.1165154358
H       -1.0730274715   -0.3589922715    1.7518650429
13   
From optimize.out: Frame 18 / 100, Energy=    -286.8364351385
C        0.8934717437    0.1889596493    0.6095591817
C        0.3047335808   -1.2743583204   -0.7356592053
C        0.5833320182   -2.5028451816   -0.7175432342
C       -1.1743178085    1.0938858620    0.2816363233
C       -0.0335323730    1.9517977784   -0.2749868506
N        1.1278865261    1.3331092611   -0.2526284113
H        1.5818921172   -0.5806930281    0.9281240965
H        0.2027275435   -0.4128283194   -1.3769335662
H        0.1603275177   -3.4309424738   -0.4041628393
H       -2.0154438977    0.7904098800   -0.3499684057
H       -0.0861185940    2.9857411428   -0.5844834838
C       -0.4686144544    0.2257437603    1.1143607143
H       -1.0763439195   -0.3679800104    1.7626856806
13   
From optimize.out: Frame 21 / 100, Energy=    -286.8367852216
C        0.8654976761    0.1917583920    0.6250098893
C        0.3041165793   -1.2970458822   -0.7675807751
C        0.5947309765   -2.5126370649   -0.7257751526
C       -1.1766398067    1.1372366567    0.2954216691
C       -0.0311069085    1.9407199574   -0.2807061210
N        1.1233608069    1.3111517444   -0.2221600943
H        1.5682773204   -0.5592347697    0.9544332881
H        0.1990743524   -0.4414063397   -1.4137268466
H        0.2468198525   -3.4770063586   -0.4267140004
H       -2.0501535118    0.8781116658   -0.3052329125
H       -0.0647212618    2.9710583788   -0.6121740927
C       -0.4972797760    0.2354860600    1.1103339126
H       -1.0819762993   -0.3781924401    1.7688712363
13   
From optimize.out: Frame 25 / 100, Energy=    -286.8372053458
C        0.8401279331    0.1936391672    0.6394111132
C        0.3045342448   -1.3232406966   -0.8014839623
C        0.6044102275   -2.5270274365   -0.7325292125
C       -1.1784242568    1.1777831011    0.3102946127
C       -0.0282799935    1.9331749986   -0.2865316435
N        1.1199898656    1.2935614065   -0.1968070636
H        1.5549809513   -0.5408068199    0.9795227987
H        0.1974650269   -0.4707802392   -1.4487459335
H        0.3325488590   -3.5198283436   -0.4451967059
H       -2.0863248216    0.9702021388   -0.2538564523
H       -0.0451001143    2.9588970874   -0.6388876258
C       -0.5260687607    0.2427878137    1.1043640791
H       -1.0898591612   -0.3883621774    1.7704459957
13   
From optimize.out: Frame 27 / 100, Energy=    -286.8373356552
C        0.8169208923    0.1953610727    0.6528412891
C        0.3062024416   -1.3527466204   -0.8383111877
C        0.6126349735   -2.5451934642   -0.7380094226
C       -1.1793225488    1.2153198865    0.3256421565
C       -0.0258189191    1.9280043127   -0.2912425226
N        1.1169483059    1.2793601995   -0.1754641015
H        1.5414119978   -0.5249149133    1.0030489405
H        0.1976965069   -0.5009509083   -1.4832898635
H        0.4173155315   -3.5587848724   -0.4588923364
H       -2.1208670300    1.0656434415   -0.1969057685
H       -0.0284678351    2.9479987253   -0.6643644522
C       -0.5545785165    0.2487809311    1.0969829314
H       -1.1000758001   -0.3978777907    1.7679643373
13   
From optimize.out: Frame 30 / 100, Energy=    -286.8375895499
C        0.7960139212    0.1972424360    0.6648485468
C        0.3104463872   -1.3860900285   -0.8789531660
C        0.6203302763   -2.5674531346   -0.7427036883
C       -1.1798254229    1.2500379917    0.3416868549
C       -0.0246833115    1.9253584327   -0.2946310480
N        1.1134482118    1.2680162637   -0.1576680727
H        1.5274304607   -0.5117674770    1.0242640305
H        0.2007863339   -0.5324442643   -1.5184548091
H        0.4989289726   -3.5932310159   -0.4665689119
H       -2.1518799950    1.1638829087   -0.1340745254
H       -0.0158738645    2.9385595077   -0.6884665419
C       -0.5820718987    0.2538863249    1.0888878871
H       -1.1130500709   -0.4059979451    1.7618334440
13   
From optimize.out: Frame 32 / 100, Energy=    -286.8376556197
C        0.7771236392    0.2003321719    0.6759394934
C        0.3177641603   -1.4232509720   -0.9243331701
C        0.6278717293   -2.5931686996   -0.7475179923
C       -1.1800399004    1.2816422743    0.3577363628
C       -0.0250690177    1.9249951546   -0.2959158418
N        1.1093477813    1.2592656818   -0.1417347401
H        1.5133417700   -0.5000377731    1.0433241528
H        0.2056199461   -0.5652990423   -1.5548533912
H        0.5764847427   -3.6233624884   -0.4678529662
H       -2.1773003184    1.2633027020   -0.0665700482
H       -0.0076666525    2.9298846854   -0.7118290475
C       -0.6083016139    0.2585684467    1.0809529194