13   
From optimize.out: Frame 58 / 59, Energy=    -286.8505190734
C        0.4729087708   -0.2303895883    0.1793572147
C        0.3730492992   -1.3472492634   -0.8623886688
C        0.8418463950   -2.5620517549   -0.7065553931
C       -1.0856627858    1.4328634546    0.5215393760
C        0.0914094518    1.9072142316   -0.2227817410
N        0.9895674061    1.0045942025   -0.4334661277
H        1.1773217558   -0.5382026949    0.9633573050
H       -0.1548068316   -1.0657955772   -1.7749910916
H        1.3869461376   -3.1254941125    0.0415417729
H       -1.9427742959    2.0339510522    0.8031192887
H        0.2285314682    2.9275878305   -0.5803483049
C       -0.8671346670    0.1299973599    0.7748597666
H       -1.5112021045   -0.5670251402    1.2967566035
13   
From optimize.out: Frame 56 / 59, Energy=    -286.8505096260
C        0.4826002174   -0.2360210304    0.1984782663
C        0.3776644193   -1.3241425361   -0.8761690119
C        0.8314502122   -2.5449131178   -0.7270416042
C       -1.0857681902    1.4197636146    0.5222900010
C        0.0853809766    1.8902826961   -0.2332930706
N        0.9992804365    0.9976399242   -0.4135184165
H        1.1797763281   -0.5674201399    0.9792089762
H       -0.1131579118   -1.0050246040   -1.7972774789
H        1.3347742785   -3.1033791475    0.0510876530
H       -1.9486494075    2.0236229219    0.7807010761
H        0.2035943471    2.8972320138   -0.6322592679
C       -0.8573552811    0.1230082207    0.8016661856
H       -1.4895904251   -0.5706488156    1.3461266919
13   
From optimize.out: Frame 54 / 59, Energy=    -286.8504924972
C        0.5011465682   -0.2283120175    0.2352917080
C        0.3906132425   -1.2977030268   -0.8581648092
C        0.7930768069   -2.5380716362   -0.7417548615
C       -1.0987053761    1.4060954428    0.4937787031
C        0.0761796695    1.8795045033   -0.2525270336
N        1.0069462084    0.9985392291   -0.3979971341
H        1.2174686094   -0.5713869140    0.9921171467
H       -0.0727549989   -0.9400152997   -1.7787848210
H        1.2787425249   -3.1428484095    0.0133691699
H       -1.9881680476    1.9832852547    0.7330189468
H        0.1889304514    2.8827640579   -0.6558512203
C       -0.8408316252    0.1263381913    0.8215328692
H       -1.4526440336   -0.5581893754    1.3959713361
13   
From optimize.out: Frame 51 / 59, Energy=    -286.8504289327
C        0.5376166055   -0.2252314174    0.2576648479
C        0.3936306485   -1.2888146158   -0.8352004782
C        0.7635298151   -2.5441685845   -0.7579126623
C       -1.1153224950    1.3834194618    0.4774560570
C        0.0624478404    1.8739993180   -0.2695037027
N        1.0177361698    1.0121592847   -0.3826083822
H        1.2513190647   -0.5494621577    1.0293717280
H       -0.0405543443   -0.8659302739   -1.7416440209
H        1.2346544890   -3.1951437793   -0.0318873959
H       -1.9997005757    1.9629357367    0.7084372207
H        0.1666977397    2.8734807012   -0.7011272810
C       -0.8258019228    0.1178136285    0.8316845355
H       -1.4462530348   -0.5550573025    1.4152695341
13   
From optimize.out: Frame 49 / 59, Energy=    -286.8503474280
C        0.5616620168   -0.2058126988    0.2959053273
C        0.4055131744   -1.2672555855   -0.8033438936
C        0.7385024505   -2.5347437525   -0.7649024254
C       -1.1170064196    1.3704736998    0.4675489193
C        0.0502110880    1.8655447046   -0.2796755125
N        1.0314894783    1.0296534438   -0.3599562509
H        1.2708689863   -0.5141759282    1.0705120957
H       -0.0226612319   -0.8151828493   -1.7073006047
H        1.1905580013   -3.2698009893   -0.1030269988
H       -2.0076943414    1.9465722155    0.6746778865
H        0.1351747983    2.8404219547   -0.7523935116
C       -0.8073853171    0.1180714636    0.8458337058
H       -1.4292326839   -0.5637656784    1.4161212630
13   
From optimize.out: Frame 47 / 59, Energy=    -286.8502528600
C        0.5699755003   -0.1893391527    0.3276350583
C        0.4388535238   -1.2553549418   -0.7860003739
C        0.7220480572   -2.5324912866   -0.7738203301
C       -1.1082149639    1.3661203449    0.4516486170
C        0.0597971073    1.8577786001   -0.2877745546
N        1.0455740850    1.0255691011   -0.3486613946
H        1.2755640253   -0.4712558380    1.1101962919
H       -0.0097957575   -0.7775893278   -1.6602821805
H        1.1522164744   -3.3180699978   -0.1701811129
H       -2.0071847044    1.9420484143    0.6680453516
H        0.0926051762    2.8130669195   -0.8024775859
C       -0.8027890439    0.1240894501    0.8699156258
H       -1.4286494798   -0.5845722853    1.4017565879
13   
From optimize.out: Frame 45 / 59, Energy=    -286.8501757169
C        0.5874151848   -0.1808059190    0.3576342197
C        0.4613389316   -1.2487441127   -0.7519232304
C        0.7198910144   -2.5291352306   -0.7914342794
C       -1.1134093038    1.3835433889    0.4702162924
C        0.0499331546    1.8594952977   -0.3032555151
N        1.0459995505    1.0386719004   -0.3283246126
H        1.2970228313   -0.4496448584    1.1543094630
H        0.0199245284   -0.7886414201   -1.6346284777
H        1.0967107656   -3.3803373651   -0.2535880096
H       -2.0305178160    1.9282657349    0.6383601192
H        0.0718522313    2.8116347420   -0.8426555332
C       -0.7993452294    0.1383331654    0.8755790819
H       -1.4068158434   -0.5826353233    1.4097104820
13   
From optimize.out: Frame 42 / 59, Energy=    -286.8499816211
C        0.6094343262   -0.1529318943    0.3805812162
C        0.4609543385   -1.2227963149   -0.7204648507
C        0.6993648596   -2.5047276171   -0.7648443017
C       -1.1097336518    1.3668967682    0.4547664834
C        0.0331074829    1.8658273663   -0.3048615510
N        1.0518458220    1.0728468904   -0.3087110181
H        1.3271080662   -0.4600256046    1.1580317004
H        0.0415694986   -0.7829875920   -1.6291002435
H        1.0300988272   -3.4322619116   -0.3201351218
H       -2.0644590457    1.8789609594    0.5713802732
H        0.0648089001    2.8055481738   -0.8524045572
C       -0.7737762868    0.1365833146    0.8908149439
H       -1.3703231369   -0.5709325382    1.4449470270
13   
From optimize.out: Frame 40 / 59, Energy=    -286.8497915084
C        0.6421820306   -0.1226123500    0.3864227360
C        0.4739412908   -1.1996106565   -0.7069388525
C        0.6739931664   -2.4878454267   -0.7217647907
C       -1.1336814137    1.3364291163    0.4236185953
C        0.0369332922    1.8732027517   -0.2960281304
N        1.0736090628    1.1015727887   -0.2983467971
H        1.3493054830   -0.4762711361    1.1404660641
H        0.0614873258   -0.7782417146   -1.6271004617
H        0.9639759826   -3.4672343733   -0.3785224977
H       -2.1047562561    1.8313996446    0.5160240395
H        0.0591464222    2.8056673509   -0.8551342912
C       -0.7467587544    0.1443392494    0.9241167053
H       -1.3493776324   -0.5607952442    1.4931876811
13   
From optimize.out: Frame 38 / 59, Energy=    -286.8495484686
C        0.6417889468   -0.1367530223    0.3980467109
C        0.4615330761   -1.1823250716   -0.7305753997
C        0.6499088142   -2.4606254135   -0.6129666698
C       -1.1483857708    1.3240439959    0.3984452643
C        0.0383793903    1.8545871569   -0.3127752627
N        1.0851932283    1.0973552574   -0.2578693604
H        1.3730818556   -0.5101521665    1.1174004571
H        0.0556771535   -0.7171396887   -1.6392581008
H        0.9672466539   -3.4587721325   -0.4211137261
H       -2.1016185116    1.8191349668    0.4967224173
H        0.0523372741    2.7962519478   -0.8624575540
C       -0.7523020483    0.1405400758    0.9128141696
H       -1.3228400621   -0.5661459055    1.5135870543
13   
From optimize.out: Frame 36 / 59, Energy=    -286.8490395427
C        0.6454183254   -0.1073869125    0.4301781638
C        0.4226506293   -1.1976130421   -0.7573779368
C        0.6445667790   -2.4548825381   -0.5799281799
C       -1.1226437786    1.3156891938    0.3898657504
C        0.0244487347    1.8474920095   -0.3207966885
N        1.0842224108    1.1033676021   -0.2367835666
H        1.4023091153   -0.5265429948    1.1061473910
H        0.0533027455   -0.6660689840   -1.6433006908
H        0.9474651142   -3.4634178502   -0.4235190112
H       -2.1126148056    1.7804992398    0.4431388941
H        0.0479286525    2.7987743573   -0.8513705362
C       -0.7471577211    0.1312769321    0.9127659003
H       -1.2898962014   -0.5611870128    1.5309805103
13   
From optimize.out: Frame 33 / 59, Energy=    -286.8477573551
C        0.6748091000   -0.0543936206    0.4734000023
C        0.3924788473   -1.2322179173   -0.7835440134
C        0.6443209211   -2.4654148233   -0.5926416049
C       -1.1295924623    1.3144502352    0.3917964838
C        0.0153169301    1.8548483167   -0.3215433938
N        1.0905120026    1.1215011198   -0.2257084515
H        1.4354588295   -0.5271502539    1.0937078149
H        0.0675726899   -0.6448680432   -1.6399009110
H        0.8836384514   -3.4899655944   -0.4284924873
H       -2.1436706561    1.7110218122    0.3598158376
H        0.0441495744    2.8167276518   -0.8307604236
C       -0.7205962373    0.1403089794    0.9322363189
H       -1.2543979907   -0.5448478624    1.5716348282
13   
From optimize.out: Frame 31 / 59, Energy=    -286.8468555368
C        0.7036990297   -0.0105164769    0.5072023256
C        0.3700500147   -1.2551902001   -0.7980720621
C        0.6375294025   -2.4731966389   -0.6060267295
C       -1.1375338651    1.3063055602    0.3868073979
C        0.0080731568    1.8628421475   -0.3205879768
N        1.0973262840    1.1424510746   -0.2159890795
H        1.4687400919   -0.5237641649    1.0799946802
H        0.0817703900   -0.6246102151   -1.6314069030
H        0.8104138550   -3.5116303931   -0.4333453174
H       -2.1661644013    1.6298468816    0.2749927963
H        0.0369396424    2.8349740936   -0.8082739938
C       -0.6926487150    0.1510393854    0.9542110910
H       -1.2181948856   -0.5285510538    1.6104937711
13   
From optimize.out: Frame 29 / 59, Energy=    -286.8460828086
C        0.7307872139    0.0265425606    0.5331381467
C        0.3524633271   -1.2683735144   -0.8035855596
C        0.6273919795   -2.4799691463   -0.6173949924
C       -1.1429160077    1.2920822281    0.3771196647
C        0.0014663127    1.8704318368   -0.3185201943
N        1.1037615473    1.1650375811   -0.2088131809
H        1.5012662913   -0.5188593717    1.0649267817
H        0.0960602993   -0.6040861786   -1.6191177984
H        0.7310239979   -3.5270298799   -0.4381652688
H       -2.1812972617    1.5405028466    0.1905153092
H        0.0273931304    2.8534015672   -0.7840353428
C       -0.6646492058    0.1625750590    0.9767320728
H       -1.1827516241   -0.5122555885    1.6472003621
13   
From optimize.out: Frame 27 / 59, Energy=    -286.8452593889
C        0.7551059188    0.0571356473    0.5508408859
C        0.3380033420   -1.2736050724   -0.7986202417
C        0.6179428909   -2.4832201933   -0.6229957754
C       -1.1487141872    1.2755062592    0.3663948157
C       -0.0052652818    1.8772485341   -0.3176479777
N        1.1081217158    1.1859325889   -0.2074571657
H        1.5292332480   -0.5150849442    1.0453760334
H        0.1144482090   -0.5859629118   -1.6040196717
H        0.6472133537   -3.5358095517   -0.4455704357
H       -2.1876638202    1.4437527317    0.1087679625
H        0.0178876507    2.8729548710   -0.7553697329
C       -0.6378351707    0.1742524305    0.9975520825
H       -1.1484778691   -0.4931003894    1.6827492206
13   
From optimize.out: Frame 24 / 59, Energy=    -286.8438827063
C        0.7771554331    0.0821550832    0.5611866985
C        0.3275526287   -1.2731178095   -0.7849285451
C        0.6123823677   -2.4837795998   -0.6243425374
C       -1.1549883821    1.2559804818    0.3532149783
C       -0.0116684739    1.8833279374   -0.3178733622
N        1.1107468160    1.2045851424   -0.2121437200
H        1.5525054741   -0.5120840740    1.0236416327
H        0.1319588358   -0.5690919658   -1.5842851917
H        0.5607907422   -3.5377618449   -0.4558355148
H       -2.1850450728    1.3427554644    0.0299092715
H        0.0088388718    2.8930416653   -0.7221122428
C       -0.6116690070    0.1862535008    1.0164043994
H       -1.1185602336   -0.4722639813    1.7171641337
13   
From optimize.out: Frame 22 / 59, Energy=    -286.8419653378
C        0.7982385805    0.1031235659    0.5670156492
C        0.3213022132   -1.2691795398   -0.7655831547
C        0.6097552518   -2.4831053868   -0.6231658795
C       -1.1612930547    1.2323310389    0.3376928057
C       -0.0173307717    1.8897298971   -0.3173955863
N        1.1126478918    1.2221231492   -0.2209260514
H        1.5724054879   -0.5097855984    1.0022817946
H        0.1463000434   -0.5520296158   -1.5601463227
H        0.4724655807   -3.5325717084   -0.4679860678
H       -2.1736397213    1.2390600003   -0.0452142219
H       -0.0016013236    2.9120362181   -0.6882312732
C       -0.5854041027    0.1981193811    1.0340922779
H       -1.0938460754   -0.4498514014    1.7475660301
13   
From optimize.out: Frame 20 / 59, Energy=    -286.8405646229
C        0.8189506855    0.1214362522    0.5695686352
C        0.3196283785   -1.2637736826   -0.7433380472
C        0.6092140592   -2.4827080859   -0.6205673234
C       -1.1670991060    1.2043897621    0.3206990482
C       -0.0227621065    1.8965390753   -0.3161783153
N        1.1138783879    1.2393263626   -0.2332632967
H        1.5891040767   -0.5082739860    0.9815390065
H        0.1603802089   -0.5346407817   -1.5335454042
H        0.3815827603   -3.5198854998   -0.4807306145
H       -2.1536972449    1.1348790617   -0.1150362432
H       -0.0148155754    2.9293259961   -0.6553837276
C       -0.5585878929    0.2099930626    1.0508364865
H       -1.0757766311   -0.4266075366    1.7753997957
13   
From optimize.out: Frame 18 / 59, Energy=    -286.8389100337
C        0.8397232154    0.1373863301    0.5695977496
C        0.3221442676   -1.2586287517   -0.7193789658
C        0.6098196585   -2.4839757088   -0.6169722468
C       -1.1720757202    1.1716366646    0.3030380066
C       -0.0280941126    1.9043644678   -0.3141656609
N        1.1145133577    1.2566544567   -0.2504191517
H        1.6024684446   -0.5084695510    0.9613022740
H        0.1758025585   -0.5169394676   -1.5054330241
H        0.2890453653   -3.4992509430   -0.4926803747
H       -2.1263759797    1.0317212535   -0.1781044601
H       -0.0312538010    2.9455502306   -0.6234233027
C       -0.5312315981    0.2216046697    1.0664241768
H       -1.0644856560   -0.4016536508    1.8002149799
13   
From optimize.out: Frame 16 / 59, Energy=    -286.8369785097
C        0.8610739967    0.1511697791    0.5680425055
C        0.3278933398   -1.2539949242   -0.6947436665
C        0.6096946892   -2.4869650015   -0.6128471479
C       -1.1753092609    1.1342358443    0.2851504272
C       -0.0330361728    1.9131144593   -0.3120055097
N        1.1153934029    1.2752177123   -0.2723367048
H        1.6130161154   -0.5104247404    0.9423781418
H        0.1933249153   -0.4981040830   -1.4767507757
H        0.1956819482   -3.4707009342   -0.5027206384
H       -2.0932055148    0.9301887895   -0.2338259645
H       -0.0507566820    2.9605713806   -0.5934597891
C       -0.5033997223    0.2325217529    1.0801641349
H       -1.0603710547   -0.3768300346    1.8229549871
13   
From optimize.out: Frame 13 / 59, Energy=    -286.8198524869
C        0.8837763264    0.1626380084    0.5650507600
C        0.3357441511   -1.2505668102   -0.6694858324
C        0.6074342902   -2.4921338391   -0.6078123997
C       -1.1762555904    1.0917567430    0.2676115165
C       -0.0367973502    1.9242956406   -0.3101014815
N        1.1177121193    1.2969822113   -0.3003575012
H        1.6217892916   -0.5141733017    0.9246707156
H        0.2122331598   -0.4778904635   -1.4478614460
H        0.1021944263   -3.4347992352   -0.5087506940
H       -2.0563813677    0.8310738986   -0.2809086220
H       -0.0725285402    2.9759706717   -0.5655013964
C       -0.4752364559    0.2411052698    1.0908764300
H       -1.0636844604   -0.3542587937    1.8425699511
13   
From optimize.out: Frame 11 / 59, Energy=    -286.8081406194
C        0.9085057231    0.1718079850    0.5605186031
C        0.3452630672   -1.2489402782   -0.6437281556
C        0.6026760397   -2.4999150387   -0.6020871295
C       -1.1745428466    1.0449354071    0.2509910934
C       -0.0386410207    1.9391292883   -0.3096624407
N        1.1225414278    1.3230315835   -0.3348496990
H        1.6298092949   -0.5190827914    0.9078299283
H        0.2322290181   -0.4559444877   -1.4190730046
H        0.0094682731   -3.3922347139   -0.5099741914
H       -2.0179811099    0.7360902774   -0.3185936062
H       -0.0949421415    2.9930231629   -0.5402952802
C       -0.4468456991    0.2459999953    1.0976008991
H       -1.0775400263   -0.3379003895    1.8613229833
13   
From optimize.out: Frame 9 / 59, Energy=    -286.7924147753
C        0.9352279374    0.1791549639    0.5545112931
C        0.3555335156   -1.2488464721   -0.6178955666
C        0.5949143455   -2.5096153063   -0.5958913325
C       -1.1693663962    0.9946922593    0.2354129162
C       -0.0381878041    1.9576338047   -0.3113857725
N        1.1305828300    1.3529959761   -0.3746084906
H        1.6378413989   -0.5238961843    0.8916868364
H        0.2522301449   -0.4313058109   -1.3913903088
H       -0.0805079847   -3.3437408038   -0.5058374712
H       -1.9788357780    0.6462087478   -0.3473896868
H       -0.1164213515    3.0116921101   -0.5189252296
C       -0.4185156445    0.2461683508    1.1001995953
H       -1.1044952132   -0.3311416352    1.8815132177
13   
From optimize.out: Frame 7 / 59, Energy=    -286.7670863552
C        0.9633623328    0.1850662556    0.5468912555
C        0.3658002392   -1.2501650658   -0.5925694057
C        0.5839339287   -2.5206470543   -0.5891274947
C       -1.1602768996    0.9424563880    0.2212544245
C       -0.0359237984    1.9792402867   -0.3154458940
N        1.1420175757    1.3850068388   -0.4179290630
H        1.6458645806   -0.5275097682    0.8756301994
H        0.2718288447   -0.4028121212   -1.3662277278
H       -0.1652031206   -3.2906040604   -0.4960568260
H       -1.9392394726    0.5619686728   -0.3677008247
H       -0.1361096485    3.0312776749   -0.5021099253
C       -0.3907665829    0.2410358035    1.0994310212
H       -1.1452879790   -0.3343138506    1.9039602607
13   
From optimize.out: Frame 4 / 59, Energy=    -286.6953614961
C        0.9930784297    0.1874379233    0.5353333138
C        0.3792196145   -1.2572926403   -0.5678328229
C        0.5723258410   -2.5380497951   -0.5809834070
C       -1.1499868057    0.8921591350    0.2121053606
C       -0.0345219846    2.0060182110   -0.3232304872
N        1.1565194307    1.4160431095   -0.4671751383
H        1.6512123951   -0.5313930034    0.8560434786
H        0.2978058703   -0.3703967661   -1.3438096640
H       -0.2437758688   -3.2355818292   -0.4814649186
H       -1.9020023070    0.4871565711   -0.3732424977
H       -0.1551377061    3.0534688972   -0.4890116332
C       -0.3643289672    0.2304829755    1.0962122244
H       -1.2004079418   -0.3400527886    1.9270561917
13   
From optimize.out: Frame 2 / 59, Energy=    -286.6055565628
C        1.0161022738    0.1929764005    0.5277297734
C        0.3778382358   -1.2492819862   -0.5424102965
C        0.5476195277   -2.5346038952   -0.5697707721
C       -1.1258615184    0.8351349188    0.1908242821
C       -0.0347077395    2.0213809234   -0.3234910638
N        1.1660156143    1.4365332522   -0.5014702795
H        1.6506843699   -0.5261697590    0.8370807024
H        0.3044647058   -0.3246935468   -1.3104841730
H       -0.3069225936   -3.1765319468   -0.4593856388
H       -1.8413565626    0.4046098882   -0.3948042555
H       -0.1782822702    3.0615491059   -0.4753647958
C       -0.3408786297    0.2143614102    1.0914518121
H       -1.2347154132   -0.3552647652    1.9300947048
13   
C6H6N->C4H4N+C2H2 atoms 1-13 frame 809 charge +0.000 sz -1.000 sz^2 0.949
C        1.0336134229    0.1894722444    0.5211038226
C        0.3569470665   -1.2398483707   -0.5458022478
C        0.5246630716   -2.5314018827   -0.5844014624
C       -1.1226367222    0.8219311343    0.1958036485
C       -0.0364700698    2.0344730755   -0.3144525207
N        1.1684942000    1.4477386282   -0.5083661785
H        1.6359112682   -0.5617566532    0.8103953391
H        0.2870790736   -0.2869157993   -1.2643213300
H       -0.2969010613   -3.1522673165   -0.4044907524
H       -1.8252131057    0.3765217147   -0.4162054564
H       -0.1856751701    3.0587417290   -0.4730932625
C       -0.3281904386    0.1937314245    1.0975201984
H       -1.2116215353   -0.3504199281    1.8863102023
13   
C6H6N->C4H4N+C2H2 atoms 1-13 frame 811 charge -0.000 sz -1.000 sz^2 0.948
C        1.0429882345    0.1821788257    0.5171308322
C        0.3247006970   -1.2264385225   -0.5679215042
C        0.5010869177   -2.5244529437   -0.6152450216
C       -1.1313301871    0.8405145995    0.2165920788
C       -0.0386330905    2.0447893758   -0.2975907665
N        1.1665738220    1.4542784693   -0.4929034546
H        1.6335539807   -0.6239741057    0.7901248748
H        0.2552412545   -0.2715002740   -1.2094942402
H       -0.2502889710   -3.1631910748   -0.3377475053
H       -1.8527326991    0.3879570814   -0.4396106908
H       -0.1860151595    3.0606775049   -0.4791299811
C       -0.3272779911    0.1714775523    1.1103294424
H       -1.1378668081   -0.3323164882    1.8054659363
13   
From optimize.out: Frame 1 / 100, Energy=    -286.5896195537
C        1.0473177590    0.1770278049    0.5163440699
C        0.2952722548   -1.2104737999   -0.5906413403
C        0.4785471634   -2.5125139422   -0.6459092017
C       -1.1392363582    0.8622535862    0.2345702842
C       -0.0407383948    2.0529540439   -0.2795130986
N        1.1646413787    1.4622360686   -0.4714917361
H        1.6494749819   -0.6800428694    0.7794504531
H        0.2254847036   -0.2731946900   -1.1592745782
H       -0.2144643946   -3.1930323163   -0.2783894458
H       -1.8891812734    0.4079670968   -0.4610183993
H       -0.1904737701    3.0758861515   -0.4875799272
C       -0.3321994833    0.1507821100    1.1211341375
H       -1.0544445673   -0.3198492442    1.7223187827
13   
From optimize.out: Frame 3 / 100, Energy=    -286.6833966005
C        1.0270208688    0.1770392728    0.5259712415
C        0.2938767646   -1.2200095009   -0.6188239688
C        0.4973314894   -2.5130837000   -0.6631531865
C       -1.1512384235    0.9067131177    0.2525834238
C       -0.0399251938    2.0388761536   -0.2789070683
N        1.1584877522    1.4478303529   -0.4401943475
H        1.6472217544   -0.6758210175    0.7971347556
H        0.2154373851   -0.3061171713   -1.1951314449
H       -0.1578607518   -3.2402078562   -0.2801409973
H       -1.9233852465    0.4765657917   -0.4378323248
H       -0.1755704006    3.0685755491   -0.5061392289
C       -0.3506486211    0.1613538882    1.1242636797
H       -1.0407473771   -0.3217148800    1.7203694664
13   
From optimize.out: Frame 5 / 100, Energy=    -286.7438459300
C        0.9969810757    0.1803682038    0.5415800663
C        0.2969247423   -1.2341415460   -0.6475909917
C        0.5240543455   -2.5115004673   -0.6763579802
C       -1.1604976516    0.9562097926    0.2657564314
C       -0.0387879230    2.0138921036   -0.2816339667
N        1.1492370926    1.4215154278   -0.4008076934
H        1.6368405354   -0.6506420506    0.8246955850
H        0.2062754582   -0.3415155728   -1.2519971317
H       -0.0880739003   -3.2899504024   -0.3027018588
H       -1.9493100527    0.5554037574   -0.4083117871
H       -0.1552053298    3.0476474923   -0.5285897766
C       -0.3734591959    0.1823354026    1.1245421682
H       -1.0449791965   -0.3296221411    1.7414169352
13   
From optimize.out: Frame 7 / 100, Energy=    -286.7807150575
C        0.9622163152    0.1868301849    0.5625567603
C        0.2931928166   -1.2431196588   -0.6748071372
C        0.5418503974   -2.4996194880   -0.6894826328
C       -1.1623279929    1.0031950401    0.2699477462
C       -0.0388520663    1.9824532983   -0.2808683852
N        1.1370954225    1.3861577928   -0.3518007578
H        1.6238551093   -0.6196852251    0.8552950829
H        0.1894653695   -0.3665734601   -1.2991352799
H       -0.0061658981   -3.3385861042   -0.3304143044
H       -1.9635589518    0.6289126320   -0.3899566716
H       -0.1361876349    3.0175143872   -0.5533592794
C       -0.3981456565    0.2044737063    1.1231889716
H       -1.0424372299   -0.3419531054    1.7588358874
13   
From optimize.out: Frame 10 / 100, Energy=    -286.8136323637
C        0.9305917901    0.1898228960    0.5784155388
C        0.2942147044   -1.2613276372   -0.7039951550
C        0.5599087305   -2.5025920442   -0.7007169618
C       -1.1673315598    1.0539040488    0.2820178345
C       -0.0396863566    1.9633639388   -0.2837055114
N        1.1284325553    1.3551015316   -0.3125986738
H        1.6095069827   -0.5959217807    0.8815631882
H        0.1853682293   -0.3965567407   -1.3418329382
H        0.0762225184   -3.3894854399   -0.3587225872
H       -1.9926648463    0.7115037743   -0.3572215244
H       -0.1158137894    2.9976373903   -0.5783088407
C       -0.4247282302    0.2218870954    1.1220245864
H       -1.0440207285   -0.3473370324    1.7730810446
13   
From optimize.out: Frame 12 / 100, Energy=    -286.8262121199
C        0.9001238459    0.1934904712    0.5955652706
C        0.2929815465   -1.2812932652   -0.7346422046
C        0.5733953027   -2.5082442232   -0.7105513194
C       -1.1700627270    1.1002570059    0.2940030736
C       -0.0379772874    1.9484260124   -0.2882146326
N        1.1230336410    1.3288162729   -0.2762133625
H        1.5951886925   -0.5720030999    0.9093977771
H        0.1802817188   -0.4249949463   -1.3809064882
H        0.1625894476   -3.4383468765   -0.3857673363
H       -2.0238785362    0.7961530056   -0.3195200041
H       -0.0936394505    2.9799602372   -0.6061595897
C       -0.4535784074    0.2345969191    1.1199222445
H       -1.0484577864   -0.3568175132    1.7830865715
13   
From optimize.out: Frame 14 / 100, Energy=    -286.8333975367
C        0.8721618668    0.1961444743    0.6119749780
C        0.2922067543   -1.3045590815   -0.7667604297
C        0.5846980954   -2.5185387905   -0.7188641490
C       -1.1721958476    1.1437254570    0.3072566316
C       -0.0351974631    1.9377023488   -0.2937485266
N        1.1193938107    1.3073531163   -0.2450336749
H        1.5814057490   -0.5507804877    0.9366598626
H        0.1769315648   -0.4538264223   -1.4173705310
H        0.2491642426   -3.4845289727   -0.4096107116
H       -2.0581451470    0.8853262568   -0.2749076717
H       -0.0720157862    2.9654094761   -0.6338127194
C       -0.4831367492    0.2439058110    1.1158465477
H       -1.0552710903   -0.3673331858    1.7883703942
13   
From optimize.out: Frame 16 / 100, Energy=    -286.8361596430
C        0.8467743666    0.1978718676    0.6272484755
C        0.2925768996   -1.3314060018   -0.8010078117
C        0.5944058828   -2.5334611145   -0.7256768805
C       -1.1738077448    1.1843790717    0.3216483392
C       -0.0321087026    1.9304833900   -0.2992811545
N        1.1167070272    1.2902244154   -0.2190163356
H        1.5678574358   -0.5326561561    0.9626550327
H        0.1757770591   -0.4834727918   -1.4522177580
H        0.3351075737   -3.5273728514   -0.4292670591
H       -2.0936990498    0.9790366004   -0.2235621674
H       -0.0523014128    2.9533633165   -0.6603132007
C       -0.5128308194    0.2508090669    1.1097882608
H       -1.0644585155   -0.3777988129    1.7890022594
13   
From optimize.out: Frame 18 / 100, Energy=    -286.8364351385
C        0.8234612238    0.1995102181    0.6415316231
C        0.2942625283   -1.3615854520   -0.8383778335
C        0.6027385732   -2.5520927451   -0.7312227104
C       -1.1745076896    1.2219564338    0.3364751089
C       -0.0294565281    1.9255583383   -0.3035140277
N        1.1141717405    1.2763968210   -0.1968901788
H        1.5538844519   -0.5170586011    0.9870931515
H        0.1765493550   -0.5138868767   -1.4867864798
H        0.4202485219   -3.5662133812   -0.4440140228
H       -2.1272526685    1.0760855768   -0.1667455037
H       -0.0356953984    2.9424836339   -0.6854263028
C       -0.5422662292    0.2564741861    1.1023195978
H       -1.0761378809   -0.3876281519    1.7855575779
13   
From optimize.out: Frame 21 / 100, Energy=    -286.8367852216
C        0.8024323828    0.2013180145    0.6542933780
C        0.2987647330   -1.3957278693   -0.8797980420
C        0.6107239274   -2.5749083751   -0.7360550847
C       -1.1749057355    1.2566918042    0.3520787154
C       -0.0282497045    1.9232487796   -0.3063341749
N        1.1109960194    1.2653992284   -0.1782523493
H        1.5393854871   -0.5043082166    1.0091599121
H        0.1804447883   -0.5456706717   -1.5221806145
H        0.5021191658   -3.6003660008   -0.4524975371
H       -2.1570289367    1.1759672366   -0.1039811472
H       -0.0232613293    2.9331615872   -0.7089909367
C       -0.5706392739    0.2612406301    1.0941476023
H       -1.0907815239   -0.3960461470    1.7784102786
13   
From optimize.out: Frame 23 / 100, Energy=    -286.8370408674
C        0.7833613903    0.2044694579    0.6661759722
C        0.3064667714   -1.4337091458   -0.9261873627
C        0.6186361485   -2.6011092875   -0.7411490260
C       -1.1750595387    1.2881830482    0.3676015542
C       -0.0285687387    1.9232442545   -0.3068526293
N        1.1071565409    1.2570054882   -0.1612250394
H        1.5247317545   -0.4928554594    1.0291100497
H        0.1860338908   -0.5787719621   -1.5589163332
H        0.5798954642   -3.6301092886   -0.4544138749
H       -2.1808801385    1.2767886764   -0.0367872823
H       -0.0152722209    2.9245540382   -0.7317408079
C       -0.5977311198    0.2656069699    1.0861837472