13   
From optimize.out: Frame 2 / 3, Energy=    -286.8249551859
C        1.3118553965    0.3025645483    0.2420680501
C        0.6068016140   -1.0007437408   -0.1830377253
C       -0.6883432701   -0.4654887350   -0.8439833543
C       -1.0780816294    0.1914248105    0.4506992150
C       -0.5189778790    1.0592796455   -0.6927874810
N        0.8291126319    1.4230372465   -0.4714120611
H        2.3483758206    0.2894064774    0.5607696643
H        1.1233254710   -1.9344691093   -0.3753888304
H       -1.2958121827   -0.9367535784   -1.6085309573
H       -2.0520569287    0.3366788924    0.9044507954
H       -1.1651298397    1.7418607690   -1.2337022453
C        0.2167204484   -0.3451412793    1.1120381956
H        0.3622103476   -0.6616559464    2.1388167342
13   
From optimize.out: Frame 1 / 3, Energy=    -286.8249527070
C        1.3414602778    0.2965248878    0.1750870499
C        0.6127732185   -0.9889625069   -0.1695796662
C       -0.6793390470   -0.4543168131   -0.8450896441
C       -1.0881234134    0.1909828824    0.4544846369
C       -0.5204464083    1.0579895392   -0.6802789079
N        0.8298779181    1.4212697768   -0.4419752913
H        2.3530952430    0.3070135681    0.5609207867
H        1.0823025417   -1.9470391273   -0.3715533372
H       -1.2637144286   -0.9508459759   -1.6089893045
H       -2.0749938556    0.3359010546    0.8777732905
H       -1.1630661960    1.7493677854   -1.2117401829
C        0.1648934243   -0.3917460533    1.1171412487
H        0.4052807254   -0.6261390178    2.1437993213
13   
From optimize.out: Frame 18 / 19, Energy=    -286.8249527070
C        1.3767005806    0.2960897949    0.1108312972
C        0.6161717664   -0.9817846900   -0.1619473835
C       -0.6741373283   -0.4547658148   -0.8729827414
C       -1.0996728801    0.1685884330    0.4500531327
C       -0.5259677422    1.0440420379   -0.6735825140
N        0.8399237868    1.4161285441   -0.4559006189
H        2.3446517563    0.3128114687    0.5957069641
H        1.0383446983   -1.9710201170   -0.3186913501
H       -1.2500201340   -0.9531165649   -1.6444297699
H       -2.0963649050    0.3239297339    0.8461723875
H       -1.1752332646    1.7819267713   -1.1295651218
C        0.1414466415   -0.4015589317    1.1193783587
H        0.4641570242   -0.5812706654    2.1349573595
13   
From optimize.out: Frame 16 / 19, Energy=    -286.8249299358
C        1.4012395729    0.2925779925    0.0745875259
C        0.6187723290   -0.9769561784   -0.1588791475
C       -0.6704647453   -0.4550439061   -0.9146304334
C       -1.1059028009    0.1417284717    0.4446402292
C       -0.5331145271    1.0267777704   -0.6720101299
N        0.8527189321    1.4101496872   -0.4825813854
H        2.3211163615    0.3077908892    0.6462693227
H        0.9928886960   -1.9926903548   -0.2627869442
H       -1.2522262224   -0.9451309238   -1.6902315249
H       -2.1085840956    0.2989925711    0.8254229490
H       -1.1867976382    1.8068433611   -1.0466883319
C        0.1424666534   -0.3828616349    1.1188232344
H        0.5278874844   -0.5321777453    2.1180646359
13   
From optimize.out: Frame 14 / 19, Energy=    -286.8245969484
C        1.4232154630    0.2883772119    0.0557259063
C        0.6217605818   -0.9716437827   -0.1554510518
C       -0.6723494914   -0.4541912198   -0.9705463275
C       -1.1112771387    0.1158948960    0.4445411670
C       -0.5412937981    1.0062648502   -0.6734237649
N        0.8732568782    1.4053990855   -0.5118127800
H        2.2957387244    0.2905107906    0.6981390583
H        0.9575280032   -2.0046709183   -0.2104322996
H       -1.2711150719   -0.9291560923   -1.7502707696
H       -2.1174326569    0.2652322736    0.8213217346
H       -1.1971310175    1.8179976587   -0.9754168166
C        0.1510412812   -0.3488351783    1.1225645109
H        0.5880582426   -0.4811795752    2.1050614330
13   
From optimize.out: Frame 13 / 19, Energy=    -286.8239136359
C        1.4469127074    0.2840843226    0.0503727156
C        0.6274696562   -0.9678282795   -0.1526481531
C       -0.6843123645   -0.4544055719   -1.0365535861
C       -1.1183238132    0.0948075169    0.4517959635
C       -0.5514315273    0.9845890785   -0.6788566343
N        0.9048517013    1.4046845694   -0.5366680647
H        2.2736650077    0.2659441954    0.7504102629
H        0.9381176695   -2.0099007713   -0.1690877120
H       -1.3058451848   -0.9118542970   -1.8253680936
H       -2.1255081582    0.2326783493    0.8343446691
H       -1.2098663383    1.8175276538   -0.9215651010
C        0.1607769618   -0.3115760634    1.1327027581
H        0.6434936826   -0.4287507029    2.1011209755
13   
From optimize.out: Frame 11 / 19, Energy=    -286.8199501799
C        1.4754427436    0.2809780854    0.0567350681
C        0.6367619193   -0.9673381352   -0.1507700299
C       -0.7063347849   -0.4571229754   -1.1044698638
C       -1.1283444034    0.0799136644    0.4626610633
C       -0.5639453049    0.9669518026   -0.6888984333
N        0.9456438005    1.4101351795   -0.5542824038
H        2.2585303176    0.2407189655    0.8029208320
H        0.9328540927   -2.0135871569   -0.1396281609
H       -1.3559769917   -0.9012651193   -1.9108902020
H       -2.1350358632    0.2072899772    0.8568455750
H       -1.2273980326    1.8126533577   -0.8859267208
C        0.1719317003   -0.2781274214    1.1485269002
H        0.6958708067   -0.3812002241    2.1071763759
13   
From optimize.out: Frame 9 / 19, Energy=    -286.8145446746
C        1.5089475381    0.2796877243    0.0708802094
C        0.6474083339   -0.9698674817   -0.1496383040
C       -0.7338767107   -0.4626383120   -1.1680168896
C       -1.1417121694    0.0686465968    0.4725682614
C       -0.5762020413    0.9561333352   -0.7016887024
N        0.9889231609    1.4202300976   -0.5649314167
H        2.2502752223    0.2187571176    0.8545924684
H        0.9342367381   -2.0184185633   -0.1185781313
H       -1.4186274603   -0.9008270542   -2.0015330998
H       -2.1483169469    0.1874112174    0.8793032732
H       -1.2464151903    1.8101292707   -0.8624945589
C        0.1860043604   -0.2498293441    1.1680400194
H        0.7493551652   -0.3394146042    2.1214968709
13   
From optimize.out: Frame 7 / 19, Energy=    -286.8033831382
C        1.5372090128    0.2832956290    0.0781972564
C        0.6506091792   -0.9736173773   -0.1544336976
C       -0.7573657847   -0.4552040036   -1.2358991080
C       -1.1535665624    0.0629298430    0.4774626265
C       -0.5793539801    0.9650800489   -0.7210759514
N        1.0334619562    1.4373606959   -0.5642109257
H        2.2207290742    0.1908564686    0.9025132824
H        0.9501018095   -2.0155123744   -0.1059454476
H       -1.4810901847   -0.9368656228   -2.0717123685
H       -2.1557742358    0.1770427691    0.9105701686
H       -1.2608588517    1.8134887344   -0.8512885416
C        0.1932166256   -0.2387232548    1.1885664882
H        0.8026819421   -0.3101315560    2.1472562182
13   
From optimize.out: Frame 6 / 19, Energy=    -286.7928827523
C        1.5240579218    0.2948651289    0.0560552330
C        0.6358723438   -0.9745524723   -0.1670340862
C       -0.7535143914   -0.4167426767   -1.2783428386
C       -1.1480840872    0.0761088860    0.4756894161
C       -0.5663388671    1.0044003736   -0.7416885619
N        1.0528087408    1.4590420534   -0.5457396916
H        2.1609527665    0.1617459469    0.9038482789
H        0.9924955090   -1.9935867003   -0.1134728376
H       -1.4772137098   -1.0187035203   -2.0332548501
H       -2.1323079895    0.1973589672    0.9544508264
H       -1.2591751726    1.8189721580   -0.8750205176
C        0.1712290999   -0.2740311765    1.1959506958
H        0.7992178359   -0.3348769679    2.1685589334
13   
From optimize.out: Frame 2 / 19, Energy=    -286.6905882509
C        1.5025096153    0.3064532593    0.0299878580
C        0.6181222491   -0.9754041664   -0.1786237298
C       -0.7483663653   -0.3778223709   -1.3104107536
C       -1.1401748853    0.0906462613    0.4755390738
C       -0.5543488932    1.0437248197   -0.7590605759
N        1.0649168091    1.4780402351   -0.5251484068
H        2.1156431189    0.1397163753    0.8919023369
H        1.0378484256   -1.9728918410   -0.1257938754
H       -1.4515324272   -1.0946848256   -1.9650073231
H       -2.1021058643    0.2206455953    0.9986332505
H       -1.2566990083    1.8270176818   -0.9092804261
C        0.1453489326   -0.3169727363    1.2003154672
H        0.7688382930   -0.3684682876    2.1769471043
13   
C6H6N->C6H6N atoms 1-13 frame 193 charge +0.000 sz -1.000 sz^2 0.798
C        1.4783541528    0.3163146155    0.0039503349
C        0.5999316528   -0.9770154463   -0.1873594514
C       -0.7450205350   -0.3444677478   -1.3340338402
C       -1.1317927164    0.1034643281    0.4783257367
C       -0.5450334331    1.0776840538   -0.7728644950
N        1.0726813003    1.4928306588   -0.5047536831
H        2.0903769219    0.1260205075    0.8729606213
H        1.0821684814   -1.9562342098   -0.1406116399
H       -1.4130792305   -1.1571582632   -1.8815998116
H       -2.0695960624    0.2427572795    1.0396199819
H       -1.2575415844    1.8405209959   -0.9498932041
C        0.1193618012   -0.3622524599    1.2037169947
H        0.7191892514   -0.4024643119    2.1725424559
13   
C6H6N->C6H6N atoms 1-13 frame 195 charge -0.000 sz -1.000 sz^2 0.770
C        1.4531666985    0.3236900580   -0.0208959821
C        0.5824109726   -0.9796989661   -0.1925865986
C       -0.7427306547   -0.3185046934   -1.3490266874
C       -1.1229340004    0.1139725826    0.4840373639
C       -0.5380838677    1.1048524690   -0.7832503420
N        1.0763863839    1.5030566765   -0.4850713117
H        2.0832911483    0.1207493863    0.8475065978
H        1.1233892077   -1.9423131467   -0.1574862171
H       -1.3656134835   -1.2044848855   -1.7894380205
H       -2.0369908766    0.2634922643    1.0750809305
H       -1.2617683276    1.8593816236   -0.9948802153
C        0.0935593156   -0.4090408000    1.2063929631
H        0.6559174841   -0.4351525686    2.1596175193
13   
C6H6N->C6H6N atoms 1-13 frame 196 charge -0.000 sz -1.000 sz^2 0.756
C        1.4278452749    0.3284069968   -0.0439926165
C        0.5661637332   -0.9834623602   -0.1944224461
C       -0.7406226685   -0.2999134739   -1.3563331054
C       -1.1135907884    0.1221723643    0.4922345130
C       -0.5331560144    1.1256087848   -0.7908703465
N        1.0764381479    1.5093148073   -0.4659757187
H        2.0904637777    0.1233841024    0.8149601096
H        1.1602736925   -1.9286583174   -0.1765417765
H       -1.3125778278   -1.2375704368   -1.6936527042
H       -2.0062489815    0.2834486057    1.1040557985
H       -1.2671171953    1.8811837548   -1.0425875670
C        0.0673342704   -0.4573747658    1.2080652697
H        0.5847945791   -0.4665400619    2.1450605901
13   
C6H6N->C6H6N atoms 1-13 frame 198 charge +0.000 sz -1.000 sz^2 0.736
C        1.4027727569    0.3305872929   -0.0652139472
C        0.5515124847   -0.9880624620   -0.1933284856
C       -0.7378309735   -0.2878760869   -1.3570267699
C       -1.1037393748    0.1283367459    0.5023625609
C       -0.5300598192    1.1410375334   -0.7964625519
N        1.0729763755    1.5125611281   -0.4470396806
H        2.1083349805    0.1335613389    0.7740051532
H        1.1921492365   -1.9128003656   -0.1984514129
H       -1.2567015924   -1.2582953705   -1.5977739313
H       -1.9790420102    0.3036452018    1.1261156864
H       -1.2703692179    1.9028628544   -1.0918526465
C        0.0395712778   -0.5079076804    1.2079122562
H        0.5104258761   -0.4976501300    2.1367537691
13   
C6H6N->C6H6N atoms 1-13 frame 200 charge +0.000 sz -1.000 sz^2 0.717
C        1.3784542844    0.3304458674   -0.0843806357
C        0.5389727912   -0.9930106941   -0.1897780313
C       -0.7333942670   -0.2815020968   -1.3518045343
C       -1.0933484952    0.1327893423    0.5138874003
C       -0.5287019142    1.1521671734   -0.8005801827
N        1.0658778977    1.5138229661   -0.4278748043
H        2.1341912074    0.1512085375    0.7231942849
H        1.2183705937   -1.8926809159   -0.2240188374
H       -1.2010145775   -1.2689175085   -1.5052230387
H       -1.9571252045    0.3252220263    1.1406895197
H       -1.2680864877    1.9213284299   -1.1412749229
C        0.0092949612   -0.5611749712    1.2048126386
H        0.4365092104   -0.5296981565    2.1423511435
13   
C6H6N->C6H6N atoms 1-13 frame 202 charge +0.000 sz -1.000 sz^2 0.714
C        1.3560297170    0.3284013653   -0.1009355764
C        0.5295354567   -0.9974833153   -0.1840536712
C       -0.7262383184   -0.2798717394   -1.3409626667
C       -1.0823840009    0.1359684341    0.5264258284
C       -0.5288839124    1.1598390377   -0.8034396211
N        1.0550691343    1.5142400121   -0.4083423271
H        2.1656527007    0.1760668720    0.6621302386
H        1.2383916643   -1.8671072561   -0.2533811734
H       -1.1498154658   -1.2727421624   -1.4200923527
H       -1.9421299943    0.3492482683    1.1473188334
H       -1.2572500207    1.9336977589   -1.1884570576
C       -0.0235305940   -0.6167199320    1.1981038826
H        0.3655536335   -0.5635373433    2.1656856632
13   
C6H6N->C6H6N atoms 1-13 frame 204 charge -0.000 sz -1.000 sz^2 0.720
C        1.3370742490    0.3252232418   -0.1140499334
C        0.5244349283   -1.0003925485   -0.1760034876
C       -0.7153420484   -0.2819710482   -1.3244490218
C       -1.0707870832    0.1385912719    0.5400105132
C       -0.5301507534    1.1647872104   -0.8049105499
N        1.0407384168    1.5150133156   -0.3884807227
H        2.2006413772    0.2073559471    0.5921144995
H        1.2524696733   -1.8362598225   -0.2854813277
H       -1.1079245720   -1.2743201811   -1.3456283213
H       -1.9346329436    0.3766713176    1.1462829511
H       -1.2362914985    1.9380653932   -1.2305660914
C       -0.0578570026   -0.6730368912    1.1884568037
H        0.2976272570   -0.5997272063    2.2027046883
13   
C6H6N->C6H6N atoms 1-13 frame 205 charge -0.000 sz -1.000 sz^2 0.724
C        1.3230176629    0.3219470294   -0.1229109165
C        0.5247300284   -1.0005795894   -0.1649623782
C       -0.6998321436   -0.2869741329   -1.3018407862
C       -1.0585591910    0.1416264944    0.5551180864
C       -0.5318892858    1.1675463889   -0.8047163104
N        1.0230776005    1.5171760746   -0.3683305714
H        2.2378139112    0.2439831967    0.5153615455
H        1.2619908934   -1.8017227217   -0.3184807269
H       -1.0793038306   -1.2779669456   -1.2829590321
H       -1.9337899999    0.4083145395    1.1383170280
H       -1.2055353834    1.9340407769   -1.2656841233
C       -0.0924304703   -0.7284010436    1.1777180694
H        0.2307102081   -0.6389900671    2.2433701156
13   
C6H6N->C6H6N atoms 1-13 frame 207 charge -0.000 sz -1.000 sz^2 0.739
C        1.3147255571    0.3196642506   -0.1270220894
C        0.5308898618   -0.9971187451   -0.1501526927
C       -0.6792628434   -0.2945245694   -1.2727673246
C       -1.0459793147    0.1460023756    0.5722360871
C       -0.5335056393    1.1682764575   -0.8027354991
N        1.0021713667    1.5212788763   -0.3480943755
H        2.2763815955    0.2843811261    0.4345279725
H        1.2692230575   -1.7664498445   -0.3503488813
H       -1.0660486134   -1.2856129852   -1.2316409194
H       -1.9376007625    0.4443236324    1.1241920774
H       -1.1675222751    1.9230068243   -1.2937117089
C       -0.1263967777   -0.7813101556    1.1680659037
H        0.1629247876   -0.6819172430    2.2774514501
13   
C6H6N->C6H6N atoms 1-13 frame 209 charge -0.000 sz -1.000 sz^2 0.746
C        1.3127673255    0.3193942634   -0.1260621279
C        0.5430153460   -0.9893476583   -0.1308488468
C       -0.6535024922   -0.3049493183   -1.2368548093
C       -1.0336110709    0.1524025318    0.5916433800
C       -0.5344945128    1.1665645492   -0.7990081379
N        0.9779182437    1.5273331896   -0.3283190369
H        2.3158052773    0.3266166240    0.3522270170
H        1.2765502480   -1.7342026742   -0.3791045183
H       -1.0689384429   -1.2961445766   -1.1913404782
H       -1.9437162805    0.4839886733    1.1043499926
H       -1.1264053396    1.9075304146   -1.3160833274
C       -0.1592561179   -0.8304138553    1.1614746596
H        0.0938678163   -0.7287721631    2.2979262336
13   
C6H6N->C6H6N atoms 1-13 frame 211 charge -0.000 sz -1.000 sz^2 0.740
C        1.3173936001    0.3220257399   -0.1200309587
C        0.5608079115   -0.9770165264   -0.1066714420
C       -0.6228213848   -0.3189697855   -1.1939634735
C       -1.0221711112    0.1611713180    0.6132638611
C       -0.5344150370    1.1616035071   -0.7937370396
N        0.9502589500    1.5348120764   -0.3099155230
H        2.3554592894    0.3684190138    0.2708807749
H        1.2857709730   -1.7086112699   -0.4028142689
H       -1.0870793201   -1.3059545847   -1.1619539397
H       -1.9497915095    0.5256674390    1.0793280496
H       -1.0874011387    1.8909426561   -1.3355622512
C       -0.1906813182   -0.8745742934    1.1594873611
H        0.0246700955   -0.7795152904    2.3016888499
13   
C6H6N->C6H6N atoms 1-13 frame 212 charge +0.000 sz -1.000 sz^2 0.734
C        1.3284976980    0.3282854345   -0.1094521769
C        0.5835831371   -0.9603476956   -0.0779582907
C       -0.5879452159   -0.3371647307   -1.1444580564
C       -1.0123516557    0.1723124602    0.6365331170
C       -0.5329398281    1.1526225462   -0.7873144259
N        0.9193702552    1.5428155718   -0.2940727030
H        2.3943970152    0.4074848088    0.1924180470
H        1.2971997478   -1.6918021133   -0.4196254282
H       -1.1177306420   -1.3103087280   -1.1434821113
H       -1.9540144108    0.5670890592    1.0500670387
H       -1.0553385449    1.8760319659   -1.3552142173
C       -0.2204165564   -0.9129633072    1.1628252463
H       -0.0423109994   -0.8340552719    2.2897339607
13   
C6H6N->C6H6N atoms 1-13 frame 214 charge +0.000 sz -1.000 sz^2 0.715
C        1.3456111958    0.3387580535   -0.0955599073
C        0.6103512702   -0.9399117418   -0.0459848182
C       -0.5499884871   -0.3594916056   -1.0893297203
C       -1.0046717238    0.1856373833    0.6603746344
C       -0.5299588090    1.1393660014   -0.7804117404
N        0.8856488296    1.5503729743   -0.2821194467
H        2.4314214083    0.4419756571    0.1177881762
H        1.3094073785   -1.6835305341   -0.4280322655
H       -1.1566400942   -1.3047710074   -1.1358345697
H       -1.9556042218    0.6060829508    1.0178415905
H       -1.0329520753    1.8633208890   -1.3768730180
C       -0.2483809520   -0.9452059995    1.1709486197
H       -0.1042437192   -0.8926030211    2.2671924653
13   
C6H6N->C6H6N atoms 1-13 frame 216 charge +0.000 sz -1.000 sz^2 0.685
C        1.3680863084    0.3539564578   -0.0802679630
C        0.6400452898   -0.9163619401   -0.0127822100
C       -0.5102298058   -0.3852525779   -1.0299715119
C       -0.9994224395    0.2009887231    0.6833678354
C       -0.5255786910    1.1221878354   -0.7740140732
N        0.8494977014    1.5566813874   -0.2754468849
H        2.4654654676    0.4708725203    0.0465955679
H        1.3199140301   -1.6815960417   -0.4272121524
H       -1.1988105667   -1.2858662115   -1.1387437490
H       -1.9549876494    0.6413288503    0.9838749957
H       -1.0204037977    1.8504921949   -1.4003155550
C       -0.2748301243   -0.9714088142    1.1819770816
H       -0.1587457229   -0.9560223838    2.2429386188
13   
C6H6N->C6H6N atoms 1-13 frame 218 charge +0.000 sz -1.000 sz^2 0.657
C        1.3951887150    0.3742643296   -0.0660458006
C        0.6715538718   -0.8904253296    0.0190781396
C       -0.4702224641   -0.4132009786   -0.9682377993
C       -0.9967293394    0.2182778975    0.7038723657
C       -0.5200184091    1.1018671250   -0.7693358658
N        0.8114557219    1.5610950919   -0.2755425413
H        2.4957513162    0.4937528194   -0.0222459223
H        1.3261020717   -1.6830268478   -0.4170640989
H       -1.2388081640   -1.2511950190   -1.1516789646
H       -1.9536036690    0.6723808978    0.9493441383
H       -1.0163823742    1.8335379884   -1.4235273653
C       -0.3001684865   -0.9917723936    1.1930734395
H       -0.2041187902   -1.0255555809    2.2283102751
13   
C6H6N->C6H6N atoms 1-13 frame 220 charge -0.000 sz -1.000 sz^2 0.636
C        1.4256977346    0.3994190959   -0.0555960018
C        0.7033669740   -0.8633418553    0.0467443940
C       -0.4323024224   -0.4413919586   -0.9069790184
C       -0.9965546140    0.2372261723    0.7202360178
C       -0.5135680930    1.0796002061   -0.7674868716
N        0.7728884625    1.5630541576   -0.2835723881
H        2.5217654636    0.5104813356   -0.0889010803
H        1.3259931530   -1.6850053549   -0.3981684904
H       -1.2706837464   -1.2004641723   -1.1730455061
H       -1.9535599412    0.6992182637    0.9160365959
H       -1.0191555138    1.8086831419   -1.4433019031
C       -0.3244896104   -1.0061836218    1.2014107576
H       -0.2393978464   -1.1012954103    2.2326234945
13   
C6H6N->C6H6N atoms 1-13 frame 221 charge +0.000 sz -1.000 sz^2 0.626
C        1.4579005744    0.4281743561   -0.0507249078
C        0.7338442921   -0.8367834008    0.0683565171
C       -0.3990926005   -0.4676229094   -0.8491187836
C       -0.9986261947    0.2573455898    0.7316909931
C       -0.5065124683    1.0566963231   -0.7687407060
N        0.7358807215    1.5622291375   -0.2993554014
H        2.5438418255    0.5214982246   -0.1522878381
H        1.3191268160   -1.6856739303   -0.3716186873
H       -1.2892728349   -1.1365690702   -1.1993423620
H       -1.9569207266    0.7223161062    0.8862582637
H       -1.0269383551    1.7741107287   -1.4564334585
C       -0.3477533082   -1.0146272842    1.2058240344
H       -0.2654777412   -1.1810938711    2.2554923364
13   
C6H6N->C6H6N atoms 1-13 frame 223 charge +0.000 sz -1.000 sz^2 0.621
C        1.4905960609    0.4590833758   -0.0516474320
C        0.7621907947   -0.8119477576    0.0839757194
C       -0.3722132035   -0.4904469644   -0.7957056311
C       -1.0026183358    0.2784113694    0.7388312475
C       -0.4989344544    1.0338208210   -0.7723226839
N        0.7020267161    1.5585824505   -0.3214474394
H        2.5636346990    0.5279166213   -0.2116753847
H        1.3065560662   -1.6846961945   -0.3383019381
H       -1.2918704751   -1.0637135541   -1.2266359377
H       -1.9649297253    0.7427609457    0.8617112716
H       -1.0384990292    1.7299183416   -1.4609323672
C       -0.3705085661   -1.0177135051    1.2071651508
H       -0.2854305474   -1.2619759496    2.2869854248
13   
C6H6N->C6H6N atoms 1-13 frame 227 charge +0.000 sz -1.000 sz^2 0.644
C        1.5233705258    0.4910362893   -0.0577955537
C        0.7883817587   -0.7894181331    0.0945496060
C       -0.3525294204   -0.5090109827   -0.7463998235
C       -1.0083942929    0.3005847838    0.7428078804
C       -0.4907161399    1.0110327375   -0.7769706605
N        0.6724153845    1.5522316992   -0.3481585555
H        2.5834505012    0.5309814755   -0.2670190030
H        1.2900607271   -1.6831050794   -0.2986946310
H       -1.2774838921   -0.9856408862   -1.2521165743
H       -1.9778926913    0.7616828380    0.8434398333
H       -1.0537448202    1.6772300200   -1.4558936753
C       -0.3938739602   -1.0162842965    1.2068339282
H       -0.3030436802   -1.3413204653    2.3154172289
13   
C6H6N->C6H6N atoms 1-13 frame 229 charge -0.000 sz -1.000 sz^2 0.671
C        1.5561639994    0.5230198377   -0.0685088280
C        0.8125715554   -0.7695750274    0.1008909818
C       -0.3409390319   -0.5223277435   -0.7008056306
C       -1.0159819612    0.3242280930    0.7447425137
C       -0.4816539186    0.9883241881   -0.7812100213
N        0.6484765301    1.5434747997   -0.3778343354
H        2.6055412630    0.5318508000   -0.3181589890
H        1.2719361755   -1.6831339938   -0.2533184483
H       -1.2458826454   -0.9063532285   -1.2741509237
H       -1.9952350659    0.7799095512    0.8324729883
H       -1.0738408466    1.6182225832   -1.4411179321
C       -0.4191600248   -1.0109707446    1.2058048393
H       -0.3219960291   -1.4166691151    2.3311937853
13   
C6H6N->C6H6N atoms 1-13 frame 230 charge -0.000 sz -1.000 sz^2 0.683
C        1.5890586342    0.5538073809   -0.0830480848
C        0.8349036202   -0.7528071780    0.1034829051
C       -0.3384150796   -0.5290033642   -0.6588497553
C       -1.0253670001    0.3497737943    0.7457864134
C       -0.4715097909    0.9659356905   -0.7832209977
N        0.6325375403    1.5329525047   -0.4085957880
H        2.6317238593    0.5317943647   -0.3642075634
H        1.2551185181   -1.6881268599   -0.2030484675
H       -1.1981971986   -0.8314448958   -1.2924810530
H       -2.0153464283    0.7979772905    0.8301119122
H       -1.1010851067    1.5565896115   -1.4171520792
C       -0.4475998612   -1.0021366803    1.2045342333
H       -0.3458217065   -1.4853116590    2.3266883249
13   
C6H6N->C6H6N atoms 1-13 frame 232 charge +0.000 sz -1.000 sz^2 0.702
C        1.6221527181    0.5816930274   -0.1003861697
C        0.8555306246   -0.7396578935    0.1025224320
C       -0.3454804058   -0.5273900358   -0.6207192299
C       -1.0361969364    0.3775071513    0.7473580345
C       -0.4601168315    0.9445664518   -0.7807134378
N        0.6280342990    1.5217637805   -0.4380446723
H        2.6629186008    0.5325026963   -0.4029949831
H        1.2429004484   -1.7016575149   -0.1492612196
H       -1.1387049245   -0.7693338646   -1.3091341970
H       -2.0354401396    0.8160758809    0.8378004675
H       -1.1379817259    1.4976359549   -1.3850841213
C       -0.4799548284   -0.9900444566    1.2030904862
H       -0.3776608987   -1.5436611778    2.2955666105
13   
C6H6N->C6H6N atoms 1-13 frame 234 charge -0.000 sz -1.000 sz^2 0.699
C        1.6549599006    0.6041258482   -0.1190064953
C        0.8744793054   -0.7310815193    0.0980227160
C       -0.3613544844   -0.5163511586   -0.5868665867
C       -1.0474516560    0.4071027909    0.7513578193
C       -0.4478700179    0.9257105298   -0.7711385806
N        0.6391083579    1.5113723640   -0.4631404883
H        2.6983583012    0.5364032540   -0.4305529281
H        1.2378842502   -1.7249206751   -0.0944245521
H       -1.0772601071   -0.7321953158   -1.3293604368
H       -2.0517771132    0.8336212275    0.8563287078
H       -1.1841710331    1.4476804241   -1.3456982859
C       -0.5157440804   -0.9752064849    1.2012151644
H       -0.4191616231   -1.5862612849    2.2332639463
13   
C6H6N->C6H6N atoms 1-13 frame 236 charge -0.000 sz -1.000 sz^2 0.679
C        1.6857610327    0.6192252745   -0.1371946994
C        0.8915245842   -0.7274914166    0.0906468494
C       -0.3825461455   -0.4982316200   -0.5574319129
C       -1.0576920643    0.4370913946    0.7592090528
C       -0.4363157113    0.9111236652   -0.7542202169
N        0.6655473924    1.5027353468   -0.4822045481
H        2.7346146071    0.5453422133   -0.4448535139
H        1.2392728342   -1.7526886904   -0.0425697175
H       -1.0258119766   -0.7271408274   -1.3572711402
H       -2.0623982724    0.8492610654    0.8827672801
H       -1.2320740995    1.4101143149   -1.3003120536
C       -0.5523210526   -0.9587487463    1.1983496205
H       -0.4675611283   -1.6105919740    2.1450849997
13   
C6H6N->C6H6N atoms 1-13 frame 237 charge +0.000 sz -1.000 sz^2 0.657
C        1.7129905163    0.6269457069   -0.1547158902
C        0.9064052343   -0.7284390817    0.0808815289
C       -0.4059310153   -0.4770137110   -0.5324712409
C       -1.0662550118    0.4662641423    0.7710024901
C       -0.4270571871    0.9019178262   -0.7317780302
N        0.7035587723    1.4957875127   -0.4964245284
H        2.7684949010    0.5598561506   -0.4476858340
H        1.2443338815   -1.7778512579    0.0030719447
H       -0.9883916415   -0.7522824192   -1.3904836436
H       -2.0686374887    0.8623128045    0.9128881318
H       -1.2729037820    1.3841751590   -1.2505557526
C       -0.5873546819   -0.9408643003    1.1934284573
H       -0.5192524972   -1.6208085321    2.0428423671
13   
C6H6N->C6H6N atoms 1-13 frame 239 charge -0.000 sz -1.000 sz^2 0.604
C        1.7365710096    0.6288237522   -0.1734940389
C        0.9194810264   -0.7327807342    0.0682062128
C       -0.4304386083   -0.4558282953   -0.5117945511
C       -1.0735020954    0.4951117205    0.7858597126
C       -0.4208240985    0.8982611837   -0.7059067799
N        0.7495547089    1.4898374775   -0.5094441822
H        2.7992928091    0.5803385942   -0.4429443903
H        1.2509330758   -1.7958888242    0.0419466206
H       -0.9610962526   -0.8008038831   -1.4219381642
H       -2.0737571286    0.8735880380    0.9437181681
H       -1.3022629122    1.3667555877   -1.1978630834
C       -0.6206541508   -0.9198759422    1.1846967830
H       -0.5732973834   -1.6275386746    1.9389576929
13   
C6H6N->C6H6N atoms 1-13 frame 241 charge +0.000 sz -1.000 sz^2 0.542
C        1.7568110585    0.6263337806   -0.1963695942
C        0.9313188942   -0.7393217387    0.0515608433
C       -0.4560397985   -0.4370532687   -0.4955776796
C       -1.0799600026    0.5250734553    0.8028487660
C       -0.4179465074    0.9004220158   -0.6781203020
N        0.8015325906    1.4843646419   -0.5254962838
H        2.8273935192    0.6079591333   -0.4338511233
H        1.2586723209   -1.8042253618    0.0744556956
H       -0.9391835603   -0.8670298675   -1.4432879822
H       -2.0808609507    0.8846038156    0.9734153024
H       -1.3183898699    1.3558224113   -1.1443100971
C       -0.6525399611   -0.8928063208    1.1701570115
H       -0.6308077331   -1.6441426962    1.8445754435
13   
C6H6N->C6H6N atoms 1-13 frame 243 charge -0.000 sz -1.000 sz^2 0.542
C        1.7733186511    0.6203117168   -0.2246216977
C        0.9421271617   -0.7469794211    0.0308985130
C       -0.4816989705   -0.4240290005   -0.4844201687
C       -1.0857384952    0.5562142903    0.8211946365
C       -0.4185923030    0.9085460598   -0.6498471623
N        0.8561841668    1.4791852557   -0.5471827525
H        2.8522006291    0.6428434777   -0.4224000862
H        1.2683086059   -1.8017728017    0.0999852646
H       -0.9201023584   -0.9437730342   -1.4459525065