13   
From optimize.out: Frame 2 / 3, Energy=    -286.8249551859
C        1.3118553965    0.3025645483    0.2420680501
C        0.6068016140   -1.0007437408   -0.1830377253
C       -0.6883432701   -0.4654887350   -0.8439833543
C       -1.0780816294    0.1914248105    0.4506992150
C       -0.5189778790    1.0592796455   -0.6927874810
N        0.8291126319    1.4230372465   -0.4714120611
H        2.3483758206    0.2894064774    0.5607696643
H        1.1233254710   -1.9344691093   -0.3753888304
H       -1.2958121827   -0.9367535784   -1.6085309573
H       -2.0520569287    0.3366788924    0.9044507954
H       -1.1651298397    1.7418607690   -1.2337022453
C        0.2167204484   -0.3451412793    1.1120381956
H        0.3622103476   -0.6616559464    2.1388167342
13   
From optimize.out: Frame 1 / 3, Energy=    -286.8249527070
C        1.3116773640    0.3021187270    0.2418766373
C        0.6063531284   -1.0013814904   -0.1826491112
C       -0.6883734871   -0.4653182003   -0.8441101648
C       -1.0783348807    0.1911144244    0.4506308062
C       -0.5190601940    1.0594221418   -0.6922625839
N        0.8285955266    1.4230484223   -0.4701668596
H        2.3487411746    0.2882882274    0.5586868318
H        1.1246429835   -1.9340476492   -0.3756521238
H       -1.2953207030   -0.9361550871   -1.6091301400
H       -2.0522388891    0.3363185858    0.9045795286
H       -1.1647864012    1.7417840695   -1.2338818909
C        0.2166845207   -0.3454429348    1.1122562639
H        0.3614198572   -0.6597492365    2.1398228063
13   
From optimize.out: Frame 18 / 19, Energy=    -286.8249527070
C        1.3116773640    0.3021187270    0.2418766373
C        0.6063531284   -1.0013814904   -0.1826491112
C       -0.6883734871   -0.4653182003   -0.8441101648
C       -1.0783348807    0.1911144244    0.4506308062
C       -0.5190601940    1.0594221418   -0.6922625839
N        0.8285955266    1.4230484223   -0.4701668596
H        2.3487411746    0.2882882274    0.5586868318
H        1.1246429835   -1.9340476492   -0.3756521238
H       -1.2953207030   -0.9361550871   -1.6091301400
H       -2.0522388891    0.3363185858    0.9045795286
H       -1.1647864012    1.7417840695   -1.2338818909
C        0.2166845207   -0.3454429348    1.1122562639
H        0.3614198572   -0.6597492365    2.1398228063
13   
From optimize.out: Frame 16 / 19, Energy=    -286.8249299358
C        1.3188102827    0.2952159130    0.2177191892
C        0.6107994307   -0.9943043351   -0.1762964760
C       -0.6822251991   -0.4547229601   -0.8342709285
C       -1.0800305652    0.2003128775    0.4556768027
C       -0.5181935477    1.0640746502   -0.6857190315
N        0.8247470306    1.4234945891   -0.4396828120
H        2.3504159754    0.3018625868    0.5511124036
H        1.1026106250   -1.9362238782   -0.3977190612
H       -1.2746573476   -0.9470278657   -1.5935599059
H       -2.0604334116    0.3389816027    0.8961308869
H       -1.1571253600    1.7320789390   -1.2513454531
C        0.1866968008   -0.3774715019    1.1139151111
H        0.3785852860   -0.6462706174    2.1440392746
13   
From optimize.out: Frame 14 / 19, Energy=    -286.8245969484
C        1.3623306366    0.2977310149    0.1358045670
C        0.6145919236   -0.9840403923   -0.1633906038
C       -0.6766796633   -0.4539425775   -0.8550583208
C       -1.0955803973    0.1823859557    0.4533861409
C       -0.5225222590    1.0523825424   -0.6752662212
N        0.8346056658    1.4192197706   -0.4440876478
H        2.3555639975    0.3117598308    0.5699585138
H        1.0635900879   -1.9570046099   -0.3474434843
H       -1.2536313073   -0.9543640927   -1.6232063974
H       -2.0884102687    0.3330625488    0.8608580717
H       -1.1685402536    1.7652982272   -1.1752467445
C        0.1448031643   -0.4048990367    1.1201139050
H        0.4298786734   -0.6075891813    2.1435782214
13   
From optimize.out: Frame 13 / 19, Energy=    -286.8239136359
C        1.3893627949    0.2946436182    0.0888258603
C        0.6175638601   -0.9797970562   -0.1606756761
C       -0.6718971253   -0.4554912182   -0.8887770169
C       -1.1032790108    0.1564306132    0.4471162204
C       -0.5290037629    1.0366927222   -0.6720988993
N        0.8446099002    1.4134046801   -0.4663097320
H        2.3350363300    0.3137381295    0.6183954588
H        1.0160994804   -1.9833700160   -0.2933561305
H       -1.2468381138   -0.9520172937   -1.6631309487
H       -2.1033742092    0.3158822662    0.8332319555
H       -1.1811308756    1.7965791728   -1.0893123207
C        0.1384890092   -0.3986157661    1.1187302250
H        0.4943617227   -0.5580798521    2.1273610042
13   
From optimize.out: Frame 11 / 19, Energy=    -286.8199501799
C        1.4113940835    0.2908119059    0.0624139112
C        0.6198055563   -0.9745272600   -0.1573431359
C       -0.6692400766   -0.4546614593   -0.9367348116
C       -1.1081461117    0.1291583073    0.4425232848
C       -0.5366291839    1.0183005990   -0.6719342331
N        0.8596520626    1.4073667051   -0.4964934646
H        2.3092149462    0.3027060661    0.6701011606
H        0.9730437382   -2.0006591389   -0.2366506361
H       -1.2568329941   -0.9392431555   -1.7134022106
H       -2.1130384894    0.2845520732    0.8187463369
H       -1.1916426559    1.8156191257   -1.0102453044
C        0.1458674940   -0.3693920313    1.1189027565
H        0.5565516308   -0.5100317374    2.1101163463
13   
From optimize.out: Frame 9 / 19, Energy=    -286.8145446746
C        1.4330381827    0.2863541555    0.0501686532
C        0.6233850680   -0.9692478196   -0.1538788654
C       -0.6749331924   -0.4538004846   -0.9986412754
C       -1.1138787979    0.1048739512    0.4462178825
C       -0.5451697583    0.9962640051   -0.6746614591
N        0.8845615056    1.4037641346   -0.5245420338
H        2.2845409494    0.2803773902    0.7214365431
H        0.9446355387   -2.0080044197   -0.1886467400
H       -1.2829824555   -0.9207744652   -1.7809059014
H       -2.1210838953    0.2491789040    0.8234617056
H       -1.2016914529    1.8199740493   -0.9464768379
C        0.1553403278   -0.3317539059    1.1256071665
H        0.6142379802   -0.4572054951    2.1008611621
13   
From optimize.out: Frame 7 / 19, Energy=    -286.8033831382
C        1.4581755058    0.2822417607    0.0505383654
C        0.6307853656   -0.9666759522   -0.1516491089
C       -0.6919260108   -0.4548967582   -1.0673293221
C       -1.1219321034    0.0866359780    0.4563240323
C       -0.5565145872    0.9751118281   -0.6822621140
N        0.9213224913    1.4054317425   -0.5465115039
H        2.2648363421    0.2542278904    0.7739299993
H        0.9328267173   -2.0114401556   -0.1532104554
H       -1.3244042573   -0.9046132521   -1.8614607681
H       -2.1290996024    0.2192838421    0.8431790347
H       -1.2165023916    1.8155417653   -0.9013427241
C        0.1651902093   -0.2951964774    1.1384626828
H        0.6672423213   -0.4056522117    2.1013318819
13   
From optimize.out: Frame 6 / 19, Energy=    -286.7928827523
C        1.4892405308    0.2799683162    0.0616866873
C        0.6415376233   -0.9678672679   -0.1500675814
C       -0.7178484504   -0.4589018860   -1.1341478759
C       -1.1334683006    0.0745420437    0.4677248151
C       -0.5698829924    0.9604313447   -0.6942013383
N        0.9650783072    1.4138935701   -0.5604919218
H        2.2534913424    0.2299243454    0.8260866298
H        0.9328759677   -2.0153027682   -0.1287749132
H       -1.3812059181   -0.8985897161   -1.9503879387
H       -2.1397793703    0.1977060010    0.8677661413
H       -1.2361044475    1.8103453086   -0.8736082055
C        0.1773186451   -0.2644879959    1.1565689467
H        0.7187470627   -0.3616612957    2.1118465545
13   
From optimize.out: Frame 4 / 19, Energy=    -286.7557894188
C        1.5245042926    0.2794662244    0.0781375957
C        0.6520426857   -0.9714464547   -0.1492994314
C       -0.7465294544   -0.4655878548   -1.1947531627
C       -1.1482198974    0.0639927183    0.4763916885
C       -0.5811903122    0.9527404771   -0.7075992440
N        1.0077463402    1.4252321662   -0.5684359636
H        2.2477364102    0.2099416836    0.8770950394
H        0.9353109332   -2.0208781788   -0.1105287696
H       -1.4481681070   -0.9025932139   -2.0419072011
H       -2.1550565284    0.1792844927    0.8884107101
H       -1.2545545131    1.8099587299   -0.8537214221
C        0.1928608828   -0.2382577726    1.1770953091
H        0.7735172678   -0.3218530176    2.1291148517
13   
From optimize.out: Frame 2 / 19, Energy=    -286.6905882509
C        1.5399138168    0.2841108999    0.0782099581
C        0.6503039891   -0.9740795614   -0.1555267703
C       -0.7596728131   -0.4529933070   -1.2446589794
C       -1.1547048543    0.0627035594    0.4776906266
C       -0.5789630295    0.9677071136   -0.7239451095
N        1.0389367482    1.4399428303   -0.5633114255
H        2.2149792782    0.1867932729    0.9079247644
H        0.9532507511   -2.0143700077   -0.1049696695
H       -1.4880992148   -0.9441621351   -2.0780578160
H       -2.1559270340    0.1765655116    0.9152878633
H       -1.2622010301    1.8142402638   -0.8507705873
C        0.1932923623   -0.2388223548    1.1910086743
H        0.8088910301   -0.3076360854    2.1511184709
13   
C6H6N->C6H6N atoms 1-13 frame 193 charge +0.000 sz -1.000 sz^2 0.798
C        1.5219776355    0.2962760789    0.0531485430
C        0.6339789184   -0.9746145180   -0.1685438409
C       -0.7527064092   -0.4119866103   -1.2827621458
C       -1.1472154456    0.0778676589    0.4754268582
C       -0.5646825827    1.0092145129   -0.7440164949
N        1.0546287400    1.4615478629   -0.5434342880
H        2.1538645124    0.1584597490    0.9033134458
H        0.9976444036   -1.9908599397   -0.1145884494
H       -1.4757855364   -1.0284833167   -2.0273767210
H       -2.1292091815    0.2000870592    0.9595889896
H       -1.2587781815    1.8195929804   -0.8782020976
C        0.1683344098   -0.2786505581    1.1965990868
H        0.7979487171   -0.3384509595    2.1708471143
13   
C6H6N->C6H6N atoms 1-13 frame 195 charge -0.000 sz -1.000 sz^2 0.770
C        1.5000545109    0.3077366996    0.0270670730
C        0.6161225707   -0.9755037486   -0.1798949007
C       -0.7478190441   -0.3735139319   -1.3138975088
C       -1.1392870030    0.0922577659    0.4755532253
C       -0.5530457157    1.0480769011   -0.7609577791
N        1.0662142335    1.4801200817   -0.5228423814
H        2.1108230338    0.1373526558    0.8904632864
H        1.0429185392   -1.9706258911   -0.1272069873
H       -1.4484738771   -1.1030334722   -1.9571419426
H       -2.0986878755    0.2232382243    1.0035571070
H       -1.2564368045    1.8279540080   -0.9131997020
C        0.1424502430   -0.3218055313    1.2007841385
H        0.7651671887   -0.3722537612    2.1777163717
13   
C6H6N->C6H6N atoms 1-13 frame 196 charge -0.000 sz -1.000 sz^2 0.756
C        1.4757170947    0.3173570159    0.0011411563
C        0.5979641096   -0.9771991500   -0.1882665542
C       -0.7446804562   -0.3409380146   -1.3364808356
C       -1.1308820002    0.1048261653    0.4786626562
C       -0.5440597692    1.0812819567   -0.7743114159
N        1.0734671874    1.4943752660   -0.5025555189
H        2.0878922816    0.1246434088    0.8708336728
H        1.0869381897   -1.9544853124   -0.1422405922
H       -1.4087780231   -1.1637355841   -1.8724198254
H       -2.0660607843    0.2451292626    1.0440023933
H       -1.2576758388    1.8420481540   -0.9543522502
C        0.1165560613   -0.3671676277    1.2040733995
H        0.7136019476   -0.4061355406    2.1719137143
13   
C6H6N->C6H6N atoms 1-13 frame 198 charge +0.000 sz -1.000 sz^2 0.736
C        1.4505086639    0.3244365392   -0.0234935186
C        0.5805777110   -0.9799936215   -0.1930958059
C       -0.7425008299   -0.3158604586   -1.3505054777
C       -1.1219971629    0.1150506786    0.4846708854
C       -0.5373794830    1.1076307456   -0.7843039809
N        1.0767304721    1.5040799618   -0.4830104332
H        2.0827488088    0.1202903945    0.8447570154
H        1.1276857205   -1.9408784031   -0.1592832320
H       -1.3605256421   -1.2092880407   -1.7796568838
H       -2.0335643816    0.2656567272    1.0787441844
H       -1.2622507128    1.8614247346   -0.9996572814
C        0.0908486694   -0.4139764268    1.2066663720
H        0.6491181667   -0.4385728307    2.1581681562
13   
C6H6N->C6H6N atoms 1-13 frame 200 charge +0.000 sz -1.000 sz^2 0.717
C        1.4252410343    0.3288632404   -0.0463481594
C        0.5645074290   -0.9838609515   -0.1945748898
C       -0.7404068497   -0.2980810125   -1.3570027557
C       -1.1126248154    0.1229907143    0.4931036463
C       -0.5326706973    1.1276746338   -0.7916248848
N        1.0764045570    1.5099163412   -0.4640182667
H        2.0913503016    0.1237395991    0.8115361595
H        1.1640183629   -1.9272541124   -0.1785249487
H       -1.3070681643   -1.2408203552   -1.6837699995
H       -2.0031101802    0.2854930631    1.1069643456
H       -1.2676764008    1.8834542557   -1.0475206683
C        0.0646322406   -0.4623616510    1.2082260164
H        0.5774031823   -0.4697537648    2.1435544052
13   
C6H6N->C6H6N atoms 1-13 frame 202 charge +0.000 sz -1.000 sz^2 0.714
C        1.4002557579    0.3307804291   -0.0673273788
C        0.5500567318   -0.9885331344   -0.1931888577
C       -0.7375424121   -0.2867328846   -1.3570294600
C       -1.1027439872    0.1289356327    0.5033997868
C       -0.5297673368    1.1425345064   -0.7970044894
N        1.0725923350    1.5128574092   -0.4451376619
H        2.1102376817    0.1346616150    0.7698007587
H        1.1953005853   -1.9111811910   -0.2006836663
H       -1.2510592993   -1.2602530014   -1.5881402595
H       -1.9763457840    0.3056786872    1.1282611069
H       -1.2706708796    1.9050370942   -1.0968189169
C        0.0367638344   -0.5130099543    1.2078771073
H        0.5029227728   -0.5007752081    2.1359919308
13   
C6H6N->C6H6N atoms 1-13 frame 204 charge -0.000 sz -1.000 sz^2 0.720
C        1.3760794314    0.3304094233   -0.0862382613
C        0.5377654082   -0.9934984384   -0.1894064871
C       -0.7329424060   -0.2809323026   -1.3512353787
C       -1.0923250363    0.1332091302    0.5150298249
C       -0.5285858568    1.1532164680   -0.8009696860
N        1.0651464884    1.5139281450   -0.4259943467
H        2.1368004852    0.1530110078    0.7181174024
H        1.2208836293   -1.8906656652   -0.2265607573
H       -1.1955631636   -1.2698613406   -1.4961907958
H       -1.9550314905    0.3273508988    1.1420433572
H       -1.2678049678    1.9231030589   -1.1461175532
C        0.0063027536   -0.5664216272    1.2044788235
H        0.4292747249   -0.5328487577    2.1430438580
13   
C6H6N->C6H6N atoms 1-13 frame 205 charge -0.000 sz -1.000 sz^2 0.724
C        1.3539020943    0.3281882755   -0.1024952166
C        0.5286621160   -0.9979061799   -0.1834856445
C       -0.7255268984   -0.2797591952   -1.3398725537
C       -1.0813290845    0.1362612441    0.5276351421
C       -0.5289155413    1.1605418073   -0.8037017241
N        1.0539997521    1.5142731066   -0.4064691415
H        2.1687144216    0.1785134994    0.6561890287
H        1.2402495707   -1.8646072999   -0.2562272851
H       -1.1449608410   -1.2730478676   -1.4120169870
H       -1.9407609216    0.3515719593    1.1478786530
H       -1.2561299577    1.9348220405   -1.1929500140
C       -0.0266964300   -0.6220574552    1.1974273908
H        0.3587917196   -0.5667939349    2.1680883518
13   
C6H6N->C6H6N atoms 1-13 frame 207 charge -0.000 sz -1.000 sz^2 0.739
C        1.3353258377    0.3249151751   -0.1152504671
C        0.5239957240   -1.0006508819   -0.1752260923
C       -0.7142838437   -0.2822008595   -1.3228465186
C       -1.0696917704    0.1388333615    0.5412963129
C       -0.5302790918    1.1652283073   -0.8050361468
N        1.0393605656    1.5150902233   -0.3866117280
H        2.2039585843    0.2103526741    0.5854571632
H        1.2537393406   -1.8333145228   -0.2885208194
H       -1.1040765078   -1.2744523743   -1.3387305465
H       -1.9339962474    0.3792791381    1.1461171578
H       -1.2342302848    1.9384023772   -1.2344743976
C       -0.0610945825   -0.6783336488    1.1875247607
H        0.2912722763   -0.6031489694    2.2063013217
13   
C6H6N->C6H6N atoms 1-13 frame 209 charge -0.000 sz -1.000 sz^2 0.746
C        1.3217646416    0.3216448603   -0.1236907809
C        0.5248047835   -1.0005723316   -0.1639174911
C       -0.6983609028   -0.2874600712   -1.2997023188
C       -1.0574258500    0.1419108465    0.5565251982
C       -0.5320532099    1.1677823788   -0.8046837497
N        1.0214199296    1.5173884226   -0.3664694767
H        2.2412605187    0.2474069182    0.5082255317
H        1.2628309344   -1.7985065501   -0.3215307651
H       -1.0767818731   -1.2783247430   -1.2772812692
H       -1.9337690031    0.4112704593    1.1375229437
H       -1.2026141278    1.9335967486   -1.2688613980
C       -0.0956205888   -0.7334981043    1.1767197090
H        0.2245447477   -0.6426388340    2.2471438669
13   
C6H6N->C6H6N atoms 1-13 frame 211 charge -0.000 sz -1.000 sz^2 0.740
C        1.3140257768    0.3194673511   -0.1273532665
C        0.5314948010   -0.9967754118   -0.1487842853
C       -0.6773642377   -0.2952268762   -1.2700896214
C       -1.0448413741    0.1464091290    0.5737979622
C       -0.5336500305    1.1683255756   -0.8025418166
N        1.0002577989    1.5216656401   -0.3462676416
H        2.2798731061    0.2880568630    0.4272014372
H        1.2698585211   -1.7632629739   -0.3532137923
H       -1.0649815821   -1.2863375352   -1.2271036506
H       -1.9379816913    0.4476095654    1.1228668088
H       -1.1640336698    1.9219540424   -1.2961821663
C       -0.1294563476   -0.7860633209    1.1672055983
H        0.1567989291   -0.6858220487    2.2804644343
13   
C6H6N->C6H6N atoms 1-13 frame 212 charge +0.000 sz -1.000 sz^2 0.734
C        1.3126455770    0.3193871925   -0.1259372170
C        0.5441298985   -0.9886290619   -0.1291136867
C       -0.6511939929   -0.3058899138   -1.2336395148
C       -1.0325245977    0.1529823622    0.5933698310
C       -0.5345762121    1.1663941791   -0.7986662729
N        0.9757570083    1.5278814955   -0.3265826031
H        2.3192815273    0.3303470796    0.3449736332
H        1.2771976377   -1.7313912420   -0.3816093109
H       -1.0693212485   -1.2970933567   -1.1878805780
H       -1.9442710721    0.4875081621    1.1025585873
H       -1.1227649950    1.9061350039   -1.3180086608
C       -0.1621390901   -0.8347045379    1.1609202212
H        0.0877795596   -0.7329273625    2.2996155716
13   
C6H6N->C6H6N atoms 1-13 frame 214 charge +0.000 sz -1.000 sz^2 0.715
C        1.3178394089    0.3222734825   -0.1194763991
C        0.5623738695   -0.9759261841   -0.1045642598
C       -0.6201573797   -0.3201979012   -1.1902381488
C       -1.0211989856    0.1619402082    0.6151317824
C       -0.5343999037    1.1611536938   -0.7932742163
N        0.9478648465    1.5354628133   -0.3083505916
H        2.3588561482    0.3719937232    0.2639239328
H        1.2865759540   -1.7064723772   -0.4048052779
H       -1.0887466886   -1.3067865969   -1.1595195953
H       -1.9503098431    0.5292503493    1.0771468518
H       -1.0840807004    1.8895161925   -1.3372104203
C       -0.1933612495   -0.8783178066    1.1593528248
H        0.0187445233   -0.7838895967    2.3018835174
13   
C6H6N->C6H6N atoms 1-13 frame 216 charge +0.000 sz -1.000 sz^2 0.685
C        1.3294680635    0.3288327823   -0.1085395390
C        0.5855140982   -0.9589293791   -0.0755359963
C       -0.5850125152   -0.3387094464   -1.1402900871
C       -1.0115461659    0.1732567839    0.6384815644
C       -0.5328068981    1.1518458427   -0.7867718271
N        0.9167760145    1.5434849910   -0.2927727973
H        2.3976327720    0.4107160332    0.1859079174
H        1.2981669727   -1.6904664845   -0.4209747032
H       -1.1203694359   -1.3106293943   -1.1420220064
H       -1.9543516868    0.5705340191    1.0476016040
H       -1.0527217651    1.8748043178   -1.3568533418
C       -0.2228797600   -0.9161175468    1.1631413869
H       -0.0478696938   -0.8386225190    2.2886278254
13   
C6H6N->C6H6N atoms 1-13 frame 218 charge +0.000 sz -1.000 sz^2 0.657
C        1.3470382656    0.3396354578   -0.0944124943
C        0.6125469022   -0.9382305627   -0.0433724631
C       -0.5468923263   -0.3613287703   -1.0848247705
C       -1.0040640159    0.1867318412    0.6623100047
C       -0.5297070349    1.1382627704   -0.7798495021
N        0.8828971539    1.5509818793   -0.2811776794
H        2.4344083591    0.4447390406    0.1117663197
H        1.3104010422   -1.6829173888   -0.4286561614
H       -1.1598464584   -1.3042531198   -1.1352875938
H       -1.9557149472    0.6092255136    1.0152107742
H       -1.0312044140    1.8623057418   -1.3786427784
C       -0.2506352841   -0.9477774491    1.1716387872
H       -0.1092272421   -0.8973749540    2.2652975570
13   
C6H6N->C6H6N atoms 1-13 frame 220 charge -0.000 sz -1.000 sz^2 0.636
C        1.3698922705    0.3551852268   -0.0790543354
C        0.6424047037   -0.9144855707   -0.0101575081
C       -0.5070840918   -0.3873052861   -1.0252649980
C       -0.9990241834    0.2022119906    0.6851746373
C       -0.5252244713    1.1208085755   -0.7735133823
N        0.8466319649    1.5571704160   -0.2749551718
H        2.4681302265    0.4731148225    0.0410037936
H        1.3207302625   -1.6814826676   -0.4270882537
H       -1.2021537612   -1.2842885799   -1.1390402937
H       -1.9549252459    0.6440833776    0.9811863264
H       -1.0194770843    1.8494785701   -1.4021751204
C       -0.2769060875   -0.9734364302    1.1828641269
H       -0.1629945026   -0.9610544448    2.2410201794
13   
C6H6N->C6H6N atoms 1-13 frame 221 charge +0.000 sz -1.000 sz^2 0.626
C        1.3972792190    0.3758410310   -0.0649707723
C        0.6739627658   -0.8884369857    0.0214941803
C       -0.4671762107   -0.4153410046   -0.9635250584
C       -0.9965396930    0.2196055878    0.7054175503
C       -0.5195881790    1.1003017992   -0.7689906349
N        0.8085487490    1.5614194280   -0.2755910817
H        2.4980339294    0.4954583482   -0.0274728934
H        1.3265459993   -1.6831544592   -0.4162357005
H       -1.2418372923   -1.2484601595   -1.1527234273
H       -1.9534944535    0.6747194114    0.9467126925
H       -1.0161266266    1.8322206551   -1.4252919197
C       -0.3020908965   -0.9932876819    1.1939171394
H       -0.2075173108   -1.0308859697    2.2272599257
13   
C6H6N->C6H6N atoms 1-13 frame 223 charge +0.000 sz -1.000 sz^2 0.621
C        1.4279411088    0.4012803620   -0.0548559520
C        0.7056881593   -0.8613608311    0.0487376605
C       -0.4295494653   -0.4434484361   -0.9025152411
C       -0.9965557919    0.2386171515    0.7214057962
C       -0.5130928640    1.0779660103   -0.7673681637
N        0.7700734188    1.5631832041   -0.2842024370
H        2.5236388447    0.5116672590   -0.0937502571
H        1.3259495110   -1.6851514657   -0.3967422544
H       -1.2729609022   -1.1966753411   -1.1746497428
H       -1.9535651109    0.7011522174    0.9136150070
H       -1.0193946159    1.8068250769   -1.4447236216
C       -0.3262577779   -1.0072016347    1.2020023082
H       -0.2419145145   -1.1068535725    2.2330468978
13   
C6H6N->C6H6N atoms 1-13 frame 225 charge -0.000 sz -1.000 sz^2 0.627
C        1.4601680345    0.4302098082   -0.0504122528
C        0.7359752683   -0.8349232761    0.0698413559
C       -0.3967874951   -0.4694525366   -0.8450775120
C       -0.9987828916    0.2587630379    0.7324694207
C       -0.5060144359    1.0550865424   -0.7688445859
N        0.7332928724    1.5621569297   -0.3005022423
H        2.5453708733    0.5222422740   -0.1567182118
H        1.3186104454   -1.6857134726   -0.3697172286
H       -1.2905073916   -1.1320199712   -1.2012112048
H       -1.9571746939    0.7239178795    0.8841877887
H       -1.0275092975    1.7716347673   -1.4573197089
C       -0.3493801816   -1.0151892890    1.2061132789
H       -0.2672611067   -1.1867126935    2.2571911029
13   
C6H6N->C6H6N atoms 1-13 frame 227 charge +0.000 sz -1.000 sz^2 0.644
C        1.4928164620    0.4611903446   -0.0517375658
C        0.7641038004   -0.8102711826    0.0850071356
C       -0.3704199624   -0.4919789748   -0.7921028544
C       -1.0028982167    0.2798451521    0.7392954842
C       -0.4984178124    1.0322690137   -0.7725764885
N        0.6997451547    1.5583216128   -0.3229758573
H        2.5649674512    0.5283306911   -0.2156857326
H        1.3056764312   -1.6846219614   -0.3360094941
H       -1.2919699424   -1.0587290819   -1.2284912373
H       -1.9654956273    0.7441359664    0.8600711098
H       -1.0393009745    1.7268742007   -1.4611959910
C       -0.3720503516   -1.0178977028    1.2072419082
H       -0.2867564121   -1.2674680779    2.2891595832
13   
C6H6N->C6H6N atoms 1-13 frame 229 charge -0.000 sz -1.000 sz^2 0.671
C        1.5255164448    0.4931324745   -0.0582210275
C        0.7900868848   -0.7879535503    0.0952198072
C       -0.3512729049   -0.5102072003   -0.7431899395
C       -1.0087803016    0.3020414009    0.7430545683
C       -0.4901752245    1.0095412394   -0.7772792786
N        0.6704959189    1.5518039832   -0.3499272246
H        2.5847486305    0.5311676494   -0.2706243185
H        1.2889639815   -1.6829985435   -0.2960738774
H       -1.2764664860   -0.9805076461   -1.2537758645
H       -1.9787633805    0.7629152163    0.8422717605
H       -1.0547592621    1.6737433352   -1.4555212751
C       -0.3954067087   -1.0161709814    1.2068052743
H       -0.3041875921   -1.3465073773    2.3172613954
13   
C6H6N->C6H6N atoms 1-13 frame 230 charge -0.000 sz -1.000 sz^2 0.683
C        1.5582193221    0.5250241795   -0.0691987607
C        0.8140794491   -0.7683425051    0.1012713088
C       -0.3402460094   -0.5231405857   -0.6979632038
C       -1.0164649275    0.3257160033    0.7448557127
C       -0.4810824527    0.9869013050   -0.7814736294
N        0.6469998397    1.5429162181   -0.3797058751
H        2.6069356832    0.5318966143   -0.3213468155
H        1.2707942366   -1.6831430775   -0.2504511330
H       -1.2438315956   -0.9013801970   -1.2755173400
H       -1.9963397096    0.7810492454    0.8318158514
H       -1.0751205184    1.6144991847   -1.4401519981
C       -0.4207529978   -1.0106220002    1.2057377469
H       -0.3231903196   -1.4213743848    2.3321281358
13   
C6H6N->C6H6N atoms 1-13 frame 232 charge +0.000 sz -1.000 sz^2 0.702
C        1.5910096821    0.5556283490   -0.0839242617
C        0.8362210605   -0.7518243361    0.1036228216
C       -0.3382992459   -0.5293742727   -0.6563752446
C       -1.0259301894    0.3512958095    0.7458452942
C       -0.4709041769    0.9646093017   -0.7833315449
N        0.6316225835    1.5323221508   -0.4104235072
H        2.6332920823    0.5317878959   -0.3669191469
H        1.2541267944   -1.6884421586   -0.2000495398
H       -1.1953101403   -0.8270204417   -1.2935542616
H       -2.0165488876    0.7990482426    0.8300041125
H       -1.1027277554    1.5529259647   -1.4156969902
C       -0.4492983270   -1.0015998569    1.2044580930
H       -0.3472534803   -1.4893566481    2.3263441755
13   
C6H6N->C6H6N atoms 1-13 frame 234 charge -0.000 sz -1.000 sz^2 0.699
C        1.6239808144    0.5832230241   -0.1013524838
C        0.8566640961   -0.7389437233    0.1024578391
C       -0.3459019399   -0.5272735611   -0.6186262217
C       -1.0367995945    0.3790457571    0.7474468324
C       -0.4594836143    0.9433899364   -0.7805597549
N        0.6278236666    1.5211440041   -0.4396660348
H        2.6646576775    0.5325446551   -0.4051126348
H        1.2422414618   -1.7024332563   -0.1462799451
H       -1.1353821981   -0.7659476623   -1.3100487392
H       -2.0365490562    0.8170754034    0.8382581136
H       -1.1400511341    1.4943904312   -1.3832871458
C       -0.4817543651   -0.9893661546    1.2030102077
H       -0.3794458143   -1.5468488539    2.2937599674
13   
C6H6N->C6H6N atoms 1-13 frame 236 charge -0.000 sz -1.000 sz^2 0.679
C        1.6565883878    0.6052246535   -0.1199345193
C        0.8754158031   -0.7306682244    0.0977895735
C       -0.3621667831   -0.5157769972   -0.5851970680
C       -1.0480116063    0.4085776737    0.7515634093
C       -0.4472595224    0.9247811710   -0.7706433348
N        0.6397015638    1.5108586952   -0.4643744773
H        2.7001298524    0.5366060902   -0.4318902560
H        1.2376552033   -1.7261027782   -0.0916986535
H       -1.0742047850   -0.7304210457   -1.3303756008
H       -2.0525776112    0.8344909970    0.8572786304
H       -1.1864902976    1.4452250046   -1.3437223406
C       -0.5175308284   -0.9744621492    1.2011208038
H       -0.4212493764   -1.5883330904    2.2300838331
13   
C6H6N->C6H6N atoms 1-13 frame 237 charge +0.000 sz -1.000 sz^2 0.657
C        1.6871094661    0.6198724186   -0.1379925086
C        0.8922691728   -0.7273445765    0.0903166947
C       -0.3834881311   -0.4974206284   -0.5561485372
C       -1.0581395196    0.4384093709    0.7595624538
C       -0.4358098607    0.9104923808   -0.7534610989
N        0.6667420520    1.5023598651   -0.4830286991
H        2.7362085797    0.5457460190   -0.4454527085
H        1.2393476052   -1.7539175585   -0.0402988539
H       -1.0235751386   -0.7269892074   -1.3585143200
H       -2.0628522082    0.8499437753    0.8839454300
H       -1.2341810981    1.4084914100   -1.2983055203
C       -0.5539291448   -0.9580224330    1.1982215294
H       -0.4697017746   -1.6116208359    2.1411561388
13   
C6H6N->C6H6N atoms 1-13 frame 239 charge -0.000 sz -1.000 sz^2 0.604
C        1.7140809924    0.6272437339   -0.1554205157
C        0.9070008453   -0.7284851978    0.0804839862
C       -0.4068766272   -0.4761538828   -0.5314736180
C       -1.0665969511    0.4674377795    0.7714845064
C       -0.4266884006    0.9015565446   -0.7308644324
N        0.7051100137    1.4955105922   -0.4969889503
H        2.7698552578    0.5604506691   -0.4477799248
H        1.2445439740   -1.7788596840    0.0048993366
H       -0.9869092147   -0.7533481273   -1.3918306440