13   
From optimize.out: Frame 18 / 19, Energy=    -286.8249527070
C        1.3116773640    0.3021187270    0.2418766374
C        0.6063531285   -1.0013814904   -0.1826491112
C       -0.6883734870   -0.4653182002   -0.8441101649
C       -1.0783348807    0.1911144244    0.4506308061
C       -0.5190601939    1.0594221419   -0.6922625839
N        0.8285955267    1.4230484224   -0.4701668594
H        2.3487411746    0.2882882274    0.5586868321
H        1.1246429836   -1.9340476491   -0.3756521238
H       -1.2953207028   -0.9361550870   -1.6091301402
H       -2.0522388892    0.3363185857    0.9045795284
H       -1.1647864011    1.7417840696   -1.2338818909
C        0.2166845206   -0.3454429348    1.1122562639
H        0.3614198570   -0.6597492366    2.1398228063
13   
From optimize.out: Frame 16 / 19, Energy=    -286.8249299358
C        1.3188094135    0.2952186850    0.2177206955
C        0.6108016019   -0.9943033180   -0.1762946896
C       -0.6822231829   -0.4547250887   -0.8342714170
C       -1.0800315731    0.2003112177    0.4556751435
C       -0.5181946842    1.0640729833   -0.6857207593
N        0.8247448617    1.4234957684   -0.4396830624
H        2.3504146407    0.3018676841    0.5511153041
H        1.1026149271   -1.9362221186   -0.3977157004
H       -1.2746533440   -0.9470318763   -1.5935607249
H       -2.0604352869    0.3389784619    0.8961277632
H       -1.1571270265    1.7320754862   -1.2513486914
C        0.1866960219   -0.3774700669    1.1139157279
H        0.3785836307   -0.6462678180    2.1440404107
13   
From optimize.out: Frame 14 / 19, Energy=    -286.8245969484
C        1.3623288939    0.2977394767    0.1358034981
C        0.6145978618   -0.9840367398   -0.1633902653
C       -0.6766774107   -0.4539473585   -0.8550575653
C       -1.0955812337    0.1823795636    0.4533866910
C       -0.5225291402    1.0523788395   -0.6752666673
N        0.8345966773    1.4192245676   -0.4440892104
H        2.3555624396    0.3117747078    0.5699568145
H        1.0636018833   -1.9569983364   -0.3474427121
H       -1.2536264626   -0.9543729788   -1.6232049144
H       -2.0884117757    0.3330503616    0.8608591310
H       -1.1685518228    1.7652901921   -1.1752473105
C        0.1448063488   -0.4048973258    1.1201141118
H        0.4298837410   -0.6075849695    2.1435783989
13   
From optimize.out: Frame 13 / 19, Energy=    -286.8239136359
C        1.3893592275    0.2946602515    0.0888264839
C        0.6175757810   -0.9797888303   -0.1606800185
C       -0.6718919361   -0.4554957444   -0.8887786202
C       -1.1032807313    0.1564152520    0.4471173489
C       -0.5290167408    1.0366890434   -0.6720943586
N        0.8445924013    1.4134169554   -0.4663042197
H        2.3350327583    0.3137641332    0.6183957522
H        1.0161236252   -1.9833563610   -0.2933648192
H       -1.2468271837   -0.9520256354   -1.6631343679
H       -2.1033777138    0.3158530603    0.8332341803
H       -1.1811533335    1.7965692486   -1.0893043373
C        0.1384943720   -0.3986187239    1.1187285072
H        0.4943694739   -0.5580826495    2.1273584690
13   
From optimize.out: Frame 11 / 19, Energy=    -286.8199501799
C        1.4113887858    0.2908366551    0.0624183891
C        0.6198232631   -0.9745143310   -0.1573534615
C       -0.6692310604   -0.4546630781   -0.9367404674
C       -1.1081488271    0.1291333940    0.4425237557
C       -0.5366469545    1.0182984176   -0.6719233465
N        0.8596271240    1.4073877399   -0.4964770176
H        2.3092089024    0.3027402247    0.6701065565
H        0.9730800140   -2.0006389568   -0.2366720961
H       -1.2568145621   -0.9392467062   -1.7134137844
H       -2.1130443352    0.2845048476    0.8187476616
H       -1.1916745050    1.8156089080   -1.0102260991
C        0.1458731749   -0.3694018794    1.1188987646
H        0.5565589802   -0.5100452354    2.1101111453
13   
From optimize.out: Frame 9 / 19, Energy=    -286.8145446746
C        1.4330311967    0.2863871098    0.0501800925
C        0.6234086493   -0.9692299440   -0.1538959245
C       -0.6749184853   -0.4537963631   -0.9986530879
C       -1.1138830488    0.1048385613    0.4462155874
C       -0.5451907018    0.9962646747   -0.6746435460
N        0.8845303094    1.4037956665   -0.5245102540
H        2.2845314490    0.2804170033    0.7214512313
H        0.9446838776   -2.0079782291   -0.1886834541
H       -1.2829535851   -0.9207689960   -1.7809295273
H       -2.1210930587    0.2491120421    0.8234583320
H       -1.2017308439    1.8199646339   -0.9464449287
C        0.1553437373   -0.3317728999    1.1256010977
H        0.6142405043   -0.4572332595    2.1008543816
13   
From optimize.out: Frame 7 / 19, Energy=    -286.8033831382
C        1.4581668660    0.2822826238    0.0505594177
C        0.6308147700   -0.9666530331   -0.1516728911
C       -0.6919036183   -0.4548846307   -1.0673490069
C       -1.1219385411    0.0865895781    0.4563170112
C       -0.5565370739    0.9751162588   -0.6822374386
N        0.9212863281    1.4054750336   -0.5464611342
H        2.2648223027    0.2542703515    0.7739571347
H        0.9328865071   -2.0114084078   -0.1532632028
H       -1.3243619695   -0.9045955217   -1.8614994707
H       -2.1291132188    0.2191964771    0.8431673683
H       -1.2165474282    1.8155336269   -0.9012983308
C        0.1651890119   -0.2952260655    1.1384551841
H        0.6672360640   -0.4056962911    2.1013253590
13   
From optimize.out: Frame 6 / 19, Energy=    -286.7928827523
C        1.4892301580    0.2800163760    0.0617189598
C        0.6415725874   -0.9678394618   -0.1500974373
C       -0.7178168715   -0.4588806516   -1.1341764544
C       -1.1334774299    0.0744847738    0.4677118150
C       -0.5699057903    0.9604399118   -0.6941707693
N        0.9650382321    1.4139488528   -0.5604214604
H        2.2534718806    0.2299676109    0.8261276755
H        0.9329461783   -2.0152659296   -0.1288427662
H       -1.3811478987   -0.8985581787   -1.9504435544
H       -2.1397983239    0.1975984974    0.8677438904
H       -1.2361535572    1.8103384776   -0.8735528706
C        0.1773113002   -0.2645284745    1.1565608152
H        0.7187295349   -0.3617218041    2.1118421567
13   
From optimize.out: Frame 4 / 19, Energy=    -286.7557894188
C        1.5244919540    0.2795212105    0.0781816309
C        0.6520831467   -0.9714138910   -0.1493345932
C       -0.7464878108   -0.4655575404   -1.1947909949
C       -1.1482318042    0.0639248120    0.4763721064
C       -0.5812130759    0.9527530604   -0.7075636031
N        1.0077025771    1.4252992022   -0.5683454574
H        2.2477109276    0.2099850466    0.8771499612
H        0.9353911406   -2.0208365963   -0.1106102595
H       -1.4480928093   -0.9025480563   -2.0419805620
H       -2.1550810474    0.1791573244    0.8883768862
H       -1.2546074755    1.8099525482   -0.8536566948
C        0.1928467625   -0.2383085862    1.1770873362
H        0.7734875146   -0.3219285342    2.1291142439
13   
From optimize.out: Frame 2 / 19, Energy=    -286.6905882509
C        1.5398994211    0.2841736601    0.0782653692
C        0.6503504489   -0.9740424968   -0.1555646316
C       -0.7596211354   -0.4529567318   -1.2447038298
C       -1.1547198396    0.0626264653    0.4776645157
C       -0.5789866531    0.9677224063   -0.7239057734
N        1.0388884122    1.4400196675   -0.5632041438
H        2.2149478426    0.1868390055    0.9079920418
H        0.9533412719   -2.0143225630   -0.1050580105
H       -1.4880047438   -0.9441106511   -2.0781488537
H       -2.1559582069    0.1764202602    0.9152424435
H       -1.2622583098    1.8142328669   -0.8507013761
C        0.1932722257   -0.2388806183    1.1910002576
H        0.8088492663   -0.3077212709    2.1511219908
13   
C6H6N->C6H6N atoms 1-13 frame 193 charge +0.000 sz -1.000 sz^2 0.798
C        1.5219619680    0.2963451890    0.0532118643
C        0.6340302579   -0.9745746508   -0.1685812442
C       -0.7526480031   -0.4119478030   -1.2828088787
C       -1.1472335406    0.0777856218    0.4753966226
C       -0.5647079181    1.0092309412   -0.7439749805
N        1.0545758673    1.4616294540   -0.5433174389
H        2.1538296263    0.1585094504    0.9033879045
H        0.9977423175   -1.9908059526   -0.1146738643
H       -1.4756753255   -1.0284355556   -2.0274811695
H       -2.1292477403    0.1999303152    0.9595361004
H       -1.2588378941    1.8195842750   -0.8781345404
C        0.1683113779   -0.2787120794    1.1965879986
H        0.7978990067   -0.3385392051    2.1708516261
13   
C6H6N->C6H6N atoms 1-13 frame 195 charge -0.000 sz -1.000 sz^2 0.770
C        1.5000385605    0.3078085767    0.0271336599
C        0.6161761696   -0.9754630400   -0.1799320614
C       -0.7477582106   -0.3734736301   -1.3139435870
C       -1.1393069161    0.0921741290    0.4755217362
C       -0.5530724075    1.0480943649   -0.7609143251
N        1.0661586701    1.4802029040   -0.5227212037
H        2.1107874733    0.1374038961    0.8905396726
H        1.0430191678   -1.9705673626   -0.1272885880
H       -1.4483564881   -1.1029898220   -1.9572534156
H       -2.0987312966    0.2230766892    1.0035022203
H       -1.2564967608    1.8279459353   -0.9131333652
C        0.1424271263   -0.3218688557    1.2007699082
H        0.7651149120   -0.3723437848    2.1777193488
13   
C6H6N->C6H6N atoms 1-13 frame 196 charge -0.000 sz -1.000 sz^2 0.756
C        1.4757017688    0.3174280318    0.0012064410
C        0.5980171831   -0.9771595314   -0.1883036095
C       -0.7446214179   -0.3408971230   -1.3365241604
C       -1.1309023101    0.1047442008    0.4786326140
C       -0.5440871643    1.0813002198   -0.7742666618
N        1.0734112260    1.4944558328   -0.5024354602
H        2.0878585072    0.1246939620    0.8709074086
H        1.0870368705   -1.9544247817   -0.1423181838
H       -1.4086622610   -1.1636958970   -1.8725315817
H       -2.0661058771    0.2449697818    1.0439505868
H       -1.2577341380    1.8420423820   -0.9542865584
C        0.1165353551   -0.3672311680    1.2040560261
H        0.7135522576   -0.4062259099    2.1719131394
13   
C6H6N->C6H6N atoms 1-13 frame 198 charge +0.000 sz -1.000 sz^2 0.736
C        1.4504946450    0.3245035674   -0.0234332452
C        0.5806277885   -0.9799567358   -0.1931324265
C       -0.7424469309   -0.3158201916   -1.3505445266
C       -1.1220165810    0.1149732964    0.4846442947
C       -0.5374066997    1.1076493151   -0.7842591062
N        1.0766764532    1.5041551973   -0.4828965489
H        2.0827185949    0.1203385557    0.8448246452
H        1.1277783591   -1.9408185684   -0.1593564088
H       -1.3604186691   -1.2092522935   -1.7797629471
H       -2.0336080362    0.2655055122    1.0786991168
H       -1.2623057830    1.8614222353   -0.9995923954
C        0.0908320674   -0.4140383546    1.2066463743
H        0.6490747917   -0.4386615354    2.1581631738
13   
C6H6N->C6H6N atoms 1-13 frame 200 charge +0.000 sz -1.000 sz^2 0.717
C        1.4252287677    0.3289238005   -0.0462955906
C        0.5645525460   -0.9838281031   -0.1946100807
C       -0.7403603630   -0.2980430372   -1.3570364597
C       -1.1126423056    0.1229204645    0.4930816979
C       -0.5326967577    1.1276926684   -0.7915816571
N        1.0763545949    1.5099836454   -0.4639151392
H        2.0913247267    0.1237842432    0.8115952558
H        1.1641016184   -1.9271975749   -0.1785924114
H       -1.3069748974   -1.2407891012   -1.6838654267
H       -2.0031498281    0.2853555681    1.1069280516
H       -1.2677268705    1.8834551243   -1.0474580266
C        0.0646205860   -0.4624197546    1.2082044033
H        0.5773681827   -0.4698379432    2.1435453835
13   
C6H6N->C6H6N atoms 1-13 frame 202 charge +0.000 sz -1.000 sz^2 0.714
C        1.4002455146    0.3308325334   -0.0672843922
C        0.5500953744   -0.9885053762   -0.1932208609
C       -0.7375046993   -0.2866994605   -1.3570570180
C       -1.1027587683    0.1288749116    0.5033829557
C       -0.5297912144    1.1425507434   -0.7969653401
N        1.0725482859    1.5129145224   -0.4450496806
H        2.1102172699    0.1347020541    0.7698496363
H        1.1953717742   -1.9111304498   -0.2007428537
H       -1.2509826977   -1.2602275026   -1.5882208327
H       -1.9763794993    0.3055599806    1.1282342026
H       -1.2707154204    1.9050404230   -1.0967615321
C        0.0367572397   -0.5130614612    1.2078554307
H        0.5028968408   -0.5008509181    2.1359802850
13   
C6H6N->C6H6N atoms 1-13 frame 204 charge -0.000 sz -1.000 sz^2 0.720
C        1.3760713626    0.3304514329   -0.0862060419
C        0.5377964364   -0.9934766198   -0.1894328314
C       -0.7329140558   -0.2809062198   -1.3512561786
C       -1.0923365823    0.1331602941    0.5150179655
C       -0.5286064739    1.1532292589   -0.8009376630
N        1.0651099856    1.5139731207   -0.4259257700
H        2.1367853124    0.1530466903    0.7181549450
H        1.2209406575   -1.8906231872   -0.2266079122
H       -1.1955045848   -1.2698433470   -1.4962528736
H       -1.9550579998    0.3272558535    1.1420252157
H       -1.2678422085    1.9231068592   -1.1460699802
C        0.0063006450   -0.5664632231    1.2044592726
H        0.4292575056   -0.5329109127    2.1430318519
13   
C6H6N->C6H6N atoms 1-13 frame 205 charge -0.000 sz -1.000 sz^2 0.724
C        1.3538962584    0.3282188985   -0.1024742439
C        0.5286847352   -0.9978908820   -0.1835036703
C       -0.7255078700   -0.2797431335   -1.3398862107
C       -1.0813371216    0.1362264081    0.5276276661
C       -0.5289318319    1.1605494863   -0.8036799142
N        1.0539721722    1.5143045511   -0.4064235093
H        2.1687042366    0.1785434537    0.6562145403
H        1.2402909822   -1.8645754672   -0.2562584809
H       -1.1449203858   -1.2730388736   -1.4120578985
H       -1.9407795565    0.3515047591    1.1478677262
H       -1.2561585638    1.9348236143   -1.1929173394
C       -0.0266952470   -0.6220858886    1.1974126457
H        0.3587821920   -0.5668369263    2.1680786890
13   
C6H6N->C6H6N atoms 1-13 frame 207 charge -0.000 sz -1.000 sz^2 0.739
C        1.3353222286    0.3249334922   -0.1152406419
C        0.5240094077   -1.0006423518   -0.1752338832
C       -0.7142738136   -0.2821963646   -1.3228528932
C       -1.0696961741    0.1388140532    0.5412925623
C       -0.5302901363    1.1652298164   -0.8050266873
N        1.0393430059    1.5151075454   -0.3865910502
H        2.2039530489    0.2103748988    0.5854700152
H        1.2537642533   -1.8332954632   -0.2885336699
H       -1.1040536738   -1.2744527149   -1.3387490536
H       -1.9340066659    0.3792425000    1.1461117010
H       -1.2342491652    1.9383992905   -1.2344603675
C       -0.0610916366   -0.6783466918    1.1875174618
H        0.2912693210   -0.6031680102    2.2062965065
13   
C6H6N->C6H6N atoms 1-13 frame 209 charge -0.000 sz -1.000 sz^2 0.746
C        1.3217632301    0.3216502931   -0.1236917364
C        0.5248091800   -1.0005705204   -0.1639144706
C       -0.6983596266   -0.2874670550   -1.2997014598
C       -1.0574264791    0.1419078790    0.5565247596
C       -0.5320583308    1.1677776171   -0.8046872742
N        1.0214132687    1.5173918046   -0.3664740384
H        2.2412594267    0.2474182938    0.5082248095
H        1.2628388372   -1.7985019723   -0.3215253325
H       -1.0767762451   -1.2783333213   -1.2772774284
H       -1.9337708213    0.4112653934    1.1375216843
H       -1.2026226074    1.9335876429   -1.2688672370
C       -0.0956173793   -0.7334949785    1.1767219183
H        0.2245475470   -0.6426310764    2.2471458057
13   
C6H6N->C6H6N atoms 1-13 frame 211 charge -0.000 sz -1.000 sz^2 0.740
C        1.3140265385    0.3194596963   -0.1273646093
C        0.5314897934   -0.9967800341   -0.1487712062
C       -0.6773716272   -0.2952438882   -1.2700817259
C       -1.0448379796    0.1464226298    0.5738006985
C       -0.5336488674    1.1683152806   -0.8025575769
N        1.0002626811    1.5216559010   -0.3462963356
H        2.2798764041    0.2880537515    0.4271859342
H        1.2698492291   -1.7632739821   -0.3531922438
H       -1.0649930310   -1.2863522040   -1.2270783370
H       -1.9379743549    0.4476355259    1.1228691218
H       -1.1640316407    1.9219387157   -1.2962067143
C       -0.1294541083   -0.7860444498    1.1672185553
H        0.1568069631   -0.6857869427    2.2804744393
13   
C6H6N->C6H6N atoms 1-13 frame 212 charge +0.000 sz -1.000 sz^2 0.734
C        1.3126485292    0.3193666140   -0.1259586316
C        0.5441157039   -0.9886396691   -0.1290922852
C       -0.6512100143   -0.3059147123   -1.2336249082
C       -1.0325168148    0.1530119000    0.5933757578
C       -0.5345687303    1.1663796023   -0.7986925685
N        0.9757738195    1.5278599055   -0.3266333765
H        2.3192892107    0.3303260476    0.3449421156
H        1.2771712637   -1.7314182613   -0.3815749893
H       -1.0693497944   -1.2971114473   -1.1878351259
H       -1.9442539508    0.4875633835    1.1025643609
H       -1.1227528931    1.9061140965   -1.3180492060
C       -0.1621387022   -0.8346710600    1.1609443453
H        0.0877923731   -0.7328663993    2.2996345116
13   
C6H6N->C6H6N atoms 1-13 frame 214 charge +0.000 sz -1.000 sz^2 0.715
C        1.3178446494    0.3222404466   -0.1195076977
C        0.5623511003   -0.9759422438   -0.1045368218
C       -0.6201819475   -0.3202280218   -1.1902172442
C       -1.0211863651    0.1619849523    0.6151409528
C       -0.5343863866    1.1611362507   -0.7933088536
N        0.9478936754    1.5354309021   -0.3084208663
H        2.3588681405    0.3719520956    0.2638754151
H        1.2865328572   -1.7065151851   -0.4047617855
H       -1.0887922562   -1.3068054010   -1.1594556139
H       -1.9502824011    0.5293322249    1.0771563063
H       -1.0840593898    1.8894907739   -1.3372636126
C       -0.1933632010   -0.8782711254    1.1593878633
H        0.0187615246   -0.7838056689    2.3019119582
13   
C6H6N->C6H6N atoms 1-13 frame 216 charge +0.000 sz -1.000 sz^2 0.685
C        1.3294758001    0.3287879162   -0.1085806857
C        0.5854837279   -0.9589503750   -0.0755048520
C       -0.5850454152   -0.3387427311   -1.1402633200
C       -1.0115282369    0.1733157325    0.6384939701
C       -0.5327878902    1.1518267632   -0.7868126305
N        0.9168166468    1.5434443233   -0.2928599430
H        2.3976488355    0.4106521543    0.1858418485
H        1.2981077030   -1.6905243508   -0.4209250953
H       -1.1204316270   -1.3106466390   -1.1419411990
H       -1.9543136522    0.5706396091    1.0476150478
H       -1.0526923451    1.8747754432   -1.3569160622
C       -0.2228841776   -0.9160589202    1.1631867137
H       -0.0478493690   -0.8385189256    2.2886662075
13   
C6H6N->C6H6N atoms 1-13 frame 218 charge +0.000 sz -1.000 sz^2 0.657
C        1.3470488245    0.3395793495   -0.0944636546
C        0.6125101245   -0.9382560976   -0.0433394672
C       -0.5469331921   -0.3613638187   -1.0847924932
C       -1.0040403535    0.1868041402    0.6623254886
C       -0.5296832280    1.1382427675   -0.7798948668
N        0.8829491269    1.5509338101   -0.2812796074
H        2.4344280698    0.4446521799    0.1116825654
H        1.3103263019   -1.6829893086   -0.4286022668
H       -1.1599244565   -1.3042674454   -1.1351914440
H       -1.9556663885    0.6093521862    1.0152282931
H       -1.0311680319    1.8622739860   -1.3787128857
C       -0.2506420489   -0.9477075871    1.1716938504
H       -0.1092047483   -0.8972541618    2.2653464883
13   
C6H6N->C6H6N atoms 1-13 frame 220 charge -0.000 sz -1.000 sz^2 0.636
C        1.3699060828    0.3551182202   -0.0791159904
C        0.6423627356   -0.9145154267   -0.0101236179
C       -0.5071324401   -0.3873417430   -1.0252273111
C       -0.9989944503    0.2022973102    0.6851928037
C       -0.5251965723    1.1207875660   -0.7735627660
N        0.8466946724    1.5571158657   -0.2750709866
H        2.4681530053    0.4730047538    0.0409024010
H        1.3206408641   -1.6815676472   -0.4270301163
H       -1.2022463812   -1.2842999761   -1.1389296830
H       -1.9548665155    0.6442294438    0.9812074459
H       -1.0194348139    1.8494435561   -1.4022520345
C       -0.2769150123   -0.9733550951    1.1829289676
H       -0.1629711746   -0.9609168278    2.2410808875
13   
C6H6N->C6H6N atoms 1-13 frame 221 charge +0.000 sz -1.000 sz^2 0.626
C        1.3972967682    0.3757631435   -0.0650438249
C        0.6739166972   -0.8884710859    0.0215290870
C       -0.4672314786   -0.4153795645   -0.9634816361
C       -0.9965036785    0.2197043510    0.7054376734
C       -0.5195568470    1.1002787513   -0.7690447801
N        0.8086214702    1.5613587477   -0.2757214773
H        2.4980590783    0.4953249175   -0.0275919249
H        1.3264428891   -1.6832516446   -0.4161712903
H       -1.2419430112   -1.2484703033   -1.1525985377
H       -1.9534260967    0.6748844190    0.9467361259
H       -1.0160794683    1.8321807350   -1.4253768537
C       -0.3021018654   -0.9931934758    1.1939927333
H       -0.2074944574   -1.0307289909    2.2273347056
13   
C6H6N->C6H6N atoms 1-13 frame 223 charge +0.000 sz -1.000 sz^2 0.621
C        1.4279628053    0.4011914139   -0.0549417031
C        0.7056388822   -0.8613991164    0.0487744733
C       -0.4296110606   -0.4434903551   -0.9024653237
C       -0.9965134367    0.2387302751    0.7214268782
C       -0.5130587842    1.0779391480   -0.7674286823
N        0.7701551955    1.5631162017   -0.2843493278
H        2.5236655782    0.5115102984   -0.0938870459
H        1.3258338874   -1.6852598931   -0.3966680987
H       -1.2730778777   -1.1966874784   -1.1745105983
H       -1.9534877643    0.7013365672    0.9136388947
H       -1.0193436834    1.8067776768   -1.4448188350
C       -0.3262706761   -1.0070924193    1.2020903146
H       -0.2418930656   -1.1066723188    2.2331390540
13   
C6H6N->C6H6N atoms 1-13 frame 225 charge -0.000 sz -1.000 sz^2 0.627
C        1.4601941006    0.4301095865   -0.0505123296
C        0.7359234559   -0.8349656443    0.0698808083
C       -0.3968549717   -0.4694986980   -0.8450201806
C       -0.9987341318    0.2588912438    0.7324906036
C       -0.5059784734    1.0550540621   -0.7689128228
N        0.7333824439    1.5620830712   -0.3006675522
H        2.5453983712    0.5220616848   -0.1568732041
H        1.3184836906   -1.6858316743   -0.3696303170
H       -1.2906338259   -1.1320378632   -1.2010584937
H       -1.9570888006    0.7241220014    0.8842107657
H       -1.0274561230    1.7715776945   -1.4574265768
C       -0.3493945603   -1.0150632502    1.2062151900
H       -0.2672411754   -1.1865022142    2.2573041091
13   
C6H6N->C6H6N atoms 1-13 frame 227 charge +0.000 sz -1.000 sz^2 0.644
C        1.4928469520    0.4610785646   -0.0518539704
C        0.7640499368   -0.8103175753    0.0850490536
C       -0.3704931748   -0.4920293170   -0.7920373418
C       -1.0028427044    0.2799885856    0.7393164799
C       -0.4983810880    1.0322297082   -0.7726526927
N        0.6998410798    1.5582402300   -0.3231606154
H        2.5649948665    0.5281263329   -0.2158601206
H        1.3055398260   -1.6847479178   -0.3359087557
H       -1.2921046326   -1.0587558468   -1.2283265024
H       -1.9654011111    0.7443599517    0.8600932777
H       -1.0392476409    1.7268067731   -1.4613136057
C       -0.3720651748   -1.0177539825    1.2073585048
H       -0.2867371346   -1.2672255065    2.2892962886
13   
C6H6N->C6H6N atoms 1-13 frame 229 charge -0.000 sz -1.000 sz^2 0.671
C        1.5255512764    0.4930087367   -0.0583561267
C        0.7900313320   -0.7880040225    0.0952630545
C       -0.3513519238   -0.5102608022   -0.7431157828
C       -1.0087173050    0.3021996704    0.7430757391
C       -0.4901391029    1.0094946161   -0.7773626061
N        0.6705966284    1.5517143923   -0.3501314735
H        2.5847750232    0.5309393364   -0.2708201936
H        1.2888186114   -1.6831298644   -0.2959601838
H       -1.2766090077   -0.9805454368   -1.2536011887
H       -1.9786596026    0.7631589055    0.8422947964
H       -1.0547082991    1.6736665654   -1.4556464774
C       -0.3954203610   -1.0160095889    1.2069366810
H       -0.3041672692   -1.3462325079    2.3174237614
13   
C6H6N->C6H6N atoms 1-13 frame 230 charge -0.000 sz -1.000 sz^2 0.683
C        1.5582582193    0.5248880953   -0.0693550484
C        0.8140225094   -0.7683972024    0.1013139971
C       -0.3403308857   -0.5231959014   -0.6978803552
C       -1.0163934188    0.3258882092    0.7448779697
C       -0.4810484858    0.9868475681   -0.7815623950
N        0.6471035660    1.5428178457   -0.3799287697
H        2.6069599777    0.5316444308   -0.3215669665
H        1.2706411085   -1.6832771745   -0.2503268026
H       -1.2439822195   -0.9014302581   -1.2753350578
H       -1.9962256177    0.7813121996    0.8318427138
H       -1.0750746731    1.6144156244   -1.4402798906
C       -0.4207633960   -1.0104436881    1.2058835534
H       -0.3231666844   -1.4210697486    2.3323170518
13   
C6H6N->C6H6N atoms 1-13 frame 232 charge +0.000 sz -1.000 sz^2 0.702
C        1.5910520693    0.5554798005   -0.0841038434
C        0.8361630121   -0.7518834277    0.1036624904
C       -0.3383897337   -0.5294292640   -0.6562842407
C       -1.0258490244    0.3514804203    0.7458699588
C       -0.4708739514    0.9645494710   -0.7834233834
N        0.6317273258    1.5322147347   -0.4106632559
H        2.6333131456    0.5315127555   -0.3671665638
H        1.2539669903   -1.6885764224   -0.1999180106
H       -1.1954697436   -0.8270830472   -1.2933667290
H       -2.0164232242    0.7993294324    0.8300386594
H       -1.1026896122    1.5528396286   -1.4158213974
C       -0.4493030983   -1.0014062656    1.2046172732
H       -0.3472241552   -1.4890278160    2.3265590423
13   
C6H6N->C6H6N atoms 1-13 frame 234 charge -0.000 sz -1.000 sz^2 0.699
C        1.6240257263    0.5830625114   -0.1015561689
C        0.8566051743   -0.7390073409    0.1024916291
C       -0.3459972209   -0.5273257590   -0.6185284386
C       -1.0367077883    0.3792403540    0.7474754632
C       -0.4594584077    0.9433261366   -0.7806516935
N        0.6279273351    1.5210278914   -0.4399196236
H        2.6646746197    0.5322490627   -0.4053895674
H        1.2420762899   -1.7025652874   -0.1461458038
H       -1.1355522703   -0.7660217802   -1.3098579809
H       -2.0364106542    0.8173726386    0.8383045719
H       -1.1400225040    1.4943068227   -1.3834010579
C       -0.4817512047   -0.9891602480    1.2031807829
H       -0.3794090953   -1.5465050018    2.2939978876
13   
C6H6N->C6H6N atoms 1-13 frame 236 charge -0.000 sz -1.000 sz^2 0.679
C        1.6566344716    0.6050536898   -0.1201603788
C        0.8753560952   -0.7307364079    0.0978145787
C       -0.3622652828   -0.5158236330   -0.5850949859
C       -1.0479087580    0.4087786693    0.7515975219
C       -0.4472396841    0.9247169672   -0.7707318857
N        0.6398024216    1.5107352114   -0.4646371973
H        2.7001426558    0.5362949514   -0.4321965668
H        1.2374863574   -1.7262307648   -0.0915680523
H       -1.0743874870   -0.7305036801   -1.3301826808
H       -2.0524259370    0.8348001879    0.8573407396
H       -1.1864712982    1.4451509766   -1.3438187311
C       -0.5175182064   -0.9742488255    1.2012992782
H       -0.4212053479   -1.5879873422    2.2303383603
13   
C6H6N->C6H6N atoms 1-13 frame 237 charge +0.000 sz -1.000 sz^2 0.657
C        1.6871553822    0.6196931866   -0.1382359195
C        0.8922085045   -0.7274172208    0.0903309813
C       -0.3835879991   -0.4974595117   -0.5560448767
C       -1.0580260320    0.4386129890    0.7596029898
C       -0.4357944337    0.9104317136   -0.7535433259
N        0.6668393281    1.5022309400   -0.4832953195
H        2.7362183826    0.5454252994   -0.4457851837
H        1.2391769313   -1.7540409146   -0.0401782111
H       -1.0237726558   -0.7270759345   -1.3583190585
H       -2.0626878083    0.8502598398    0.8840251057
H       -1.2341697703    1.4084328522   -1.2983798127
C       -0.5539070591   -0.9578073156    1.1984037004
H       -0.4696527705   -1.6112859232    2.1414189303
13   
C6H6N->C6H6N atoms 1-13 frame 239 charge -0.000 sz -1.000 sz^2 0.604
C        1.7141256820    0.6270581200   -0.1556764194
C        0.9069387544   -0.7285621757    0.0804868973
C       -0.4069765285   -0.4761839545   -0.5313701753
C       -1.0664734972    0.4676412828    0.7715318450
C       -0.4266756846    0.9015023578   -0.7309386923
N        0.7052037567    1.4953777350   -0.4972556394
H        2.7698637993    0.5601250859   -0.4481343372
H        1.2443729016   -1.7789790652    0.0050049851
H       -0.9871232334   -0.7534344699   -1.3916321217
H       -2.0687051630    0.8631527406    0.9142051599
H       -1.2745287416    1.3831106767   -1.2485948233
C       -0.5887325020   -0.9399289144    1.1934089225
H       -0.5212895438   -1.6208794191    2.0389643989
13   
C6H6N->C6H6N atoms 1-13 frame 241 charge +0.000 sz -1.000 sz^2 0.542
C        1.7374961282    0.6286943064   -0.1744684879
C        0.9199063842   -0.7330307732    0.0677163536
C       -0.4314626499   -0.4550520542   -0.5109194056
C       -1.0736397964    0.4964001599    0.7864778279
C       -0.4205821884    0.8980854501   -0.7049936996
N        0.7513892194    1.4894781190   -0.5101988064
H        2.8004569156    0.5807902750   -0.4431285379
H        1.2510128754   -1.7966738764    0.0434885447
H       -0.9603151874   -0.8027487911   -1.4229163800
H       -2.0737612018    0.8743300009    0.9449949280
H       -1.3033462299    1.3660911649   -1.1959036824
C       -0.6218676651   -0.9188729307    1.1845432123
H       -0.5752866037   -1.6274910506    1.9353081332
13   
C6H6N->C6H6N atoms 1-13 frame 243 charge -0.000 sz -1.000 sz^2 0.542
C        1.7575430807    0.6260441050   -0.1974361423
C        0.9316567787   -0.7396362728    0.0509650568
C       -0.4570217249   -0.4364238661   -0.4949217082
C       -1.0800375654    0.5263089023    0.8034961204
C       -0.4178391071    0.9004649927   -0.6772214605
N        0.8034166006    1.4840343943   -0.5263203857
H        2.8283682535    0.6085855916   -0.4339263793
H        1.2587689806   -1.8046158731    0.0756375711