
Running Job 1 of 1 qcirc.in
qchem qcirc.in_62974.0 ./qcirc.d/ 1
/home/leeping/opt/qchem/5.0.2-openmp/exe/qcprog.exe_s qcirc.in_62974.0 ./qcirc.d/
Check license passed

                  Welcome to Q-Chem
     A Quantum Leap Into The Future Of Chemistry


 Q-Chem 5.0, Q-Chem, Inc., Pleasanton, CA (2017)

 Yihan Shao,  Zhengting Gan,  E. Epifanovsky,  A. T. B. Gilbert,  M. Wormit,  
 J. Kussmann,  A. W. Lange,  A. Behn,  Jia Deng,  Xintian Feng,  D. Ghosh,  
 M. Goldey,  P. R. Horn,  L. D. Jacobson,  I. Kaliman,  T. Kus,  A. Landau,  
 Jie Liu,  E. I. Proynov,  R. M. Richard,  R. P. Steele,  E. J. Sundstrom,  
 H. L. Woodcock III,  P. M. Zimmerman,  D. Zuev,  B. Albrecht,  E. Alguire,  
 S. A. Baeppler,  D. Barton,  Z. Benda,  Y. A. Bernard,  E. J. Berquist,  
 K. B. Bravaya,  H. Burton,  D. Casanova,  Chun-Min Chang,  Yunqing Chen,  
 A. Chien,  K. D. Closser,  M. P. Coons,  S. Dasgupta,  A. L. Dempwolff,  
 M. Diedenhofen,  Hainam Do,  R. G. Edgar,  Po-Tung Fang,  S. Fatehi,  
 Qingguo Feng,  J. Fosso-Tande,  Qinghui Ge,  A. Ghysels,  G. Gidofalvi,  
 J. Gomes,  J. Gonthier,  A. Gunina,  M. W. D. Hanson-Heine,  
 P. H. P. Harbach,  A. W. Hauser,  J. E. Herr,  E. G. Hohenstein,  
 Z. C. Holden,  Kerwin Hui,  T.-C. Jagau,  Hyunjun Ji,  B. Kaduk,  
 K. Khistyaev,  Jaehoon Kim,  P. Klunzinger,  K. Koh,  D. Kosenkov,  
 L. Koulias,  T. Kowalczyk,  C. M. Krauter,  A. Kunitsa,  Ka Un Lao,  
 A. Laurent,  K. V. Lawler,  Joonho Lee,  D. Lefrancois,  S. Lehtola,  
 D. S. Levine,  Yi-Pei Li,  You-Sheng Lin,  Fenglai Liu,  E. Livshits,  
 A. Luenser,  P. Manohar,  E. Mansoor,  S. F. Manzer,  Shan-Ping Mao,  
 Yuezhi Mao,  N. Mardirossian,  A. V. Marenich,  T. Markovich,  
 L. A. Martinez-Martinez,  S. A. Maurer,  N. J. Mayhall,  S. C. McKenzie,  
 J.-M. Mewes,  A. F. Morrison,  J. W. Mullinax,  K. Nanda,  
 T. S. Nguyen-Beck,  R. Olivares-Amaya,  J. A. Parkhill,  T. M. Perrine,  
 F. Plasser,  S. Prager,  A. Prociuk,  E. Ramos,  D. R. Rehn,  F. Rob,  
 M. Schneider,  N. Sergueev,  S. M. Sharada,  S. Sharma,  D. W. Small,  
 T. Stauch,  T. Stein,  Yu-Chuan Su,  A. J. W. Thom,  A. Tkatchenko,  
 T. Tsuchimochi,  L. Vogt,  O. Vydrov,  M. A. Watson,  J. Wenzel,  
 M. de Wergifosse,  T. A. Wesolowski,  A. White,  J. Witte,  A. Yamada,  
 Jun Yang,  K. Yao,  S. Yeganeh,  S. R. Yost,  Zhi-Qiang You,  A. Zech,  
 Igor Ying Zhang,  Xing Zhang,  Yan Zhao,  Ying Zhu,  B. R. Brooks,  
 G. K. L. Chan,  C. J. Cramer,  M. S. Gordon,  W. J. Hehre,  A. Klamt,  
 M. W. Schmidt,  C. D. Sherrill,  D. G. Truhlar,  A. Aspuru-Guzik,  R. Baer,  
 A. T. Bell,  N. A. Besley,  Jeng-Da Chai,  R. A. DiStasio Jr.,  A. Dreuw,  
 B. D. Dunietz,  T. R. Furlani,  Chao-Ping Hsu,  Yousung Jung,  Jing Kong,  
 D. S. Lambrecht,  WanZhen Liang,  C. Ochsenfeld,  V. A. Rassolov,  
 L. V. Slipchenko,  J. E. Subotnik,  T. Van Voorhis,  J. M. Herbert,  
 A. I. Krylov,  P. M. W. Gill,  M. Head-Gordon

 Contributors to earlier versions of Q-Chem not listed above: 
 R. D. Adamson,  B. Austin,  J. Baker,  G. J. O. Beran,  K. Brandhorst,  
 S. T. Brown,  E. F. C. Byrd,  A. K. Chakraborty,  C.-L. Cheng,  
 Siu Hung Chien,  D. M. Chipman,  D. L. Crittenden,  H. Dachsel,  
 R. J. Doerksen,  A. D. Dutoi,  L. Fusti-Molnar,  W. A. Goddard III,  
 A. Golubeva-Zadorozhnaya,  S. R. Gwaltney,  G. Hawkins,  A. Heyden,  
 S. Hirata,  G. Kedziora,  F. J. Keil,  C. Kelley,  Jihan Kim,  R. A. King,  
 R. Z. Khaliullin,  P. P. Korambath,  W. Kurlancheek,  A. M. Lee,  M. S. Lee,  
 S. V. Levchenko,  Ching Yeh Lin,  D. Liotard,  R. C. Lochan,  I. Lotan,  
 P. E. Maslen,  N. Nair,  D. P. O'Neill,  D. Neuhauser,  E. Neuscamman,  
 C. M. Oana,  R. Olson,  B. Peters,  R. Peverati,  P. A. Pieniazek,  
 Y. M. Rhee,  J. Ritchie,  M. A. Rohrdanz,  E. Rosta,  N. J. Russ,  
 H. F. Schaefer III,  N. E. Schultz,  N. Shenvi,  A. C. Simmonett,  A. Sodt,  
 D. Stuck,  K. S. Thanthiriwatte,  V. Vanovschi,  Tao Wang,  A. Warshel,  
 C. F. Williams,  Q. Wu,  X. Xu,  W. Zhang

 Please cite Q-Chem as follows:
 Y. Shao et al., Mol. Phys. 113, 184-215 (2015)
 DOI: 10.1080/00268976.2014.952696

 Q-Chem 5.0.2 for Intel X86 EM64T Linux

 Parts of Q-Chem use Armadillo 5.200.1 (Boston Tea Smuggler).
 http://arma.sourceforge.net/

 Q-Chem begins on Wed Mar  2 21:11:30 2022  

Host: 
0

     Scratch files written to ./qcirc.d//
 Dec517 15110_ 26548  26544 5633   
Processing $rem in /home/leeping/opt/qchem/5.0.2-openmp/config/preferences.
 MEM_STATIC 2000
 MEM_TOTAL  8000
 SYMMETRY   OFF
 SYM_IGNORE TRUE 

Checking the input file for inconsistencies... 	...done.

--------------------------------------------------------------
User input:
--------------------------------------------------------------
$molecule
0 2
C        1.5197972723    0.2679143033    0.1122081882
C        1.1870102330   -1.1374552068    0.3507060664
C       -0.0079539064   -1.6444344037    0.6294488386
C       -1.5990127849    0.8172691087   -0.3878468129
C       -0.5546876547    1.4717469649    0.3387309112
N        0.7734714981    1.3237536714    0.2330192412
H        2.5662421942    0.4624892809   -0.1257781915
H        2.0505225258   -1.8138435431    0.3142704828
H       -0.4127654580   -2.6277561022    0.8294272597
H       -2.5973347047    1.2067128410   -0.1769633129
H       -0.8592750422    2.3241276856    0.9452679625
C       -1.4964069253   -0.1559784054   -1.3171286306
H       -0.7444871973   -0.7353822614   -1.8306126361
$end

$rem
method                b3lyp
basis                 6-31+g(d,p)
unrestricted          true
symmetry              off
sym_ignore            true
incdft                false
incfock               0
scf_convergence       8
thresh                14
jobtype               rpath
scf_guess             core
scf_guess_mix         5
scf_algorithm         diis
max_scf_cycles        100
rpath_direction       1
rpath_tol_displacement 1000
rpath_max_cycles      50
geom_opt_max_cycles   300
geom_opt_hessian      read
$end

--------------------------------------------------------------
 ----------------------------------------------------------------
             Standard Nuclear Orientation (Angstroms)
    I     Atom           X                Y                Z
 ----------------------------------------------------------------
    1      C       1.5197972723     0.2679143033     0.1122081882
    2      C       1.1870102330    -1.1374552068     0.3507060664
    3      C      -0.0079539064    -1.6444344037     0.6294488386
    4      C      -1.5990127849     0.8172691087    -0.3878468129
    5      C      -0.5546876547     1.4717469649     0.3387309112
    6      N       0.7734714981     1.3237536714     0.2330192412
    7      H       2.5662421942     0.4624892809    -0.1257781915
    8      H       2.0505225258    -1.8138435431     0.3142704828
    9      H      -0.4127654580    -2.6277561022     0.8294272597
   10      H      -2.5973347047     1.2067128410    -0.1769633129
   11      H      -0.8592750422     2.3241276856     0.9452679625
   12      C      -1.4964069253    -0.1559784054    -1.3171286306
   13      H      -0.7444871973    -0.7353822614    -1.8306126361
 ----------------------------------------------------------------
 Nuclear Repulsion Energy =   249.6492872609 hartrees
 There are       25 alpha and       24 beta electrons
 Requested basis set is 6-31+G(d,p)
 There are 53 shells and 163 basis functions

 Total QAlloc Memory Limit   8000 MB
 Mega-Array Size      1956 MB
 MEM_STATIC part      2000 MB
 Starting direction for rxn path = 1

                       Distance Matrix (Angstroms)
             C (  1)   C (  2)   C (  3)   C (  4)   C (  5)   N (  6)
   C (  2)  1.463794
   C (  3)  2.501727  1.327654
   C (  4)  3.206060  3.482575  3.102635
   C (  5)  2.409152  3.137131  3.177109  1.430689
   N (  6)  1.298612  2.498482  3.094822  2.504133  1.340554
   H (  7)  1.090662  2.165442  3.411155  4.188544  3.312789  2.021024
   H (  8)  2.157826  1.097489  2.089345  4.553551  4.193188  3.388507
   H (  9)  3.554449  2.238181  1.082028  3.841502  4.131204  4.168608
   H ( 10)  4.232699  4.482725  3.935001  1.092147  2.123344  3.397664
   H ( 11)  3.252997  4.064892  4.071115  2.143602  1.089593  2.043014
   C ( 12)  3.364547  3.308428  2.867082  1.349557  2.505633  3.121684
   H ( 13)  3.147720  2.941173  2.724107  2.285282  3.100564  3.286764
             H (  7)   H (  8)   H (  9)   H ( 10)   H ( 11)   C ( 12)
   H (  8)  2.375142
   H (  9)  4.397331  2.644925
   H ( 10)  5.217185  5.564858  4.526402
   H ( 11)  4.043143  5.097831  4.973323  2.351355
   C ( 12)  4.278661  4.241543  3.448429  2.090202  3.416914
   H ( 13)  3.911814  3.684519  3.281300  3.152671  4.132710  1.079240

 
 A cutoff of  1.0D-14 yielded   1366 shell pairs
 There are     13404 function pairs
 
 -------------------------------------------------------
 OpenMP Integral Computing Module                       
 Release: version 1.0, May 2013, Q-Chem Inc. Pittsburgh 
 -------------------------------------------------------
 Integral Job Info:
 Integral job number is                      11
 Integral operator is                         1
 short-range coefficients                     0
 long-range coefficients              100000000
 Omega coefficients                           0
 if combine SR and LR in K                    0
 Integral screening is                        0
 Integral computing path is                   2
 max size of driver memory is            800000
 size of driver memory is                593474
 size of scratch memory is              2361544
 max col of scratch BK array               1296
 max len of scratch array in speh3          155
 max len of scratch index in speh4           18
 max int batch size is                      520
 min int batch size is                       52
 fixed nKL is                                52
 max L of basis functions is                  2
 order of int derivative is                   0
 number of shells is                         53
 number of basis is                         163
 number of cartesian basis is               163
 number of contracted shell pairs          1366
 number of primitive shell pairs           4506
 maxK2 (contraction) of shell pair           36
 max number of K2 of shell pair               1
 max number of CS2 of shell pair            134
 max number of PS2 of shell pair            744
 mem total for path MDJ                  535308
 -------------------------------------------------------
 Smallest overlap matrix eigenvalue = 4.14E-05

 Scale SEOQF with 1.000000e-01/1.000000e-01/1.000000e-01

 Standard Electronic Orientation quadrupole field applied
 Nucleus-field energy     =     0.0000000056 hartrees
 Guess MOs from core Hamiltonian diagonalization
 Mixing HOMO and LUMO in initial guess
 Adding  50% of the LUMO to the HOMO
 An unrestricted hybrid HF-DFT SCF calculation will be
 performed using Pulay DIIS extrapolation
 Exchange:     0.2000 Hartree-Fock + 0.0800 Slater + 0.7200 B88
 Correlation:  0.1900 VWN1RPA + 0.8100 LYP
 Using SG-1 standard quadrature grid
 SCF converges when DIIS error is below 1.0E-08
 using 4 threads for integral computing
 -------------------------------------------------------
 OpenMP Integral computing Module                
 Release: version 1.0, May 2013, Q-Chem Inc. Pittsburgh 
 -------------------------------------------------------
 -------------------------------------------------------
 OpenMP BLAS3 based DFT computing Module                
 Release: version 1.0, May 2013, Q-Chem Inc. Pittsburgh 
 -------------------------------------------------------
 ---------------------------------------
  Cycle       Energy         DIIS Error
 ---------------------------------------
    1    -225.9414345242      1.01E-01
    2    -209.1087777333      8.43E-02
    3    -257.6571205417      6.47E-02
    4    -269.7028349334      5.55E-02
    5    -283.2667105717      2.69E-02
    6    -284.6099229957      1.68E-02
    7    -283.2332682437      2.31E-02
    8    -286.4396344881      7.21E-03
    9    -286.5997366005      5.29E-03
   10    -286.6817765453      2.55E-03
   11    -286.7058897783      2.10E-03
   12    -286.7287949123      8.03E-04
   13    -286.7350037209      7.88E-04
   14    -286.7386790775      6.75E-04
   15    -286.7417355685      5.95E-04
   16    -286.7468933897      1.93E-04
   17    -286.7476122799      7.65E-05
   18    -286.7476587556      3.70E-05
   19    -286.7477655343      2.29E-05
   20    -286.7477900221      2.90E-05
   21    -286.7478111732      1.84E-05
   22    -286.7478190962      2.76E-06
   23    -286.7478194919      1.43E-06
   24    -286.7478197863      9.50E-07
   25    -286.7478198275      3.28E-07
   26    -286.7478198321      3.20E-07
   27    -286.7478198342      5.48E-08
   28    -286.7478198346      5.93E-08
   29    -286.7478198348      4.92E-08
   30    -286.7478198349      6.03E-09 Convergence criterion met
 ---------------------------------------
 <S^2> = 1.7360
 SCF time:  CPU 146.35 s  wall 48.39 s
 SCF   energy in the final basis set = -286.74781983
 Total energy in the final basis set = -286.74781983
 
 --------------------------------------------------------------
 
                    Orbital Energies (a.u.)
 --------------------------------------------------------------
 
 Alpha MOs
 -- Occupied --
-14.360 -10.249 -10.244 -10.229 -10.229 -10.218 -10.217  -0.945
 -0.806  -0.789  -0.707  -0.639  -0.590  -0.527  -0.508  -0.483
 -0.473  -0.437  -0.413  -0.365  -0.330  -0.289  -0.278  -0.241
 -0.233
 -- Virtual --
 -0.117  -0.044   0.004   0.015   0.024   0.031   0.032   0.046
  0.049   0.064   0.072   0.081   0.083   0.093   0.102   0.113
  0.115   0.122   0.135   0.139   0.149   0.151   0.163   0.173
  0.182   0.190   0.200   0.200   0.209   0.223   0.234   0.240
  0.254   0.255   0.281   0.284   0.303   0.323   0.327   0.347
  0.377   0.404   0.445   0.522   0.591   0.624   0.635   0.668
  0.685   0.706   0.716   0.725   0.744   0.752   0.761   0.766
  0.773   0.875   0.908   0.911   0.927   0.934   0.942   0.953
  1.004   1.019   1.035   1.070   1.071   1.083   1.123   1.152
  1.182   1.184   1.191   1.249   1.305   1.345   1.363   1.398
  1.414   1.448   1.508   1.570   1.617   1.652   1.684   1.740
  1.776   1.814   1.838   1.889   1.900   1.946   1.973   2.000
  2.008   2.039   2.104   2.143   2.188   2.214   2.285   2.332
  2.374   2.386   2.410   2.411   2.434   2.449   2.466   2.510
  2.531   2.589   2.606   2.657   2.679   2.701   2.709   2.767
  2.808   2.889   3.100   3.184   3.215   3.267   3.297   3.395
  3.441   3.626   3.716   4.187   4.283   4.332   4.366   4.401
  4.583   4.680
 
 Beta MOs
 -- Occupied --
-14.361 -10.252 -10.249 -10.218 -10.218 -10.216 -10.215  -0.951
 -0.804  -0.776  -0.704  -0.630  -0.579  -0.522  -0.501  -0.478
 -0.462  -0.432  -0.411  -0.376  -0.339  -0.287  -0.270  -0.186
 -- Virtual --
 -0.099  -0.086  -0.052   0.006   0.016   0.021   0.027   0.034
  0.046   0.050   0.066   0.073   0.076   0.087   0.092   0.108
  0.113   0.116   0.123   0.135   0.139   0.149   0.152   0.162
  0.175   0.184   0.193   0.201   0.204   0.214   0.224   0.233
  0.242   0.255   0.256   0.280   0.286   0.305   0.323   0.329
  0.350   0.384   0.407   0.460   0.531   0.603   0.638   0.638
  0.669   0.690   0.705   0.719   0.736   0.739   0.748   0.763
  0.778   0.784   0.882   0.913   0.920   0.929   0.940   0.947
  0.959   1.012   1.023   1.040   1.071   1.086   1.087   1.125
  1.153   1.181   1.183   1.199   1.250   1.303   1.345   1.360
  1.395   1.413   1.450   1.516   1.567   1.651   1.690   1.712
  1.763   1.790   1.819   1.848   1.898   1.908   1.954   1.981
  2.002   2.008   2.042   2.106   2.147   2.195   2.217   2.293
  2.334   2.377   2.387   2.414   2.417   2.437   2.455   2.467
  2.508   2.529   2.588   2.609   2.675   2.685   2.716   2.719
  2.776   2.807   2.894   3.106   3.185   3.215   3.276   3.302
  3.401   3.448   3.639   3.725   4.183   4.293   4.331   4.378
  4.417   4.589   4.682
 --------------------------------------------------------------
 
          Ground-State Mulliken Net Atomic Charges

     Atom                 Charge (a.u.)    Spin (a.u.)
  --------------------------------------------------------
      1 C                    -0.193564      -0.231132
      2 C                     0.058277      -0.121715
      3 C                    -0.293204       0.899486
      4 C                     0.060042       0.121186
      5 C                    -0.173312      -0.468884
      6 N                    -0.108430      -0.014811
      7 H                     0.130123       0.015142
      8 H                     0.144287       0.077823
      9 H                     0.155879       0.013588
     10 H                     0.145406       0.033219
     11 H                     0.136265       0.030955
     12 C                    -0.227378       0.619738
     13 H                     0.165610       0.025406
  --------------------------------------------------------
  Sum of atomic charges =    -0.000000
  Sum of spin   charges =     1.000000

 -----------------------------------------------------------------
                    Cartesian Multipole Moments
 -----------------------------------------------------------------
    Charge (ESU x 10^10)
                 0.0000
    Dipole Moment (Debye)
         X       0.3729      Y      -1.2075      Z       0.1165
       Tot       1.2691
    Quadrupole Moments (Debye-Ang)
        XX     -40.2123     XY      -4.3214     YY     -40.5577
        XZ      -2.2434     YZ       0.8533     ZZ     -44.3853
    Octopole Moments (Debye-Ang^2)
       XXX      13.4462    XXY      -1.7035    XYY      -4.9950
       YYY     -23.5254    XXZ       3.7136    XYZ      -1.6036
       YYZ       6.5464    XZZ       2.4772    YZZ      -4.8727
       ZZZ      -0.4701
    Hexadecapole Moments (Debye-Ang^3)
      XXXX    -413.7286   XXXY      20.1161   XXYY    -138.6796
      XYYY      27.7886   YYYY    -387.5989   XXXZ     -66.8825
      XXYZ       1.4407   XYYZ     -26.1726   YYYZ       7.6658
      XXZZ    -112.8830   XYZZ      15.2081   YYZZ     -95.8577
      XZZZ     -62.8858   YZZZ      18.8657   ZZZZ    -170.0494
 -----------------------------------------------------------------
 Calculating analytic gradient of the SCF energy
 Gradient of SCF Energy
            1           2           3           4           5           6
    1  -0.0033504   0.0007847   0.0008361   0.0043001  -0.0159366   0.0119378
    2   0.0028543  -0.0010964   0.0016804   0.0100267  -0.0068885  -0.0014830
    3   0.0026888  -0.0005683  -0.0016305   0.0164060  -0.0012934  -0.0053328
            7           8           9          10          11          12
    1   0.0003697   0.0001630  -0.0001952  -0.0000071   0.0002927   0.0019201
    2  -0.0000164  -0.0001779  -0.0001874   0.0009013   0.0011041  -0.0037691
    3   0.0005827   0.0008836  -0.0006154  -0.0007592  -0.0010340  -0.0114662
           13
    1  -0.0011148
    2  -0.0029480
    3   0.0021386
 Max gradient component =       1.641E-02
 RMS gradient           =       5.235E-03
 Gradient time:  CPU 16.00 s  wall 4.16 s
rPathMan2.  file_steps = 951
 ------------------------------------------------------------------------
 Reaction path following.  The coordinates are cartesian              
 Step   1 E=    -286.747820 |G|=  0.032692 S_lin= 0.0000 S_tot= 0.0000
 ------------------------------------------------------------------------
 IRC -- initial gradient exceeds tolerance:   1.000000000000000E-003
 IRC -- initial geometry is not a stationary point

 Q-Chem fatal error occurred in module 0, line   42:

 Bad initial gradient

