13   
From optimize.out: Frame 1 / 2, Energy=    -286.8516702428
C        1.1184279548    0.2253674243    0.4756302396
C        0.8712261597   -0.9806072958   -0.4429640738
C       -0.4497211412   -1.0235322974   -0.6802608896
C       -1.0764552804    0.1564588221    0.0909574608
C       -0.4450241850    1.4279370346   -0.5118170543
N        0.8139983116    1.4908555697   -0.3135919152
H        2.0889981005    0.2828095116    0.9660837992
H        1.6435544508   -1.6346689070   -0.8326628757
H       -0.9977524283   -1.7136227493   -1.3124711005
H       -2.1579967911    0.1432016864    0.2262937224
H       -0.9878583205    2.1892739038   -1.0695322310
C       -0.1489888581    0.0891851952    1.3085406563
H       -0.2724079727   -0.6526578981    2.0957942617
13   
From optimize.out: Frame 31 / 32, Energy=    -286.8516702428
C        1.1220191324    0.2378429504    0.4603037334
C        0.8642979093   -0.9713113383   -0.4672139540
C       -0.4559374553   -1.0038048294   -0.7031717827
C       -1.0722302673    0.1628202032    0.0802385596
C       -0.4526097244    1.4435947416   -0.5044920761
N        0.8076655789    1.5131998438   -0.3085893004
H        2.1003758172    0.2894585534    0.9355743237
H        1.6547253321   -1.6721815976   -0.7074759392
H       -1.0231786696   -1.7117439403   -1.2995588533
H       -2.1463399049    0.1280865763    0.2379910465
H       -0.9978287139    2.2047668461   -1.0605597017
C       -0.1354274474    0.0780127583    1.2924178286
H       -0.2655315871   -0.6987407675    2.0445361156
13   
From optimize.out: Frame 30 / 32, Energy=    -286.8516659187
C        1.1271449774    0.2504306816    0.4526963826
C        0.8604132542   -0.9869328364   -0.4438188812
C       -0.4538089692   -0.9739896209   -0.7117626832
C       -1.0627750642    0.1725958310    0.0804049739
C       -0.4595504922    1.4495684297   -0.5144086281
N        0.8057099912    1.5136265351   -0.3344131679
H        2.1136797920    0.3152938044    0.9100326613
H        1.6283814185   -1.7312883349   -0.6181621940
H       -1.0374771052   -1.6654290991   -1.3142894702
H       -2.1294175108    0.0507868972    0.2175740521
H       -1.0143702549    2.2383705019   -1.0192699819
C       -0.1230407531    0.0887623655    1.2896176306
H       -0.2548892837   -0.7217951552    2.0057993062
13   
From optimize.out: Frame 29 / 32, Energy=    -286.8516533176
C        1.1318932963    0.2669697592    0.4347937846
C        0.8479854502   -1.0007596723   -0.4081902235
C       -0.4551925698   -0.9497147335   -0.7198952331
C       -1.0518401927    0.1851723813    0.0855307011
C       -0.4707582906    1.4548030406   -0.5316904893
N        0.7960880688    1.5179503931   -0.3458163700
H        2.1130220039    0.3298284317    0.9039260814
H        1.5829296811   -1.7876692368   -0.5393331032
H       -1.0464554467   -1.6203362738   -1.3377206781
H       -2.1054766498   -0.0347776382    0.1835193549
H       -1.0256101381    2.2728008004   -0.9867120884
C       -0.1036171440    0.1038450345    1.2885693238
H       -0.2129680687   -0.7381122863    1.9730189400
13   
From optimize.out: Frame 28 / 32, Energy=    -286.8516384524
C        1.1436610418    0.2827162950    0.4049498781
C        0.8298091806   -1.0121323566   -0.3662149482
C       -0.4588491062   -0.9334321132   -0.7293172675
C       -1.0408685089    0.1924840258    0.0837971654
C       -0.4834572735    1.4617522115   -0.5463433923
N        0.7811429647    1.5246182665   -0.3491991983
H        2.1181678194    0.3427668800    0.8865821096
H        1.5329576505   -1.8349186397   -0.4541407975
H       -1.0518217486   -1.5845532106   -1.3628681052
H       -2.0773391841   -0.1103089044    0.1387291126
H       -1.0324406814    2.3102441112   -0.9476402759
C       -0.0951136090    0.1124774727    1.2891403196
H       -0.1658485453   -0.7517140381    1.9525253997
13   
From optimize.out: Frame 26 / 32, Energy=    -286.8515903915
C        1.1646991289    0.2910097889    0.3571621643
C        0.8087605033   -1.0212320551   -0.3303500942
C       -0.4650484382   -0.9268276772   -0.7407502063
C       -1.0251498653    0.1918033405    0.0707222644
C       -0.4951298580    1.4722907506   -0.5583497641
N        0.7600437534    1.5373415041   -0.3279886845
H        2.1182354760    0.3511300486    0.8755204411
H        1.4812570777   -1.8743009641   -0.3792891984
H       -1.0608392465   -1.5611903098   -1.3831020430
H       -2.0433151304   -0.1798656300    0.0847476103
H       -1.0353994194    2.3473723580   -0.9092185247
C       -0.1008520081    0.1225757668    1.2906338024
H       -0.1072619734   -0.7501069213    1.9502622328
13   
From optimize.out: Frame 25 / 32, Energy=    -286.8515522778
C        1.2129976963    0.2902524432    0.2902595099
C        0.7971347550   -1.0179250097   -0.3195215815
C       -0.4709480358   -0.9209731274   -0.7468892099
C       -1.0038840697    0.1767356158    0.0563866999
C       -0.4972423620    1.4758167129   -0.5596767258
N        0.7466055624    1.5433888543   -0.2825599652
H        2.1443703883    0.3514919208    0.8430334693
H        1.4484944072   -1.8904210017   -0.3497958007
H       -1.0788287271   -1.5407836322   -1.3892115429
H       -2.0001811539   -0.2576942124    0.0353952249
H       -1.0321436769    2.3647354218   -0.8805593003
C       -0.1540689391    0.1465606211    1.3170929475
H       -0.1123058447   -0.7211846064    1.9860462749
13   
From optimize.out: Frame 24 / 32, Energy=    -286.8514913957
C        1.2612469296    0.2909780626    0.2401860677
C        0.7953544910   -1.0063327482   -0.3252001547
C       -0.4742710336   -0.9130172192   -0.7476176347
C       -0.9860744347    0.1555250522    0.0525882791
C       -0.4914460966    1.4692652009   -0.5523621689
N        0.7515154592    1.5413403432   -0.2550732069
H        2.1908505446    0.3490452831    0.7951879864
H        1.4399120900   -1.8862529866   -0.3566799832
H       -1.0961093845   -1.5208437113   -1.3898463727
H       -1.9635414699   -0.3228579755    0.0083903905
H       -1.0265803842    2.3613824414   -0.8631642927
C       -0.2236680570    0.1702584027    1.3553495734
H       -0.1771886537   -0.6884901453    2.0382415166
13   
From optimize.out: Frame 23 / 32, Energy=    -286.8513689522
C        1.2995688382    0.2912090826    0.2028490901
C        0.7939886968   -0.9939484093   -0.3397731948
C       -0.4771178676   -0.9067748896   -0.7507702360
C       -0.9682437199    0.1288213313    0.0505869868
C       -0.4831479258    1.4571215982   -0.5411464063
N        0.7646421399    1.5383369535   -0.2286592104
H        2.2327441189    0.3409160341    0.7536568872
H        1.4374449486   -1.8770012724   -0.3796880162
H       -1.1140433847   -1.5032700188   -1.3941795585
H       -1.9276753694   -0.3856511150   -0.0114901136
H       -1.0210511127    2.3496124030   -0.8453317441
C       -0.2911893409    0.1986301425    1.3864927872
H       -0.2459200214   -0.6380018400    2.0974527286
13   
From optimize.out: Frame 22 / 32, Energy=    -286.8510674103
C        1.3330933525    0.2887894800    0.1775725098
C        0.7924145391   -0.9833260949   -0.3577083016
C       -0.4794232412   -0.9078550205   -0.7549271563
C       -0.9599974643    0.1020368431    0.0481197760
C       -0.4779711840    1.4430478933   -0.5219929742
N        0.7884148677    1.5316652152   -0.1985795360
H        2.2730653255    0.3271604890    0.7199648227
H        1.4412519933   -1.8647010591   -0.4079020790
H       -1.1298132148   -1.4976966031   -1.3999729986
H       -1.9016366842   -0.4414110499   -0.0266189272
H       -1.0178949725    2.3369284866   -0.8189225586
C       -0.3560222398    0.2356360722    1.3990252272
H       -0.3054810773   -0.5702746519    2.1419421959
13   
From optimize.out: Frame 21 / 32, Energy=    -286.8505429162
C        1.3541340671    0.2787321415    0.1580326935
C        0.8082678727   -1.0024052470   -0.3725673970
C       -0.4570704741   -0.9732838796   -0.7617271778
C       -0.9981059349    0.1258280699    0.0534538430
C       -0.4902044952    1.4647123428   -0.4958301436
N        0.7997170142    1.5248352425   -0.1733094210
H        2.3008776778    0.3199680494    0.6930973607
H        1.4795639733   -1.8684425693   -0.4245801495
H       -1.1152359099   -1.5780292523   -1.4038993870
H       -1.9386272963   -0.4181884095   -0.0152801061
H       -1.0101053437    2.3773228357   -0.7675526435
C       -0.3913839065    0.2792816610    1.3886369285
H       -0.3418272445   -0.5303309850    2.1215255997
13   
From optimize.out: Frame 20 / 32, Energy=    -286.8502541159
C        1.3724766632    0.2686611375    0.1404131999
C        0.8246743147   -1.0229885720   -0.3860612491
C       -0.4339314941   -1.0402429461   -0.7682952396
C       -1.0379494922    0.1528084262    0.0591623933
C       -0.5032388977    1.4882884809   -0.4708773578
N        0.8089807387    1.5184868854   -0.1503170650
H        2.3254982558    0.3139367065    0.6687889205
H        1.5184604922   -1.8734747153   -0.4389416913
H       -1.0987718522   -1.6608997894   -1.4073620656
H       -1.9790438560   -0.3890077263   -0.0022039673
H       -1.0024179031    2.4199648200   -0.7174590987
C       -0.4213790115    0.3204321327    1.3768211259
H       -0.3733579578   -0.4959648402    2.0963320947
13   
From optimize.out: Frame 19 / 32, Energy=    -286.8496385584
C        1.3908191059    0.2585902179    0.1227938538
C        0.8410806193   -1.0435717247   -0.3995549883
C       -0.4107927078   -1.1072014520   -0.7748632464
C       -1.0777927161    0.1797885568    0.0648708958
C       -0.5162731912    1.5118644216   -0.4459247808
N        0.8182443857    1.5121385814   -0.1273249015
H        2.3501186277    0.3079054141    0.6444806838
H        1.5573566856   -1.8785068192   -0.4533031129
H       -1.0823079324   -1.7437696328   -1.4108247151
H       -2.0194600773   -0.3598272874    0.0108720621
H       -0.9947305268    2.4626064475   -0.6673659733
C       -0.4513738654    0.3615822600    1.3650054222
H       -0.4048884071   -0.4615989831    2.0711388006
13   
From optimize.out: Frame 17 / 32, Energy=    -286.8470835831
C        1.4091613987    0.2485193805    0.1051746517
C        0.8574867899   -1.0641547092   -0.4130486173
C       -0.3876541105   -1.1741594109   -0.7814311996
C       -1.1176356144    0.2067684669    0.0705793516
C       -0.5293073781    1.5354401697   -0.4209724077
N        0.8275079570    1.5057903294   -0.1043329259
H        2.3747387984    0.3018741709    0.6201726456
H        1.5962525612   -1.8835388820   -0.4676644172
H       -1.0658441471   -1.8266387991   -1.4142873363
H       -2.0598759685   -0.3306470869    0.0239479847
H       -0.9870432133    2.5052477265   -0.6172732571
C       -0.4813684743    0.4027320510    1.3531898150
H       -0.4364185989   -0.4272334068    2.0459457124
13   
From optimize.out: Frame 16 / 32, Energy=    -286.8434942910
C        1.4261430864    0.2392306067    0.0885056349
C        0.8742321998   -1.0846537932   -0.4240084413
C       -0.3646838532   -1.2390016131   -0.7835203864
C       -1.1575221153    0.2350816330    0.0739112835
C       -0.5424108117    1.5602963699   -0.3972962616
N        0.8350566310    1.5000618264   -0.0837735649
H        2.3979849389    0.2977043608    0.5961607006
H        1.6344710874   -1.8888092472   -0.4798876567
H       -1.0494458224   -1.9076950974   -1.4114678968
H       -2.1011585807   -0.2987532105    0.0341898829
H       -0.9790905016    2.5484947071   -0.5675472130
C       -0.5084622558    0.4382450308    1.3390020487
H       -0.4651140027   -0.4002015732    2.0157318701
13   
From optimize.out: Frame 15 / 32, Energy=    -286.8395022287
C        1.4335052184    0.2354682122    0.0785835696
C        0.8932491805   -1.1044420623   -0.4171790854
C       -0.3430299728   -1.2886528606   -0.7542698483
C       -1.1974723895    0.2725491446    0.0606002777
C       -0.5559193547    1.5939584810   -0.3826899666
N        0.8305646679    1.4987028508   -0.0803536536
H        2.4114797368    0.3065797100    0.5743650118
H        1.6677207172   -1.8957145656   -0.4770821117
H       -1.0336045345   -1.9755809676   -1.3647251284
H       -2.1482538923   -0.2480711840    0.0245470338
H       -0.9693295336    2.5957167850   -0.5206865973
C       -0.5151021208    0.4341161205    1.3083078237
H       -0.4738077226   -0.4246296641    1.9505826747
13   
From optimize.out: Frame 14 / 32, Energy=    -286.8333497502
C        1.4392859728    0.2325992188    0.0699243817
C        0.9119690311   -1.1234917447   -0.4080858247
C       -0.3222595288   -1.3345783387   -0.7215872272
C       -1.2361408764    0.3100847251    0.0453948643
C       -0.5690480502    1.6277629395   -0.3698223150
N        0.8245361608    1.4979980549   -0.0794380302
H        2.4231766197    0.3169902845    0.5535830234
H        1.6992021478   -1.9026251377   -0.4722681961
H       -1.0183528385   -2.0394341519   -1.3133579055
H       -2.1946395077   -0.1964025016    0.0124384973
H       -0.9596313662    2.6419684207   -0.4757401351
C       -0.5186707506    0.4245839791    1.2762998613
H       -0.4794270138   -0.4554557480    1.8826590059
13   
From optimize.out: Frame 13 / 32, Energy=    -286.8250877856
C        1.4450666854    0.2297302462    0.0612652564
C        0.9306887463   -1.1425412893   -0.3989926298
C       -0.3014892350   -1.3805034846   -0.6889048425
C       -1.2748090835    0.3476200340    0.0301895608
C       -0.5821766508    1.6615671534   -0.3569547565
N        0.8185076974    1.4972932641   -0.0785224135
H        2.4348734181    0.3274007836    0.5328011853
H        1.7306833506   -1.9095356599   -0.4674543153
H       -1.0031012528   -2.1032868743   -1.2619910541
H       -2.2410247876   -0.1447341930    0.0003300483
H       -0.9499332690    2.6882197219   -0.4307939980
C       -0.5222393547    0.4150519067    1.2442921304
H       -0.4850462645   -0.4862816088    1.8147358284
13   
From optimize.out: Frame 12 / 32, Energy=    -286.8137932098
C        1.4508473454    0.2268612997    0.0526062100
C        0.9494082911   -1.1615906605   -0.3898995177
C       -0.2807191302   -1.4264282126   -0.6562227552
C       -1.3134769386    0.3851550013    0.0149843958
C       -0.5953051319    1.6953710597   -0.3440873151
N        0.8124792888    1.4965884797   -0.0776068051
H        2.4465701100    0.3378111880    0.5120195364
H        1.7621642669   -1.9164461191   -0.4626404784
H       -0.9878498059   -2.1671390155   -1.2106246703
H       -2.2874096454   -0.0930663547   -0.0117782904
H       -0.9402352600    2.7344706021   -0.3858482701
C       -0.5258079262    0.4055199211    1.2122846909
H       -0.4906654639   -0.5171071891    1.7468132691
13   
From optimize.out: Frame 11 / 32, Energy=    -286.7983505817
C        1.4528657369    0.2227222991    0.0465615855
C        0.9664095835   -1.1790205169   -0.3865682401
C       -0.2605307799   -1.4674818794   -0.6321344772
C       -1.3439202709    0.4196764106    0.0038417993
C       -0.6064770640    1.7278768950   -0.3343197267
N        0.8060086195    1.4965171258   -0.0769053682
H        2.4527271123    0.3431363432    0.4970956978
H        1.7903105751   -1.9223229942   -0.4704327027
H       -0.9685205793   -2.2317685713   -1.1647308731
H       -2.3254155093   -0.0472877433   -0.0148603494
H       -0.9302429460    2.7785426750   -0.3501083918
C       -0.5328019821    0.3978225988    1.1879833278
H       -0.5004124959   -0.5384126423    1.6945777189
13   
From optimize.out: Frame 10 / 32, Energy=    -286.7775993996
C        1.4299195362    0.2104268682    0.0569489413
C        0.9721524644   -1.1848881932   -0.4204681116
C       -0.2472617668   -1.4756413737   -0.6647986647
C       -1.3199889089    0.4331963164    0.0194439552
C       -0.6038571833    1.7498027950   -0.3451872878
N        0.7965664683    1.5005411270   -0.0786842791
H        2.4218551009    0.3147497780    0.5178154048
H        1.7942815127   -1.9196802421   -0.5587581450
H       -0.9191536387   -2.2933738559   -1.1533807146
H       -2.3079632466   -0.0393022509    0.0379077368
H       -0.9188742146    2.8039786691   -0.3763086507
C       -0.5616294413    0.4016142196    1.2138614038
H       -0.5360466821   -0.5014238574    1.7516084115
13   
From optimize.out: Frame 9 / 32, Energy=    -286.7516018322
C        1.4080663572    0.2051199115    0.0673467729
C        0.9710330458   -1.1789969821   -0.4456633315
C       -0.2517182482   -1.4634168606   -0.6924709920
C       -1.2853761377    0.4310821056    0.0315456552
C       -0.5939547937    1.7559948974   -0.3612897188
N        0.7909247868    1.5077626236   -0.0858946227
H        2.3913523109    0.2911794137    0.5334641545
H        1.7812630234   -1.9084872573   -0.6279703737
H       -0.8778728082   -2.3071415579   -1.1364003462
H       -2.2772923922   -0.0438146208    0.0705499097
H       -0.9118560894    2.8040683709   -0.4157122313
C       -0.5821273682    0.3940526425    1.2383965133
H       -0.5624416865   -0.4874026863    1.8240986107
13   
From optimize.out: Frame 7 / 32, Energy=    -286.6846056614
C        1.4029444874    0.2228261059    0.0783890631
C        0.9503133272   -1.1483752264   -0.4352586919
C       -0.2815715613   -1.4045358432   -0.6846060752
C       -1.2401944153    0.3946413145    0.0242944455
C       -0.5750727138    1.7306696285   -0.3827991909
N        0.8000503847    1.5223710350   -0.0976499299
H        2.3831156690    0.2979311575    0.5476751417
H        1.7430329396   -1.8909880874   -0.6224918066
H       -0.9082526852   -2.2389779351   -1.1152012890
H       -2.2278590494   -0.0883496692    0.0519179866
H       -0.9159820440    2.7658540684   -0.4609585025
C       -0.5725524289    0.3573445715    1.2469998757
H       -0.5579719099   -0.5204111200    1.8496889735
13   
From optimize.out: Frame 2 / 32, Energy=    -286.6499739995
C        1.4032430469    0.2432110056    0.0878841532
C        0.9281573158   -1.1171630200   -0.4177203241
C       -0.3115989426   -1.3443143986   -0.6690906267
C       -1.2004385595    0.3561190399    0.0133864892
C       -0.5576019865    1.7022808905   -0.4017352247
N        0.8114251887    1.5362104246   -0.1080042310
H        2.3822502308    0.3112893344    0.5599535151
H        1.7057319780   -1.8756525353   -0.5992977245
H       -0.9527770131   -2.1642616895   -1.0976358556
H       -2.1826285548   -0.1359267299    0.0247187550
H       -0.9220718409    2.7258613211   -0.4991604959
C       -0.5571412680    0.3201683053    1.2501629384
H       -0.5465495948   -0.5578219481    1.8565386316
13   
From optimize.out: Frame 1 / 32, Energy=    -286.5828947097
C        1.4035416262    0.2635972598    0.0973798742
C        0.9059998322   -1.0859487396   -0.4001807909
C       -0.3416283193   -1.2840889524   -0.6535741472
C       -1.1606800620    0.3175942055    0.0024778082
C       -0.5401300983    1.6738902662   -0.4206725167
N        0.8228007486    1.5500507338   -0.1183592201
H        2.3813847351    0.3246483989    0.5722327042
H        1.6684285379   -1.8603159641   -0.5761021012
H       -0.9973042996   -2.0895404792   -1.0800692550
H       -2.1373950548   -0.1835069519   -0.0024822840
H       -0.9281620424    2.6858659164   -0.5373650277
C       -0.5417290829    0.2829895688    1.2533262113
H       -0.5351265207   -0.5952352621    1.8633887448
13   
C5H5N+CH->C6H6N atoms 1-13 frame 123 charge -0.000 sz -1.000 sz^2 1.871
C        1.4038402257    0.2839848930    0.1068762376
C        0.8838408497   -1.0547323478   -0.3826400712
C       -0.3716597273   -1.2238594322   -0.6380566181
C       -1.1209188750    0.2790667651   -0.0084316108
C       -0.5226570283    1.6454977213   -0.4396110897
N        0.8341770780    1.5638919792   -0.1287149096
H        2.3805191808    0.3380083671    0.5845127241
H        1.6311225745   -1.8449783555   -0.5529049088
H       -1.0418345981   -2.0148142143   -1.0625014661
H       -2.0921584948   -0.2310903926   -0.0296851630
H       -0.9342526559    2.6458678061   -0.5755721439
C       -0.5263158554    0.2458083174    1.2564896981
H       -0.5237026739   -0.6326511069    1.8702393213
13   
C5H5N+CH->C6H6N atoms 1-13 frame 124 charge -0.000 sz -1.000 sz^2 1.970
C        1.4029715880    0.3028875097    0.1158178197
C        0.8638216610   -1.0237968294   -0.3684274024
C       -0.3984851192   -1.1604833190   -0.6304998967
C       -1.0834300076    0.2397216932   -0.0125558691
C       -0.5046721990    1.6118630815   -0.4605268128
N        0.8440159830    1.5742174477   -0.1430426970
H        2.3769143934    0.3508470210    0.5989458565
H        1.5955904027   -1.8299131505   -0.5315153528
H       -1.0819041809   -1.9349881525   -1.0563076245
H       -2.0521888422   -0.2735798315   -0.0464643309
H       -0.9389863153    2.5994729392   -0.6185534377
C       -0.5097618903    0.2100165319    1.2661179344
H       -0.5138854735   -0.6662649414    1.8870118132
13   
C5H5N+CH->C6H6N atoms 1-13 frame 125 charge -0.000 sz -1.000 sz^2 2.059
C        1.3989354037    0.3149941575    0.1219606379
C        0.8525970490   -0.9979292388   -0.3655534016
C       -0.4125718627   -1.0970062440   -0.6464102639
C       -1.0575241637    0.2035131218    0.0030011027
C       -0.4877323451    1.5681135535   -0.4841197790
N        0.8481643614    1.5732129036   -0.1665774671
H        2.3660926541    0.3604424055    0.6174480626
H        1.5699665908   -1.8176979535   -0.5181742734
H       -1.1038701307   -1.8518339412   -1.0830058876
H       -2.0325797226   -0.2958473831   -0.0315644090
H       -0.9392435576    2.5414750647   -0.6690395150
C       -0.4922835072    0.1830865080    1.2926236556
H       -0.5099507694   -0.6845229539    1.9294115379
13   
C5H5N+CH->C6H6N atoms 1-13 frame 126 charge -0.000 sz -1.000 sz^2 2.124
C        1.3936633937    0.3240805830    0.1268391017
C        0.8452019812   -0.9746129314   -0.3674108072
C       -0.4211502051   -1.0346146936   -0.6717248375
C       -1.0368595811    0.1692422106    0.0264058310
C       -0.4715246468    1.5209656916   -0.5083989026
N        0.8498901412    1.5675493994   -0.1934947716
H        2.3524840722    0.3685286436    0.6373013449
H        1.5488877650   -1.8068760942   -0.5083923465
H       -1.1179732074   -1.7687825554   -1.1228072447
H       -2.0217232269   -0.3093723337   -0.0038525907
H       -0.9376484582    2.4797176072   -0.7217269034
C       -0.4747339170    0.1602926508    1.3256253811
H       -0.5085141108   -0.6961181778    1.9816367456
13   
C5H5N+CH->C6H6N atoms 1-13 frame 127 charge -0.000 sz -1.000 sz^2 2.176
C        1.3883913582    0.3331670525    0.1317175890
C        0.8378068777   -0.9512965114   -0.3692682218
C       -0.4297285890   -0.9722228415   -0.6970395334
C       -1.0161948987    0.1349711337    0.0498106724
C       -0.4553168701    1.4738176018   -0.5326781436
N        0.8516159293    1.5618858678   -0.2204122062
H        2.3388754245    0.3766149208    0.6571547231
H        1.5278088373   -1.7960541826   -0.4986103723
H       -1.1320763522   -1.6857307682   -1.1626087943
H       -2.0108666788   -0.3228973497    0.0238593615
H       -0.9360533510    2.4179598512   -0.7744145464
C       -0.4571842420    0.1374986834    1.3586272662
H       -0.5070774452   -0.7077134577    2.0338622058
13   
From optimize.out: Frame 2 / 49, Energy=    -286.6926806513
C        1.3895890814    0.3379910109    0.1175909161
C        0.8505943816   -0.9405383121   -0.3825543474
C       -0.4213693469   -0.9530468799   -0.7204132821
C       -1.0227446296    0.1311250476    0.0852137688
C       -0.4430786247    1.4434251825   -0.5411696619
N        0.8510432160    1.5508274321   -0.2531291423
H        2.3391595933    0.3882487051    0.6428580402
H        1.5420028773   -1.7834102490   -0.5073672428
H       -1.1133951858   -1.6640652283   -1.1916021177
H       -2.0342246643   -0.2795180789    0.0611778069
H       -0.9243037991    2.3815383370   -0.8006932851
C       -0.4637514564    0.1127729685    1.4023181004
H       -0.5495214428   -0.7253499354    2.0877704467
13   
From optimize.out: Frame 3 / 49, Energy=    -286.7153962145
C        1.3954283266    0.3388581857    0.0915282337
C        0.8764119518   -0.9408845078   -0.4022510028
C       -0.4016951709   -0.9692263452   -0.7385943467
C       -1.0485764276    0.1506241368    0.1239114406
C       -0.4357654880    1.4304168025   -0.5365070978
N        0.8488450863    1.5375093846   -0.2849399222
H        2.3497770433    0.4006698562    0.6053384037
H        1.5802751861   -1.7714297397   -0.5285715859
H       -1.0732134216   -1.6917281217   -1.2078785338
H       -2.0794028442   -0.2005738521    0.0996973438
H       -0.9068496313    2.3698764709   -0.8030351241
C       -0.4872838984    0.0905632789    1.4469983199
H       -0.6179507123   -0.7446755491    2.1343038714
13   
From optimize.out: Frame 4 / 49, Energy=    -286.7315087657
C        1.4015186518    0.3393346100    0.0651538532
C        0.9026494247   -0.9422432705   -0.4219427646
C       -0.3815733724   -0.9881739072   -0.7557473496
C       -1.0754036866    0.1716844722    0.1617426941
C       -0.4291271925    1.4194032725   -0.5307736283
N        0.8465636650    1.5243858054   -0.3157054866
H        2.3610254886    0.4127880187    0.5668135948
H        1.6196087110   -1.7598725566   -0.5502816294
H       -1.0322656473   -1.7230992491   -1.2224912745
H       -2.1252254221   -0.1207397862    0.1371629779
H       -0.8893975949    2.3608482510   -0.8031008872
C       -0.5116678704    0.0692568510    1.4904188770
H       -0.6867051549   -0.7635725111    2.1787510231
13   
From optimize.out: Frame 5 / 49, Energy=    -286.7673366093
C        1.4103264336    0.3442846039    0.0417036008
C        0.9285990852   -0.9418923570   -0.4275022335
C       -0.3646910038   -1.0070740842   -0.7374759365
C       -1.1021077592    0.1939374347    0.1763155266
C       -0.4244511489    1.4195099612   -0.5250598211
N        0.8427438755    1.5168027252   -0.3414509145
H        2.3783342307    0.4317274534    0.5222291216
H        1.6565504479   -1.7471698012   -0.5633291751
H       -0.9998789859   -1.7572098509   -1.1878603250
H       -2.1688706713   -0.0388290649    0.1490825480
H       -0.8728123671    2.3667008387   -0.7900277930
C       -0.5333857771    0.0294153357    1.5043752731
H       -0.7503563597   -0.8102031946    2.1790001287
13   
From optimize.out: Frame 7 / 49, Energy=    -286.7978380619
C        1.4185721803    0.3533952205    0.0351849530
C        0.9402914721   -0.9391307636   -0.4086292559
C       -0.3617214351   -1.0158366143   -0.6751138688
C       -1.1144029027    0.2061511503    0.1477900542
C       -0.4252467342    1.4364551344   -0.5224188856
N        0.8386210965    1.5216760174   -0.3458578652
H        2.3956324719    0.4509441043    0.4921823262
H        1.6701842318   -1.7394916383   -0.5562667896
H       -0.9977476370   -1.7773163660   -1.0968552418
H       -2.1859637179    0.0026136542    0.1158411700
H       -0.8663768914    2.3920454049   -0.7639547408
C       -0.5394867564   -0.0173687644    1.4661330802
H       -0.7723553780   -0.8741365394    2.1119650641
13   
From optimize.out: Frame 8 / 49, Energy=    -286.8153023409
C        1.4268182238    0.3625061650    0.0286660707
C        0.9519842797   -0.9363690709   -0.3897555992
C       -0.3587517594   -1.0245994598   -0.6127495573
C       -1.1266984886    0.2183653054    0.1192635555
C       -0.4260423482    1.4534009174   -0.5197778551
N        0.8344981691    1.5265494850   -0.3502649745
H        2.4129313354    0.4701614466    0.4621344496
H        1.6838185062   -1.7318131992   -0.5492041500
H       -0.9956162115   -1.7974236046   -1.0058468842
H       -2.2030573794    0.0440578644    0.0825985959
H       -0.8599411841    2.4173908831   -0.7378807504
C       -0.5455879552   -0.0641545477    1.4278895113
H       -0.7943551878   -0.9380721847    2.0449275876
13   
From optimize.out: Frame 9 / 49, Energy=    -286.8244051559
C        1.4350645392    0.3716174100    0.0221469734
C        0.9636774729   -0.9336072872   -0.3708813201
C       -0.3557819859   -1.0333625942   -0.5503831890
C       -1.1389944799    0.2305798633    0.0907361161
C       -0.4268379884    1.4703472592   -0.5171367374
N        0.8303751058    1.5314231133   -0.3546722291
H        2.4302307694    0.4893794227    0.4320855821
H        1.6974532302   -1.7241345068   -0.5421412775
H       -0.9934847156   -1.8175315062   -0.9148355254
H       -2.2201516047    0.0855034413    0.0493549255
H       -0.8535052646    2.4427371970   -0.7118059002
C       -0.5516893553   -0.1109418740    1.3896446813
H       -0.8163557231   -1.0020099384    1.9778879003
13   
From optimize.out: Frame 10 / 49, Energy=    -286.8351603142
C        1.4434203581    0.3806844686    0.0155170221
C        0.9754686341   -0.9308410418   -0.3520881569
C       -0.3526391295   -1.0420214438   -0.4880202841
C       -1.1513471802    0.2427953705    0.0623554048
C       -0.4276509649    1.4872033735   -0.5144299320
N        0.8262938860    1.5362344780   -0.3590917506
H        2.4476158564    0.5085503979    0.4018571506
H        1.7111087763   -1.7165054211   -0.5351782824
H       -0.9911692970   -1.8375043041   -0.8237820878
H       -2.2372557914    0.1269687693    0.0162805030
H       -0.8470920209    2.4679569781   -0.6857207187
C       -0.5580288868   -0.1577170409    1.3514495990
H       -0.8387242401   -1.0658045844    1.9108515329
13   
From optimize.out: Frame 11 / 49, Energy=    -286.8446404044
C        1.4555839140    0.3881851694    0.0050279841
C        0.9906560392   -0.9279254831   -0.3361756252
C       -0.3434535385   -1.0470141136   -0.4259282444
C       -1.1656525259    0.2550147211    0.0391718993
C       -0.4290679970    1.5008650059   -0.5094334462
N        0.8236851545    1.5388577994   -0.3639294584
H        2.4679532654    0.5260323604    0.3654244914
H        1.7254593734   -1.7106287144   -0.5317233305
H       -0.9824302369   -1.8527064346   -0.7314764692
H       -2.2546671005    0.1690249087   -0.0107982408
H       -0.8414868379    2.4886930937   -0.6593370550
C       -0.5726773153   -0.2039548027    1.3150852493