13   
From optimize.out: Frame 31 / 32, Energy=    -286.8516702428
C        1.1184279548    0.2253674243    0.4756302396
C        0.8712261597   -0.9806072958   -0.4429640738
C       -0.4497211412   -1.0235322974   -0.6802608896
C       -1.0764552804    0.1564588221    0.0909574608
C       -0.4450241850    1.4279370346   -0.5118170543
N        0.8139983116    1.4908555697   -0.3135919152
H        2.0889981005    0.2828095116    0.9660837992
H        1.6435544508   -1.6346689070   -0.8326628757
H       -0.9977524283   -1.7136227493   -1.3124711005
H       -2.1579967911    0.1432016864    0.2262937224
H       -0.9878583205    2.1892739038   -1.0695322310
C       -0.1489888581    0.0891851952    1.3085406563
H       -0.2724079727   -0.6526578981    2.0957942617
13   
From optimize.out: Frame 30 / 32, Energy=    -286.8516659187
C        1.1187857846    0.2249312190    0.4761310562
C        0.8721402722   -0.9806623130   -0.4435606115
C       -0.4485811225   -1.0230547183   -0.6815704356
C       -1.0758250996    0.1566480808    0.0906510374
C       -0.4457080039    1.4289953140   -0.5101311777
N        0.8134004188    1.4916978949   -0.3130992071
H        2.0900267599    0.2823883453    0.9651138671
H        1.6421641003   -1.6375631163   -0.8330572879
H       -0.9977763022   -1.7128874662   -1.3129771631
H       -2.1576917487    0.1405492739    0.2245287511
H       -0.9886615767    2.1894314052   -1.0689798907
C       -0.1491245950    0.0889242964    1.3083306060
H       -0.2731488872   -0.6493982157    2.0986204557
13   
From optimize.out: Frame 29 / 32, Energy=    -286.8516533176
C        1.1190086497    0.2248870559    0.4748082742
C        0.8730675726   -0.9810599759   -0.4465266945
C       -0.4475203146   -1.0233109857   -0.6837456247
C       -1.0760612437    0.1575982420    0.0910849512
C       -0.4463068691    1.4296763763   -0.5093571706
N        0.8130713600    1.4923670253   -0.3132876170
H        2.0903040767    0.2816710900    0.9637403705
H        1.6444463103   -1.6401947578   -0.8292854749
H       -0.9994202186   -1.7137249646   -1.3120777911
H       -2.1582310115    0.1396483148    0.2217976345
H       -0.9898271039    2.1915648897   -1.0656345852
C       -0.1491713336    0.0883023944    1.3079605053
H       -0.2733598742   -0.6474247045    2.1005232224
13   
From optimize.out: Frame 28 / 32, Energy=    -286.8516384524
C        1.1192331165    0.2257868046    0.4737949639
C        0.8739383153   -0.9815293018   -0.4471057348
C       -0.4468085453   -1.0231951410   -0.6843640573
C       -1.0765052197    0.1586777704    0.0921341866
C       -0.4470017190    1.4308632947   -0.5080239280
N        0.8124817481    1.4924012674   -0.3131990645
H        2.0905005376    0.2823538031    0.9627746856
H        1.6446939147   -1.6429741709   -0.8268176071
H       -0.9996419295   -1.7137958763   -1.3114550296
H       -2.1594593145    0.1409972036    0.2186459452
H       -0.9907809329    2.1919063208   -1.0650796967
C       -0.1491024679    0.0875600540    1.3082823611
H       -0.2715475034   -0.6490520288    2.1004129759
13   
From optimize.out: Frame 27 / 32, Energy=    -286.8516140732
C        1.1194387293    0.2267503455    0.4720404033
C        0.8749673880   -0.9814543691   -0.4480484504
C       -0.4463610539   -1.0237615159   -0.6838109043
C       -1.0776399554    0.1596979595    0.0939965330
C       -0.4471797018    1.4307259716   -0.5086025042
N        0.8123477067    1.4912935242   -0.3127450793
H        2.0895163869    0.2838919841    0.9634879698
H        1.6448000823   -1.6445233132   -0.8265089751
H       -0.9982807859   -1.7157283297   -1.3100450863
H       -2.1617523968    0.1455387731    0.2163179782
H       -0.9911991194    2.1925477442   -1.0643299756
C       -0.1491869850    0.0874509289    1.3093165361
H       -0.2694702951   -0.6524297031    2.0989315549
13   
From optimize.out: Frame 26 / 32, Energy=    -286.8515903915
C        1.1193498392    0.2277412545    0.4717556115
C        0.8751376657   -0.9804222569   -0.4476949030
C       -0.4463622238   -1.0232838619   -0.6829963012
C       -1.0792759378    0.1600654461    0.0949999017
C       -0.4471189998    1.4304459522   -0.5087652217
N        0.8129214631    1.4894692113   -0.3136258896
H        2.0882446632    0.2854860921    0.9656505691
H        1.6428471273   -1.6458688686   -0.8262279181
H       -0.9961340040   -1.7164323117   -1.3095397320
H       -2.1646132494    0.1484903655    0.2147867212
H       -0.9909605806    2.1925339225   -1.0643133920
C       -0.1496757823    0.0874660168    1.3092268277
H       -0.2643599806   -0.6556909618    2.0967437264
13   
From optimize.out: Frame 25 / 32, Energy=    -286.8515522778
C        1.1150943186    0.2298762085    0.4706084452
C        0.8732468637   -0.9785696042   -0.4489086914
C       -0.4472825320   -1.0242489326   -0.6854601700
C       -1.0781613867    0.1601589661    0.0939380258
C       -0.4471001110    1.4316513601   -0.5082888808
N        0.8109698073    1.4898187763   -0.3121823014
H        2.0871779169    0.2866095807    0.9581686761
H        1.6446804260   -1.6483212561   -0.8124774854
H       -0.9958669707   -1.7202731853   -1.3096766375
H       -2.1622837442    0.1537532675    0.2151342111
H       -0.9907097122    2.1954865865   -1.0616086811
C       -0.1490475355    0.0864467376    1.3089937556
H       -0.2607173403   -0.6623885051    2.0917597338
13   
From optimize.out: Frame 24 / 32, Energy=    -286.8514913957
C        1.1185813957    0.2342289023    0.4692890265
C        0.8740000352   -0.9724473475   -0.4507381801
C       -0.4469106487   -1.0193079819   -0.6870134804
C       -1.0774066258    0.1601671246    0.0928570210
C       -0.4489584744    1.4322302527   -0.5087061679
N        0.8098400344    1.4933877472   -0.3078982200
H        2.0918889682    0.2875010421    0.9549777742
H        1.6354128653   -1.6603980275   -0.8017441256
H       -0.9926004431   -1.7196696733   -1.3090036830
H       -2.1618853681    0.1489640680    0.2165472574
H       -0.9922667292    2.1961490801   -1.0621721873
C       -0.1488122837    0.0870358308    1.3083427433
H       -0.2608827257   -0.6678410176    2.0852622218
13   
From optimize.out: Frame 23 / 32, Energy=    -286.8513689522
C        1.1192561928    0.2384693820    0.4654172994
C        0.8708937475   -0.9697974348   -0.4537842828
C       -0.4493943147   -1.0160875116   -0.6914820012
C       -1.0756313988    0.1607095897    0.0893375565
C       -0.4504447766    1.4359385984   -0.5068973689
N        0.8090416715    1.4984242120   -0.3093303187
H        2.0930504232    0.2868216258    0.9509128877
H        1.6370628251   -1.6671798611   -0.7743676108
H       -0.9972734567   -1.7202407313   -1.3077667591
H       -2.1588421329    0.1459549893    0.2200082065
H       -0.9949165215    2.1998828739   -1.0590571841
C       -0.1450930200    0.0843489095    1.3034295203
H       -0.2577092390   -0.6772446418    2.0735800552
13   
From optimize.out: Frame 22 / 32, Energy=    -286.8510674103
C        1.1210625175    0.2391472766    0.4586404511
C        0.8668803302   -0.9679483669   -0.4626654958
C       -0.4535366304   -1.0132252945   -0.6962062064
C       -1.0727339215    0.1618652299    0.0874309344
C       -0.4510036524    1.4400892357   -0.5057609085
N        0.8091756981    1.5073479288   -0.3064792214
H        2.0913284964    0.2827264019    0.9517916237
H        1.6469510365   -1.6632403757   -0.7529132416
H       -1.0079128581   -1.7208606183   -1.3034301788
H       -2.1536850205    0.1435566789    0.2320358188
H       -0.9950814342    2.1975363145   -1.0678723016
C       -0.1384150427    0.0789745188    1.3002551436
H       -0.2630295189   -0.6859689298    2.0651735825
13   
From optimize.out: Frame 21 / 32, Energy=    -286.8505429162
C        1.1216733962    0.2383602825    0.4529089489
C        0.8636367937   -0.9681868842   -0.4721087596
C       -0.4573743667   -1.0172698027   -0.6991604190
C       -1.0730059592    0.1605629494    0.0832649170
C       -0.4492676097    1.4414794173   -0.5034061433
N        0.8104012509    1.5142505271   -0.3085039299
H        2.0841805663    0.2805606963    0.9615193957
H        1.6598522852   -1.6526167795   -0.7428880741
H       -1.0172975680   -1.7299239492   -1.2963715800
H       -2.1500171516    0.1542050912    0.2432929423
H       -0.9940087844    2.1958523216   -1.0692984304
C       -0.1326651901    0.0731385808    1.2930915463
H       -0.2661076627   -0.6904124506    2.0576595862
13   
From optimize.out: Frame 20 / 32, Energy=    -286.8502541159
C        1.1102319828    0.2308897877    0.4660151882
C        0.8638335465   -0.9598390729   -0.4787299326
C       -0.4579408676   -1.0082457152   -0.7026504549
C       -1.0743558788    0.1592237455    0.0827338737
C       -0.4467165532    1.4380168573   -0.5071309277
N        0.8131278072    1.5013819964   -0.3138134738
H        2.0874693101    0.2763802517    0.9439787242
H        1.6684093758   -1.6398542455   -0.7347738169
H       -1.0204311809   -1.7199541342   -1.2967427314
H       -2.1504282970    0.1434469589    0.2508375659
H       -0.9848696974    2.1944633642   -1.0764124747
C       -0.1455031286    0.0763826611    1.3021028766
H       -0.2628264188   -0.6922924550    2.0645855835
13   
From optimize.out: Frame 19 / 32, Energy=    -286.8496385584
C        1.1226122708    0.2334656940    0.4690891728
C        0.8633844809   -0.9700083098   -0.4688625405
C       -0.4570808759   -1.0019482941   -0.7048917751
C       -1.0766242317    0.1620218534    0.0755404743
C       -0.4542134283    1.4433755811   -0.5019894339
N        0.8037304587    1.5137260350   -0.2976863745
H        2.1148230779    0.2878519327    0.9152239672
H        1.6608269221   -1.6687450922   -0.6932118853
H       -1.0260109249   -1.7119960599   -1.2970896267
H       -2.1487404468    0.1288269246    0.2386653085
H       -0.9951517372    2.2046948783   -1.0623643660
C       -0.1409421954    0.0788127782    1.2883017791
H       -0.2666133701   -0.7000779213    2.0392753003
13   
From optimize.out: Frame 18 / 32, Energy=    -286.8489231334
C        1.1220365566    0.2444176269    0.4520360669
C        0.8644098370   -0.9793994812   -0.4635768861
C       -0.4545439823   -0.9871418240   -0.7094823963
C       -1.0629286065    0.1671501387    0.0801661776
C       -0.4539997921    1.4488761585   -0.5090553662
N        0.8112418855    1.5162222548   -0.3307378676
H        2.0957594935    0.3061706429    0.9363126736
H        1.6453215888   -1.7037918787   -0.6636332056
H       -1.0361271189   -1.6871599084   -1.3037548554
H       -2.1323427670    0.0900573842    0.2369894010
H       -1.0085801194    2.2190600071   -1.0431317593
C       -0.1251317987    0.0801087601    1.2928397953
H       -0.2651151765   -0.7145698808    2.0250282222
13   
From optimize.out: Frame 17 / 32, Energy=    -286.8470835831
C        1.1285074417    0.2522378146    0.4517472426
C        0.8606530892   -0.9881585359   -0.4416617155
C       -0.4533232614   -0.9719207419   -0.7117205740
C       -1.0620528102    0.1731132009    0.0807346778
C       -0.4594864758    1.4500829036   -0.5144292446
N        0.8067073642    1.5132591696   -0.3390334456
H        2.1163991887    0.3188323266    0.9061235836
H        1.6270289958   -1.7355440903   -0.6119603592
H       -1.0380194342   -1.6622767258   -1.3150199848
H       -2.1288443315    0.0463626004    0.2163052129
H       -1.0158819971    2.2408635147   -1.0149653385
C       -0.1232705731    0.0880702835    1.2903960743
H       -0.2584171964   -0.7249217199    2.0034838710
13   
From optimize.out: Frame 16 / 32, Energy=    -286.8434942910
C        1.1224360278    0.2543420988    0.4454105077
C        0.8534182530   -0.9965942849   -0.4280189373
C       -0.4544545954   -0.9580421302   -0.7199250428
C       -1.0555665168    0.1811517046    0.0823787701
C       -0.4681169217    1.4514672511   -0.5289677062
N        0.7961728183    1.5153469959   -0.3319523411
H        2.0984630122    0.3160145213    0.9250526421
H        1.5999866165   -1.7691688386   -0.5756676429
H       -1.0445571844   -1.6364334862   -1.3300300041
H       -2.1142179835   -0.0066695800    0.1981173491
H       -1.0228784393    2.2593656305   -1.0024290404
C       -0.1027347327    0.1087821044    1.2825203373
H       -0.2079503540   -0.7195619867    1.9835111086
13   
From optimize.out: Frame 15 / 32, Energy=    -286.8395022287
C        1.1368427590    0.2735777823    0.4292525274
C        0.8451527354   -1.0029337500   -0.3978295487
C       -0.4555763395   -0.9453626226   -0.7198710180
C       -1.0498957968    0.1872740975    0.0871849701
C       -0.4721318978    1.4565462882   -0.5331049444
N        0.7960571297    1.5193098729   -0.3530836050
H        2.1206527173    0.3370612788    0.8928621660
H        1.5740297845   -1.7973283476   -0.5203555680
H       -1.0474461996   -1.6119271945   -1.3417308904
H       -2.1009178059   -0.0494496464    0.1759040778
H       -1.0270364088    2.2798126575   -0.9785050419
C       -0.1040881868    0.1012478225    1.2917412686
H       -0.2156424906   -0.7478282387    1.9675356064
13   
From optimize.out: Frame 14 / 32, Energy=    -286.8333497502
C        1.1403831309    0.2802680884    0.4135442185
C        0.8343157805   -1.0099752755   -0.3748229702
C       -0.4576799320   -0.9355062302   -0.7268742086
C       -1.0437950410    0.1919147995    0.0857866427
C       -0.4806919808    1.4597100316   -0.5434169420
N        0.7853428099    1.5223806259   -0.3513534022
H        2.1181520416    0.3406918377    0.8892653378
H        1.5441516942   -1.8258643298   -0.4716160501
H       -1.0504337419   -1.5904644603   -1.3578411876
H       -2.0841107535   -0.0953648534    0.1497404754
H       -1.0315285819    2.3019890101   -0.9560869749
C       -0.0954673564    0.1107495560    1.2891327958
H       -0.1786380695   -0.7505288000    1.9545422654
13   
From optimize.out: Frame 13 / 32, Energy=    -286.8250877856
C        1.1491326943    0.2875947894    0.3899253983
C        0.8215199295   -1.0161853665   -0.3498682555
C       -0.4609168078   -0.9292110205   -0.7338073086
C       -1.0356878499    0.1938898308    0.0805873777
C       -0.4886829390    1.4653701429   -0.5519148070
N        0.7735964813    1.5284372913   -0.3464995460
H        2.1183200746    0.3467326003    0.8813333894
H        1.5122716154   -1.8519196201   -0.4211850908
H       -1.0541123588   -1.5730999534   -1.3725053313
H       -2.0650738838   -0.1380176785    0.1187068542
H       -1.0342617578    2.3255976057   -0.9319364874
C       -0.0937547631    0.1154856367    1.2890898914
H       -0.1423504349   -0.7546742582    1.9480739156
13   
From optimize.out: Frame 12 / 32, Energy=    -286.8137932098
C        1.1635133658    0.2912109024    0.3583245438
C        0.8086464599   -1.0215791630   -0.3298986222
C       -0.4650019064   -0.9269395975   -0.7408186682
C       -1.0255079269    0.1922875889    0.0708591977
C       -0.4953288396    1.4724487821   -0.5585772838
N        0.7599928885    1.5374997565   -0.3289846300
H        2.1172563353    0.3513197163    0.8764874989
H        1.4811603085   -1.8746630696   -0.3785757875
H       -1.0604385593   -1.5614357597   -1.3833477522
H       -2.0440204342   -0.1787152940    0.0851683290
H       -1.0355770013    2.3476547156   -0.9093129598
C       -0.0991161487    0.1219520043    1.2896896350
H       -0.1055785416   -0.7510405822    1.9489864993
13   
From optimize.out: Frame 11 / 32, Energy=    -286.7983505817
C        1.1866622010    0.2909876354    0.3208819732
C        0.7995871578   -1.0225884456   -0.3196487823
C       -0.4687815064   -0.9249301447   -0.7457915585
C       -1.0136568061    0.1860878948    0.0607933478
C       -0.4984829020    1.4770578250   -0.5617050664
N        0.7487673129    1.5436732419   -0.3021129376
H        2.1239104729    0.3526347536    0.8652711248
H        1.4574642195   -1.8888578402   -0.3533109660
H       -1.0697565767   -1.5512261236   -1.3886690556
H       -2.0204587262   -0.2212948014    0.0542213435
H       -1.0346264309    2.3623294295   -0.8913123952
C       -0.1202795242    0.1335366774    1.2988228487
H       -0.0903488915   -0.7374101022    1.9625601235
13   
From optimize.out: Frame 10 / 32, Energy=    -286.7775993996
C        1.2208296073    0.2897625135    0.2803904353
C        0.7960555770   -1.0168975422   -0.3188329656
C       -0.4716768640   -0.9198876163   -0.7474124427
C       -1.0009162204    0.1743712708    0.0545346683
C       -0.4972852118    1.4759253728   -0.5594842520
N        0.7449087306    1.5434902198   -0.2756135547
H        2.1493431592    0.3511300664    0.8372965548
H        1.4448565591   -1.8917326952   -0.3472241506
H       -1.0814899828   -1.5377586501   -1.3894639678
H       -1.9940008892   -0.2688452260    0.0288424692
H       -1.0315211920    2.3663552276   -0.8770218828
C       -0.1632603982    0.1505596464    1.3219288592
H       -0.1158428750   -0.7164725875    1.9920602294
13   
From optimize.out: Frame 9 / 32, Energy=    -286.7516018322
C        1.2614274584    0.2910546951    0.2399991001
C        0.7954030135   -1.0064953508   -0.3244553672
C       -0.4742610037   -0.9129716402   -0.7473449948
C       -0.9864010953    0.1562265053    0.0525832695
C       -0.4916912984    1.4697406682   -0.5526851886
N        0.7509992835    1.5413893908   -0.2555882638
H        2.1908237022    0.3495648984    0.7951807003
H        1.4397043148   -1.8865712106   -0.3554512510
H       -1.0958034991   -1.5209410687   -1.3894857974
H       -1.9640820927   -0.3220408358    0.0083507350
H       -1.0266579897    2.3619792621   -0.8634811584
C       -0.2230126565    0.1695118317    1.3554348357
H       -0.1764481370   -0.6904471454    2.0369433807
13   
From optimize.out: Frame 8 / 32, Energy=    -286.7208334057
C        1.2976971673    0.2913639353    0.2040016098
C        0.7942068872   -0.9947119107   -0.3386565828
C       -0.4768262433   -0.9069697397   -0.7505318552
C       -0.9687690700    0.1306906936    0.0507961787
C       -0.4834736218    1.4582183985   -0.5423991208
N        0.7629178146    1.5388163521   -0.2304951142
H        2.2304012912    0.3418882201    0.7554087609
H        1.4373054956   -1.8778921410   -0.3778876634
H       -1.1129970167   -1.5038639685   -1.3938056075
H       -1.9293208209   -0.3821284055   -0.0105700060
H       -1.0211301203    2.3507218981   -0.8468880997
C       -0.2873770740    0.1963497344    1.3861285990
H       -0.2426346888   -0.6424830667    2.0948989013
13   
From optimize.out: Frame 7 / 32, Energy=    -286.6846056614
C        1.3347108749    0.2893964467    0.1766901838
C        0.7908948972   -0.9806093206   -0.3582785972
C       -0.4815726138   -0.9023801318   -0.7547721794
C       -0.9559151205    0.0972582512    0.0474089916
C       -0.4764022121    1.4397472913   -0.5222529438
N        0.7899075466    1.5315575930   -0.1976562989
H        2.2748066565    0.3263547098    0.7188378557
H        1.4383759890   -1.8631139704   -0.4093725429
H       -1.1326698954   -1.4902766600   -1.4002327158
H       -1.8958297230   -0.4490881802   -0.0291265843
H       -1.0182456656    2.3321687338   -0.8205972908
C       -0.3596217348    0.2357069396    1.4011488217
H       -0.3084389990   -0.5667217023    2.1482033003
13   
From optimize.out: Frame 2 / 32, Energy=    -286.6499739995
C        1.4275372085    0.2384301406    0.0875232538
C        0.8739229396   -1.0847753053   -0.4265669033
C       -0.3644732319   -1.2412397228   -0.7880111544
C       -1.1575513181    0.2337976777    0.0762982386
C       -0.5423653826    1.5590589980   -0.3959744388
N        0.8367884558    1.4994304770   -0.0812989367
H        2.3994039578    0.2958319068    0.5958201891
H        1.6352195117   -1.8885801399   -0.4820519640
H       -1.0493502773   -1.9096593932   -1.4177562848
H       -2.1003657120   -0.3014135650    0.0370478010
H       -0.9793418528    2.5479669245   -0.5670890060
C       -0.5114178927    0.4439570356    1.3413526170
H       -0.4680064061   -0.3928050339    2.0207065885
13   
From optimize.out: Frame 1 / 32, Energy=    -286.5828947097
C        1.4565831008    0.2240146393    0.0440144276
C        0.9679824211   -1.1804920549   -0.3808770414
C       -0.2601103691   -1.4719961940   -0.6237945447
C       -1.3518444192    0.4223983943   -0.0001026544
C       -0.6083316300    1.7289123749   -0.3313198289
N        0.8064977094    1.4958891702   -0.0766983092
H        2.4581759411    0.3481407237    0.4913993208
H        1.7934006372   -1.9233028975   -0.4578640357
H       -0.9727168333   -2.2304951489   -1.1596573041
H       -2.3334341823   -0.0417998757   -0.0237925707
H       -0.9306125859    2.7803622022   -0.3412516836
C       -0.5293487768    0.3960619806    1.1805258874
H       -0.4962410131   -0.5476933142    1.6794183370
13   
C5H5N+CH->C6H6N atoms 1-13 frame 123 charge -0.000 sz -1.000 sz^2 1.871
C        1.4565831008    0.2240146393    0.0440144276
C        0.9679824211   -1.1804920549   -0.3808770414
C       -0.2601103691   -1.4719961940   -0.6237945447
C       -1.3518444192    0.4223983943   -0.0001026544
C       -0.6083316300    1.7289123749   -0.3313198289
N        0.8064977094    1.4958891702   -0.0766983092
H        2.4581759411    0.3481407237    0.4913993208
H        1.7934006372   -1.9233028975   -0.4578640357
H       -0.9727168333   -2.2304951489   -1.1596573041
H       -2.3334341823   -0.0417998757   -0.0237925707
H       -0.9306125859    2.7803622022   -0.3412516836
C       -0.5293487768    0.3960619806    1.1805258874
H       -0.4962410131   -0.5476933142    1.6794183370
13   
C5H5N+CH->C6H6N atoms 1-13 frame 124 charge -0.000 sz -1.000 sz^2 1.970
C        1.4470940511    0.2190764273    0.0493613663
C        0.9690848933   -1.1823910957   -0.3957240854
C       -0.2535666075   -1.4731065138   -0.6388813089
C       -1.3399781853    0.4264433565    0.0071700990
C       -0.6071825898    1.7372725030   -0.3363498936
N        0.8031117728    1.4976226785   -0.0766457214
H        2.4455026430    0.3362944448    0.5034670942
H        1.7948908991   -1.9231815873   -0.4957827621
H       -0.9564598385   -2.2579522546   -1.1595738393
H       -2.3236099569   -0.0425299252    0.0011093824
H       -0.9262192102    2.7911832823   -0.3535950530
C       -0.5413081894    0.3987001313    1.1934600948
H       -0.5113596816   -0.5274314471    1.7019846269
13   
C5H5N+CH->C6H6N atoms 1-13 frame 125 charge -0.000 sz -1.000 sz^2 2.059
C        1.4369429635    0.2138806929    0.0543202275
C        0.9706727020   -1.1840740729   -0.4108093708
C       -0.2486427588   -1.4744697739   -0.6545336838
C       -1.3277893097    0.4305641547    0.0146095825
C       -0.6054834073    1.7452652929   -0.3416206351
N        0.7993241585    1.4993935871   -0.0773616076
H        2.4315786871    0.3234802604    0.5135244442
H        1.7951731994   -1.9218152453   -0.5343147450
H       -0.9359112381   -2.2819700052   -1.1571170698
H       -2.3139960937   -0.0416610986    0.0247154140
H       -0.9216986416    2.8002278106   -0.3669405867
C       -0.5536608484    0.4007891332    1.2061519427
H       -0.5265094130   -0.5096107360    1.7293760878
13   
C5H5N+CH->C6H6N atoms 1-13 frame 126 charge -0.000 sz -1.000 sz^2 2.124
C        1.4261294125    0.2084726035    0.0588299796
C        0.9727454458   -1.1855297582   -0.4261173109
C       -0.2453863227   -1.4761328238   -0.6706858959
C       -1.3153836313    0.4347539051    0.0222120143
C       -0.6032351148    1.7528414924   -0.3471719840
N        0.7951506847    1.5012065473   -0.0789263949
H        2.4165580798    0.3098820726    0.5215849002
H        1.7943319923   -1.9191810995   -0.5732596583
H       -0.9113423293   -2.3024123494   -1.1523852797
H       -2.3044276900   -0.0390586641    0.0468528947
H       -0.9171294876    2.8074161386   -0.3813154093
C       -0.5663055174    0.4024116494    1.2185910587
H       -0.5417055221   -0.4946697138    1.7617910856
13   
C5H5N+CH->C6H6N atoms 1-13 frame 127 charge -0.000 sz -1.000 sz^2 2.176
C        1.4146634326    0.2028831113    0.0628614526
C        0.9752816243   -1.1867475665   -0.4416381848
C       -0.2437764944   -1.4781231042   -0.6872596470
C       -1.3028597261    0.4389812848    0.0300032891
C       -0.6004391338    1.7599317033   -0.3529756303
N        0.7906062025    1.5030560242   -0.0813560350
H        2.4006689855    0.2956903608    0.5277479783
H        1.7925396416   -1.9153184476   -0.6124443074
H       -0.8832053440   -2.3193633437   -1.1456483322
H       -2.2947562293   -0.0346393350    0.0673826785
H       -0.9126214704    2.8127403236   -0.3966567687
C       -0.5791229939    0.4035738426    1.2308346907
H       -0.5569784945   -0.4826648537    1.7991488162
13   
From optimize.out: Frame 1 / 49, Energy=    -286.6072587163
C        1.4025681695    0.1971320544    0.0664210211
C        0.9782397682   -1.1877165060   -0.4573648456
C       -0.2437236887   -1.4804416815   -0.7041624497
C       -1.2903044979    0.4431965355    0.0380433279
C       -0.5970936103    1.7664520805   -0.3589313557
N        0.7857130661    1.5049272411   -0.0845988995
H        2.3842065066    0.2810939058    0.5321989235
H        1.7900487621   -1.9103177124   -0.6517266790
H       -0.8521322042   -2.3331536776   -1.1373415575
H       -2.2848696149   -0.0283813855    0.0862011310
H       -0.9083061880    2.8162627398   -0.4128069786
C       -0.5919773547    0.4042032225    1.2430130080
H       -0.5723691135   -0.4732568166    1.8410553541
13   
From optimize.out: Frame 2 / 49, Energy=    -286.6926806513
C        1.4041624452    0.3059852363    0.1171237858
C        0.8599290392   -1.0210466654   -0.3637118391
C       -0.4040666908   -1.1588656143   -0.6213116157
C       -1.0780124839    0.2374917130   -0.0202039907
C       -0.5038017969    1.6148592589   -0.4600477487
N        0.8464533020    1.5788280999   -0.1398897588
H        2.3795851592    0.3524251405    0.5977641225
H        1.5908656209   -1.8284275057   -0.5278727635
H       -1.0898873488   -1.9341769248   -1.0435440234
H       -2.0433436159   -0.2824377961   -0.0590398541
H       -0.9408250514    2.6027057506   -0.6168015335
C       -0.5096834050    0.2056859408    1.2599034243
H       -0.5113751738   -0.6730266337    1.8776317948
13   
From optimize.out: Frame 3 / 49, Energy=    -286.7153962145
C        1.3855382094    0.3380845173    0.1343577553
C        0.8338047554   -0.9386780047   -0.3702734275
C       -0.4343710854   -0.9384572805   -0.7107394779
C       -1.0050114737    0.1164241264    0.0624770314
C       -0.4465454576    1.4483017428   -0.5458177149
N        0.8525499007    1.5588208470   -0.2349795295
H        2.3315106227    0.3809910962    0.6678990820
H        1.5164012289   -1.7901975218   -0.4933165105
H       -1.1397087687   -1.6407843515   -1.1841488127
H       -2.0049912731   -0.3302168913    0.0388566661
H       -0.9351901022    2.3845374538   -0.8029283309
C       -0.4476866137    0.1251629205    1.3764874054
H       -0.5062999428   -0.7139886542    2.0621258636
13   
From optimize.out: Frame 4 / 49, Energy=    -286.7315087657
C        1.4061760906    0.3396989447    0.0449846407
C        0.9227139401   -0.9432823535   -0.4370015952
C       -0.3661856810   -1.0026636279   -0.7688647216
C       -1.0959192277    0.1877898885    0.1906732917
C       -0.4240507058    1.4109809239   -0.5263890868
N        0.8448189995    1.5143498443   -0.3392327580
H        2.3696274833    0.4220551101    0.5373526164
H        1.6496881368   -1.7510344615   -0.5668838953
H       -1.0009517607   -1.7470896111   -1.2336660383
H       -2.1602672047   -0.0596884855    0.1658139764
H       -0.8760515439    2.3539441235   -0.8031511781
C       -0.5303149628    0.0529632409    1.5236237684
H       -0.7392835637   -0.7780235364    2.2127409796
13   
From optimize.out: Frame 5 / 49, Energy=    -286.7673366093
C        1.4482218730    0.3861547744    0.0117454867
C        0.9823344415   -0.9292007481   -0.3407666349
C       -0.3510435905   -1.0473445340   -0.4508750948
C       -1.1586132376    0.2500686905    0.0452194183
C       -0.4281074649    1.4973858414   -0.5129227261
N        0.8237965894    1.5391991868   -0.3617041842
H        2.4578327248    0.5200424904    0.3841413836
H        1.7192079908   -1.7118828387   -0.5308721752
H       -0.9900838267   -1.8496144867   -0.7696231756
H       -2.2474261412    0.1516315565   -0.0036867118
H       -0.8432364915    2.4831782789   -0.6702024090
C       -0.5614243889   -0.1855929689    1.3286234889
H       -0.8514584781   -1.1040252426    1.8709233342
13   
From optimize.out: Frame 6 / 49, Energy=    -286.7730711688
C        1.5507267959    0.4144248541   -0.0817852454
C        1.0981996922   -0.9114446747   -0.2768439940
C       -0.2453639708   -1.0427439455   -0.1035291655
C       -1.2566243319    0.3189344418   -0.0389828388
C       -0.4414813739    1.5458277732   -0.4643399530
N        0.8222450318    1.5344458999   -0.3926876520
H        2.5987454457    0.6034420743    0.1235378916
H        1.8062487301   -1.6944211166   -0.5427231838
H       -0.8835195428   -1.8926650321   -0.2384898671
H       -2.3482451909    0.3938068210   -0.1027036465
H       -0.8188752980    2.5599634628   -0.5189193245
C       -0.7181038144   -0.4412528266    1.1401246459
H       -1.1639521730   -1.3883177316    1.4973423331
13   
From optimize.out: Frame 7 / 49, Energy=    -286.7978380619
C        1.6128010285    0.3782183378   -0.1044831720
C        1.1458155875   -0.9150419552   -0.3448349966
C       -0.1914489575   -1.0731194632   -0.0422816642
C       -1.2658267872    0.3283578332   -0.0306818430
C       -0.4484145374    1.5260539728   -0.3952692365
N        0.8411061904    1.5001472674   -0.3505226053
H        2.6747250719    0.5690647851    0.0194494153
H        1.8169155904   -1.6773785395   -0.7295712445
H       -0.7806384128   -1.9576291718   -0.2186342297
H       -2.3466337205    0.4695541938   -0.1506818633
H       -0.8591469220    2.5308218052   -0.4872633521
C       -0.8322362472   -0.4010860510    1.2203193273