13   
From optimize.out: Frame 31 / 32, Energy=    -286.8516702428
C        1.1184279548    0.2253674243    0.4756302396
C        0.8712261597   -0.9806072958   -0.4429640738
C       -0.4497211412   -1.0235322974   -0.6802608896
C       -1.0764552804    0.1564588221    0.0909574608
C       -0.4450241850    1.4279370346   -0.5118170543
N        0.8139983116    1.4908555697   -0.3135919152
H        2.0889981005    0.2828095116    0.9660837992
H        1.6435544508   -1.6346689070   -0.8326628757
H       -0.9977524283   -1.7136227493   -1.3124711005
H       -2.1579967911    0.1432016864    0.2262937224
H       -0.9878583205    2.1892739038   -1.0695322310
C       -0.1489888581    0.0891851952    1.3085406563
H       -0.2724079727   -0.6526578981    2.0957942617
13   
From optimize.out: Frame 30 / 32, Energy=    -286.8516659187
C        1.1213778318    0.2387410577    0.4556820495
C        0.8652061297   -0.9680714812   -0.4675397794
C       -0.4555175361   -1.0153129286   -0.6977310680
C       -1.0728743379    0.1611930381    0.0852805814
C       -0.4501075677    1.4408067990   -0.5045454608
N        0.8098082857    1.5109108094   -0.3075243053
H        2.0876389841    0.2816085402    0.9568127605
H        1.6536102113   -1.6577568457   -0.7477385997
H       -1.0127569182   -1.7255387937   -1.2997867762
H       -2.1517917944    0.1490530181    0.2378463535
H       -0.9945277698    2.1966670961   -1.0686084195
C       -0.1354471692    0.0759622111    1.2965575444
H       -0.2646183494   -0.6882625203    2.0612951196
13   
From optimize.out: Frame 29 / 32, Energy=    -286.8516533176
C        1.1224110198    0.2372941330    0.4631279624
C        0.8637429120   -0.9732911575   -0.4670148479
C       -0.4561940605   -0.9967724344   -0.7064965068
C       -1.0718366872    0.1638145349    0.0771574695
C       -0.4541387480    1.4452984038   -0.5044594537
N        0.8063562089    1.5145986321   -0.3092401000
H        2.1081590697    0.2942555572    0.9225958921
H        1.6554067626   -1.6809963073   -0.6828721423
H       -1.0295472169   -1.7033141502   -1.2994195736
H       -2.1430083520    0.1152743560    0.2380794658
H       -0.9998458623    2.2097164594   -1.0556412731
C       -0.1354153957    0.0792658113    1.2898881218
H       -0.2660896504   -0.7051438384    2.0342949858
13   
From optimize.out: Frame 28 / 32, Energy=    -286.8516384524
C        1.1278751748    0.2524569512    0.4510873456
C        0.8598996654   -0.9890370207   -0.4402409794
C       -0.4534410767   -0.9704754465   -0.7125749737
C       -1.0613773385    0.1739503172    0.0809058908
C       -0.4603852360    1.4502270672   -0.5159432557
N        0.8056103143    1.5134765923   -0.3382960312
H        2.1145313453    0.3185388851    0.9080948241
H        1.6242128477   -1.7390457153   -0.6081808965
H       -1.0387002645   -1.6595854541   -1.3165831031
H       -2.1273211681    0.0408399179    0.2144111592
H       -1.0166105949    2.2427902941   -1.0136598294
C       -0.1211320050    0.0902271779    1.2895759082
H       -0.2531616638   -0.7243635662    2.0014039409
13   
From optimize.out: Frame 27 / 32, Energy=    -286.8516140732
C        1.1318863915    0.2669601038    0.4348113795
C        0.8479963328   -1.0007527751   -0.4082156454
C       -0.4551904243   -0.9497247710   -0.7198896042
C       -1.0518467024    0.1851678023    0.0855314865
C       -0.4707506201    1.4547989401   -0.5316816047
N        0.7960969302    1.5179465189   -0.3458137873
H        2.1130187627    0.3298205340    0.9039366996
H        1.5829597489   -1.7876405931   -0.5393846569
H       -1.0464522878   -1.6203581276   -1.3377054184
H       -2.1054934842   -0.0347319615    0.1835461399
H       -1.0256059369    2.2727782388   -0.9867356479
C       -0.1036225562    0.1038398518    1.2885689790
H       -0.2129961543   -0.7381037613    1.9730316803
13   
From optimize.out: Frame 26 / 32, Energy=    -286.8515903915
C        1.1429256550    0.2823971448    0.4066808567
C        0.8305974510   -1.0117798577   -0.3675714126
C       -0.4586205315   -0.9336769135   -0.7288888890
C       -1.0414391830    0.1924887213    0.0842757951
C       -0.4830140628    1.4613547959   -0.5458863254
N        0.7819294597    1.5241406243   -0.3499429265
H        2.1182008701    0.3424472150    0.8869604033
H        1.5348877042   -1.8334357022   -0.4569613841
H       -1.0515027064   -1.5854185311   -1.3621024218
H       -2.0785788547   -0.1077592816    0.1407224564
H       -1.0323228119    2.3088494008   -0.9490691166
C       -0.0949696962    0.1121258075    1.2891203283
H       -0.1680932936   -0.7517334232    1.9526626362
13   
From optimize.out: Frame 25 / 32, Energy=    -286.8515522778
C        1.1628499618    0.2910440852    0.3597823431
C        0.8092403342   -1.0213303383   -0.3308198541
C       -0.4648134541   -0.9270443820   -0.7404952227
C       -1.0259775435    0.1923615029    0.0713079746
C       -0.4950222533    1.4721222329   -0.5582699328
N        0.7606204445    1.5370816901   -0.3297926218
H        2.1173054074    0.3511081051    0.8767110478
H        1.4825955242   -1.8736138769   -0.3805414246
H       -1.0601467213   -1.5619738481   -1.3828475736
H       -2.0449916643   -0.1768378462    0.0867155162
H       -1.0355163270    2.3466371849   -0.9103566202
C       -0.0988688192    0.1216537001    1.2896619678
H       -0.1072748894   -0.7512082096    1.9489444003
13   
From optimize.out: Frame 24 / 32, Energy=    -286.8514913957
C        1.2089154448    0.2901897131    0.2945098202
C        0.7972870380   -1.0188819582   -0.3191174406
C       -0.4706672538   -0.9216459442   -0.7468472409
C       -1.0053588581    0.1784568534    0.0567170677
C       -0.4977028459    1.4763202585   -0.5602586492
N        0.7462542169    1.5435540395   -0.2848538801
H        2.1404747905    0.3516547503    0.8470512774
H        1.4492528458   -1.8907302343   -0.3493466210
H       -1.0773985483   -1.5424547534   -1.3891867822
H       -2.0032267276   -0.2522644098    0.0376920737
H       -1.0326039877    2.3649514332   -0.8820049794
C       -0.1482729826    0.1446237431    1.3138718015
H       -0.1069531320   -0.7237734915    1.9817735529
13   
From optimize.out: Frame 23 / 32, Energy=    -286.8513689522
C        1.2579009769    0.2909424514    0.2435076429
C        0.7954596976   -1.0073989242   -0.3239669843
C       -0.4740365356   -0.9135723878   -0.7473508536
C       -0.9876619335    0.1578026276    0.0527527753
C       -0.4921772067    1.4702778948   -0.5532757808
N        0.7504702352    1.5415718767   -0.2573277357
H        2.1872205467    0.3497008548    0.7988390413
H        1.4401518581   -1.8870195565   -0.3547366142
H       -1.0945601734   -1.5224019068   -1.3894839012
H       -1.9666809515   -0.3174200658    0.0101307238
H       -1.0270804257    2.3623593749   -0.8646573565
C       -0.2178223514    0.1678655738    1.3525243810
H       -0.1711837368   -0.6927078128    2.0330446619
13   
From optimize.out: Frame 22 / 32, Energy=    -286.8510674103
C        1.2967193164    0.2913555980    0.2049721215
C        0.7942391354   -0.9950295986   -0.3382737104
C       -0.4767570830   -0.9071315542   -0.7504459357
C       -0.9692444389    0.1313791528    0.0508443596
C       -0.4836951748    1.4585290451   -0.5426764388
N        0.7625964846    1.5388857226   -0.2311716390
H        2.2293342580    0.3420951875    0.7564810338
H        1.4373701691   -1.8781261334   -0.3772827656
H       -1.1125334702   -1.5043243764   -1.3936891431
H       -1.9302580035   -0.3805084122   -0.0100598926
H       -1.0212791547    2.3510254027   -0.8473354575
C       -0.2856417746    0.1956261701    1.3853010786
H       -0.2408502637   -0.6437762041    2.0933363892
13   
From optimize.out: Frame 21 / 32, Energy=    -286.8505429162
C        1.3314204791    0.2895713499    0.1791180789
C        0.7911893221   -0.9818629941   -0.3565342653
C       -0.4811506772   -0.9027881327   -0.7543952287
C       -0.9570577939    0.1002302844    0.0477101013
C       -0.4770308370    1.4413893114   -0.5240438721
N        0.7875082490    1.5322028726   -0.2005755606
H        2.2708591669    0.3277355873    0.7220888878
H        1.4382808257   -1.8644277007   -0.4065736416
H       -1.1309210418   -1.4914845266   -1.3996613672
H       -1.8988069705   -0.4431356785   -0.0274769661
H       -1.0185020840    2.3338180485   -0.8229344565
C       -0.3531994242    0.2322082146    1.3998135738
H       -0.3025892142   -0.5734566362    2.1434647161
13   
From optimize.out: Frame 20 / 32, Energy=    -286.8502541159
C        1.3513998582    0.2802333590    0.1606591142
C        0.8058222735   -0.9993370277   -0.3705559581
C       -0.4605196480   -0.9633027369   -0.7607481205
C       -0.9921667207    0.1218062875    0.0526029074
C       -0.4882615435    1.4611980047   -0.4995496895
N        0.7983361324    1.5257815499   -0.1767367386
H        2.2972076520    0.3208671016    0.6967208582
H        1.4737659278   -1.8676924608   -0.4224393699
H       -1.1176900975   -1.5656762924   -1.4033832286
H       -1.9326026685   -0.4225381799   -0.0172292792
H       -1.0112512594    2.3709664786   -0.7750197551
C       -0.3869127356    0.2731476338    1.3903982316
H       -0.3371271707   -0.5354537176    2.1252810280
13   
From optimize.out: Frame 19 / 32, Energy=    -286.8496385584
C        1.3698420661    0.2701076633    0.1429439358
C        0.8223178126   -1.0200321329   -0.3841230903
C       -0.4372550089   -1.0306254327   -0.7673518510
C       -1.0322266534    0.1489331641    0.0583424587
C       -0.5013667310    1.4849021759   -0.4744613945
N        0.8076501647    1.5193987173   -0.1536195199
H        2.3219619350    0.3148030048    0.6722804081
H        1.5128736791   -1.8727519345   -0.4368789039
H       -1.1011366298   -1.6489968681   -1.4068647116
H       -1.9732387153   -0.3931990274   -0.0040821288
H       -1.0035220711    2.4138400355   -0.7246541712
C       -0.4170707327    0.3145215782    1.3785182618
H       -0.3688291154   -0.5009009433    2.0999507066
13   
From optimize.out: Frame 18 / 32, Energy=    -286.8489231334
C        1.3882842740    0.2599819675    0.1252287575
C        0.8388133518   -1.0407272382   -0.3976902225
C       -0.4139903699   -1.0979481285   -0.7739555814
C       -1.0722865861    0.1760600406    0.0640820099
C       -0.5144719184    1.5086063470   -0.4493730995
N        0.8169641970    1.5130158846   -0.1305023011
H        2.3467162180    0.3087389079    0.6478399579
H        1.5519814304   -1.8778114082   -0.4513184378
H       -1.0845831620   -1.7323174437   -1.4103461946
H       -2.0138747620   -0.3638598750    0.0090650217
H       -0.9957928829    2.4567135924   -0.6742885874
C       -0.4472287298    0.3558955226    1.3666382921
H       -0.4005310601   -0.4663481690    2.0746203852
13   
From optimize.out: Frame 17 / 32, Energy=    -286.8470835831
C        1.4067264819    0.2498562718    0.1075135791
C        0.8553088909   -1.0614223434   -0.4112573546
C       -0.3907257308   -1.1652708244   -0.7805593119
C       -1.1123465188    0.2031869171    0.0698215611
C       -0.5275771059    1.5323105181   -0.4242848044
N        0.8262782293    1.5066330520   -0.1073850823
H        2.3714705011    0.3026748110    0.6233995077
H        1.5910891817   -1.8828708819   -0.4657579717
H       -1.0680296943   -1.8156380194   -1.4138276776
H       -2.0545108087   -0.3345207225    0.0222121721
H       -0.9880636947    2.4995871493   -0.6239230035
C       -0.4773867269    0.3972694670    1.3547583223
H       -0.4322330048   -0.4317953947    2.0492900638
13   
From optimize.out: Frame 16 / 32, Energy=    -286.8434942910
C        1.4251686898    0.2397305760    0.0897984007
C        0.8718044301   -1.0821174487   -0.4248244868
C       -0.3674610918   -1.2325935202   -0.7871630424
C       -1.1524064514    0.2303137936    0.0755611124
C       -0.5406822933    1.5560146893   -0.3991965094
N        0.8355922617    1.5002502194   -0.0842678635
H        2.3962247841    0.2966107142    0.5989590576
H        1.6301969329   -1.8879303556   -0.4801975057
H       -1.0514762266   -1.8989585950   -1.4173091606
H       -2.0951468555   -0.3051815701    0.0353593225
H       -0.9803345065    2.5424607061   -0.5735574196
C       -0.5075447240    0.4386434114    1.3428783525
H       -0.4639349495   -0.3972426204    2.0239597424
13   
From optimize.out: Frame 15 / 32, Energy=    -286.8395022287
C        1.4326029383    0.2359160146    0.0799351256
C        0.8903273216   -1.1014687221   -0.4185983930
C       -0.3462718954   -1.2814846534   -0.7593710646
C       -1.1914368786    0.2666904617    0.0629735911
C       -0.5538701826    1.5886821645   -0.3846983941
N        0.8315056181    1.4988128577   -0.0804965673
H        2.4096540469    0.3049547916    0.5776087363
H        1.6628069869   -1.8946359396   -0.4778334843
H       -1.0359850719   -1.9656145422   -1.3727427018
H       -2.1410138653   -0.2561358103    0.0264369760
H       -0.9708432570    2.5884976700   -0.5277019963
C       -0.5145451167    0.4356039300    1.3133037370
H       -0.4729306442   -0.4198182226    1.9611844354
13   
From optimize.out: Frame 14 / 32, Energy=    -286.8333497502
C        1.4384151224    0.2330314226    0.0712288580
C        0.9091489512   -1.1206219768   -0.4094556926
C       -0.3253885234   -1.3276598264   -0.7265107495
C       -1.2303156043    0.3044301214    0.0476855065
C       -0.5670702583    1.6226704163   -0.3717607816
N        0.8254443343    1.4981042299   -0.0795759657
H        2.4214145253    0.3154219679    0.5567137571
H        1.6944595806   -1.9015840843   -0.4729933956
H       -1.0206504531   -2.0298148934   -1.3210961976
H       -2.1876516773   -0.2041862076    0.0142626059
H       -0.9610923611    2.6350007739   -0.4825111621
C       -0.5181331491    0.4260199628    1.2811217487
H       -0.4785804873   -0.4508119065    1.8928914686
13   
From optimize.out: Frame 13 / 32, Energy=    -286.8250877856
C        1.4442273066    0.2301468306    0.0625225905
C        0.9279705808   -1.1397752315   -0.4003129922
C       -0.3045051513   -1.3738349993   -0.6936504344
C       -1.2691943300    0.3421697812    0.0323974219
C       -0.5802703340    1.6566586681   -0.3588231692
N        0.8193830505    1.4973956021   -0.0786553641
H        2.4331750037    0.3258891442    0.5358187779
H        1.7261121743   -1.9085322289   -0.4681533070
H       -1.0053158342   -2.0940152447   -1.2694496933
H       -2.2342894893   -0.1522366048    0.0020882358
H       -0.9513414652    2.6815038777   -0.4373203280
C       -0.5217211814    0.4164359956    1.2489397604
H       -0.4842303304   -0.4818055904    1.8245985017
13   
From optimize.out: Frame 12 / 32, Energy=    -286.8137932098
C        1.4500394907    0.2272622387    0.0538163229
C        0.9467922104   -1.1589284862   -0.3911702919
C       -0.2836217793   -1.4200101723   -0.6607901193
C       -1.3080730557    0.3799094409    0.0171093373
C       -0.5934704096    1.6906469200   -0.3458855567
N        0.8133217668    1.4966869743   -0.0777347625
H        2.4449354821    0.3363563205    0.5149237988
H        1.7577647680   -1.9154803735   -0.4633132184
H       -0.9899812154   -2.1582155960   -1.2178031890
H       -2.2809273013   -0.1002870021   -0.0100861343
H       -0.9415905694    2.7280069816   -0.3921294938
C       -0.5253092137    0.4068520284    1.2167577721
H       -0.4898801735   -0.5127992743    1.7563055349
13   
From optimize.out: Frame 11 / 32, Energy=    -286.7983505817
C        1.4558516748    0.2243776467    0.0451100554
C        0.9656138400   -1.1780817409   -0.3820275915
C       -0.2627384072   -1.4661853452   -0.6279298042
C       -1.3469517814    0.4176491006    0.0018212528
C       -0.6066704853    1.7246351718   -0.3329479443
N        0.8072604830    1.4959783464   -0.0768141609
H        2.4566959605    0.3468234968    0.4940288196
H        1.7894173617   -1.9224285181   -0.4584731297
H       -0.9746465965   -2.2224159472   -1.1661566848
H       -2.3275651133   -0.0483373994   -0.0222605045
H       -0.9318396735    2.7745100854   -0.3469386597
C       -0.5288972460    0.3972680613    1.1845757838
H       -0.4955300166   -0.5437929582    1.6880125680
13   
From optimize.out: Frame 10 / 32, Energy=    -286.7775993996
C        1.4366790268    0.2137486924    0.0544303014
C        0.9707232935   -1.1841096032   -0.4111830065
C       -0.2485632758   -1.4745103655   -0.6549279264
C       -1.3274865124    0.4306664180    0.0147951424
C       -0.6054285310    1.7454502125   -0.3417561322
N        0.7992222925    1.4994378378   -0.0773998009
H        2.4312120646    0.3231483564    0.5137211835
H        1.7951526673   -1.9217509512   -0.5352653110
H       -0.9353115611   -2.2824689612   -1.1570015765
H       -2.3137625484   -0.0415975784    0.0252557448
H       -0.9215871178    2.8004032630   -0.3672914468
C       -0.5539694790    0.4008287355    1.2064555562
H       -0.5268803191   -0.5092460561    1.7301672719
13   
From optimize.out: Frame 9 / 32, Energy=    -286.7516018322
C        1.4117524930    0.2014990174    0.0637181259
C        0.9759935541   -1.1869807589   -0.4454230847
C       -0.2437637858   -1.4786811109   -0.6913276063
C       -1.2998380877    0.4399957597    0.0319382671
C       -0.5996339743    1.7615009477   -0.3544089813
N        0.7894285824    1.5035063657   -0.0821364879
H        2.3967069979    0.2921774650    0.5288191772
H        1.7919401673   -1.9141149320   -0.6218983069
H       -0.8757270417   -2.3226822322   -1.1436491595
H       -2.2923768402   -0.0331332485    0.0719116729
H       -0.9115829212    2.8135880555   -0.4005436031
C       -0.5822166238    0.4037253141    1.2337656188
H       -0.5606825200   -0.4804006427    1.8092343679
13   
From optimize.out: Frame 8 / 32, Energy=    -286.7208334057
C        1.4027614811    0.2103308952    0.0725689141
C        0.9638941657   -1.1675071869   -0.4460090809
C       -0.2631658558   -1.4414494240   -0.6941164874
C       -1.2645633259    0.4182540841    0.0309806306
C       -0.5857816416    1.7480709044   -0.3711920829
N        0.7930780387    1.5138879867   -0.0913031155
H        2.3836461515    0.2897430752    0.5401489403
H        1.7658970882   -1.9003882296   -0.6367089452
H       -0.8809608726   -2.2847763079   -1.1259682683
H       -2.2555837168   -0.0591866412    0.0685901379
H       -0.9122492174    2.7903681850   -0.4375420538
C       -0.5819989166    0.3801322864    1.2450610319
H       -0.5649733784   -0.4974796272    1.8454903794
13   
From optimize.out: Frame 7 / 32, Energy=    -286.6846056614
C        1.4030616857    0.2308281157    0.0821163222
C        0.9416160747   -1.1361230012   -0.4283740766
C       -0.2933586882   -1.3808961591   -0.6785155487
C       -1.2245884152    0.3795195517    0.0200125715
C       -0.5682146506    1.7195257444   -0.3902324542
N        0.8045155179    1.5278036313   -0.1017144688
H        2.3827759447    0.3031748557    0.5524949674
H        1.7283905982   -1.8849681786   -0.6133870637
H       -0.9257305297   -2.2096483756   -1.1083060493
H       -2.2101040020   -0.1070258516    0.0412410384
H       -0.9183725691    2.7501550775   -0.4759545403
C       -0.5665028401    0.3427511789    1.2482415231
H       -0.5534881263   -0.5350965890    1.8523777790
13   
From optimize.out: Frame 2 / 32, Energy=    -286.6499739995
C        1.4033618903    0.2513253362    0.0916637303
C        0.9193379836   -1.1047388155   -0.4107390724
C       -0.3235515205   -1.3203428942   -0.6629146100
C       -1.1846135045    0.3407850192    0.0090445123
C       -0.5506476595    1.6909805844   -0.4092728256
N        0.8159529972    1.5417192760   -0.1121258221
H        2.3819057380    0.3166066362    0.5648409946
H        1.6908841083   -1.8695481275   -0.5900651821
H       -0.9705001868   -2.1345204433   -1.0906438303
H       -2.1646242873   -0.1548650620    0.0138919390
H       -0.9244959208    2.7099419700   -0.5143670267
C       -0.5510067636    0.3053700713    1.2514220143
H       -0.5420028743   -0.5727135509    1.8592651787
13   
From optimize.out: Frame 1 / 32, Energy=    -286.5828947097
C        1.4036620948    0.2718225567    0.1012111384
C        0.8970598925   -1.0733546298   -0.3931040681
C       -0.3537443528   -1.2597896292   -0.6473136714
C       -1.1446385938    0.3020504867   -0.0019235468
C       -0.5330806685    1.6624354244   -0.4283131969
N        0.8273904764    1.5556349207   -0.1225371754
H        2.3810355312    0.3300384167    0.5771870218
H        1.6533776184   -1.8541280764   -0.5667433005
H       -1.0152698439   -2.0593925110   -1.0729816113
H       -2.1191445725   -0.2027042724   -0.0134571605
H       -0.9306192725    2.6697288626   -0.5527795132
C       -0.5355106871    0.2679889638    1.2546025055
H       -0.5305176222   -0.6103305127    1.8661525784
13   
C5H5N+CH->C6H6N atoms 1-13 frame 123 charge -0.000 sz -1.000 sz^2 1.871
C        1.4039622994    0.2923197772    0.1107585465
C        0.8747818015   -1.0419704441   -0.3754690639
C       -0.3839371852   -1.1992363643   -0.6317127327
C       -1.1046636831    0.2633159543   -0.0128916059
C       -0.5155136775    1.6338902644   -0.4473535683
N        0.8388279557    1.5695505653   -0.1329485287
H        2.3801653244    0.3434701972    0.5895330490
H        1.6158711285   -1.8387080253   -0.5434214189
H       -1.0600395010   -1.9842645787   -1.0553193923
H       -2.0736648578   -0.2505434828   -0.0408062600
H       -0.9367426241    2.6295157551   -0.5911919996
C       -0.5200146106    0.2306078562    1.2577829967
H       -0.5190323702   -0.6479474746    1.8730399781
13   
C5H5N+CH->C6H6N atoms 1-13 frame 124 charge -0.000 sz -1.000 sz^2 1.970
C        1.4023957155    0.3090302340    0.1187586323
C        0.8574508410   -1.0132330206   -0.3643342836
C       -0.4069414222   -1.1379572688   -0.6297949094
C       -1.0710874720    0.2260070160   -0.0123607147
C       -0.4983703538    1.5990593024   -0.4681840476
N        0.8470316367    1.5769301746   -0.1489101517
H        2.3750247190    0.3551349603    0.6044172556
H        1.5838017898   -1.8248009382   -0.5245946929
H       -1.0946135016   -1.9063451583   -1.0568820559
H       -2.0397054411   -0.2869702101   -0.0497532077
H       -0.9402905096    2.5820098992   -0.6344578685
C       -0.5038022738    0.1980473770    1.2709627981
H       -0.5108937279   -0.6769123673    1.8951332461
13   
C5H5N+CH->C6H6N atoms 1-13 frame 125 charge -0.000 sz -1.000 sz^2 2.059
C        1.3970950255    0.3181660899    0.1236636351
C        0.8500155438   -0.9897898719   -0.3662017935
C       -0.4155664310   -1.0752263064   -0.6552471950
C       -1.0503104734    0.1915496699    0.0111713360
C       -0.4820744851    1.5516549548   -0.4925952504
N        0.8487668048    1.5712358608   -0.1759738871
H        2.3613421060    0.3632651878    0.6243785403
H        1.5626082946   -1.8139202077   -0.5147595521
H       -1.1087932994   -1.8228419705   -1.0968999336
H       -2.0287898858   -0.3005687369   -0.0218906363
H       -0.9386867328    2.5199164792   -0.6874318778
C       -0.4861572133    0.1751295205    1.3041440541
H       -0.5094492538   -0.6885706695    1.9476425605
13   
C5H5N+CH->C6H6N atoms 1-13 frame 126 charge -0.000 sz -1.000 sz^2 2.124
C        1.3917943356    0.3273019459    0.1285686379
C        0.8425802466   -0.9663467231   -0.3680693035
C       -0.4241914399   -1.0124953440   -0.6806994806
C       -1.0295334749    0.1570923239    0.0347033867
C       -0.4657786164    1.5042506071   -0.5170064531
N        0.8505019729    1.5655415469   -0.2030376226
H        2.3476594929    0.3713954152    0.6443398250
H        1.5414147993   -1.8030394771   -0.5049244112
H       -1.1229730973   -1.7393387827   -1.1369178114
H       -2.0178743304   -0.3141672636    0.0059719350
H       -0.9370829559    2.4578230593   -0.7404058872
C       -0.4685121528    0.1522116640    1.3373253100
H       -0.5080047798   -0.7002289718    2.0001518749
13   
C5H5N+CH->C6H6N atoms 1-13 frame 127 charge -0.000 sz -1.000 sz^2 2.176
C        1.3864936457    0.3364378018    0.1334736406
C        0.8351449494   -0.9429035744   -0.3699368134
C       -0.4328164488   -0.9497643816   -0.7061517662
C       -1.0087564764    0.1226349779    0.0582354374
C       -0.4494827477    1.4568462594   -0.5414176558
N        0.8522371409    1.5598472330   -0.2301013580
H        2.3339768799    0.3795256427    0.6643011097
H        1.5202213041   -1.7921587466   -0.4950892704
H       -1.1371528951   -1.6558355949   -1.1769356891
H       -2.0069587750   -0.3277657904    0.0338345064
H       -0.9354791791    2.3957296394   -0.7933798965
C       -0.4508670923    0.1292938076    1.3705065660
H       -0.5065603057   -0.7118872740    2.0526611893
13   
From optimize.out: Frame 1 / 49, Energy=    -286.6072587163
C        1.3905580200    0.3384771991    0.1126192782
C        0.8554303895   -0.9397979336   -0.3865039097
C       -0.4177861553   -0.9540743732   -0.7248774464
C       -1.0271232255    0.1337826239    0.0936585728
C       -0.4410739951    1.4392240938   -0.5410920343
N        0.8506694916    1.5480040384   -0.2603373390
H        2.3407818952    0.3909792132    0.6361458935
H        1.5488209830   -1.7806717791   -0.5112105149
H       -1.1059585066   -1.6666412824   -1.1961930285
H       -2.0427594800   -0.2644154970    0.0697368541
H       -0.9208056623    2.3770961509   -0.8029825346
C       -0.4677845423    0.1076015869    1.4122758019
H       -0.5629692122   -0.7295640409    2.0987604071
13   
From optimize.out: Frame 2 / 49, Energy=    -286.6926806513
C        1.3966815887    0.3389562239    0.0861009353
C        0.8818110775   -0.9411641129   -0.4063031574
C       -0.3975545236   -0.9731253590   -0.7421240776
C       -1.0540969190    0.1549579154    0.1316963250
C       -0.4343994650    1.4281504473   -0.5353272691
N        0.8483756173    1.5348088252   -0.2912708349
H        2.3520917392    0.4031635218    0.5974108001
H        1.5883692067   -1.7690515120   -0.5330390609
H       -1.0647872221   -1.6981836466   -1.2108855316
H       -2.0888321768   -0.1841456633    0.1074069913
H       -0.9032583655    2.3680186512   -0.8030486567
C       -0.4923016122    0.0861788596    1.4559333666
H       -0.6320989453   -0.7485641505    2.1434501699
13   
From optimize.out: Frame 3 / 49, Energy=    -286.7153962145
C        1.4028051575    0.3394352487    0.0595825923
C        0.9081917655   -0.9425302922   -0.4261024051
C       -0.3773228920   -0.9921763448   -0.7593707088
C       -1.0810706125    0.1761332069    0.1697340773
C       -0.4277249349    1.4170768008   -0.5295625039
N        0.8460817430    1.5216136121   -0.3222043307
H        2.3634015832    0.4153478303    0.5586757066
H        1.6279174305   -1.7574312449   -0.5548676069
H       -1.0236159377   -1.7297260108   -1.2255780348
H       -2.1349048735   -0.1038758297    0.1450771286
H       -0.8857110687    2.3589411515   -0.8031147789
C       -0.5168186821    0.0647561322    1.4995909313
H       -0.7012286784   -0.7675642600    2.1881399328
13   
From optimize.out: Frame 4 / 49, Energy=    -286.7315087657
C        1.4099030892    0.3438168562    0.0420382743
C        0.9279987870   -0.9420341398   -0.4284711900
C       -0.3648434643   -1.0066242076   -0.7406776640
C       -1.1014765149    0.1933103710    0.1777800513
C       -0.4244103028    1.4186399800   -0.5251954092
N        0.8429555429    1.5165525258   -0.3412246575
H        2.3774461227    0.4307408524    0.5237717525
H        1.6558504766   -1.7475640054   -0.5636917647
H       -0.9999884114   -1.7561775634   -1.1925326120
H       -2.1679930981   -0.0409567733    0.1507891918
H       -0.8731427705    2.3653996248   -0.7913664081
C       -0.5330725470    0.0318172756    1.5063386634
H       -0.7492269093   -0.8069207962    2.1824417722
13   
From optimize.out: Frame 5 / 49, Energy=    -286.7673366093
C        1.4181942454    0.3529776452    0.0354837283
C        0.9397555641   -0.9392573383   -0.4094942786
C       -0.3618575421   -1.0154349931   -0.6779721674
C       -1.1138393679    0.2055913478    0.1490974887
C       -0.4252102694    1.4356784706   -0.5225399300
N        0.8388100596    1.5214526553   -0.3456558773
H        2.3948396255    0.4500633297    0.4935594889
H        1.6695593419   -1.7398435587   -0.5565904865
H       -0.9978453251   -1.7763948054   -1.1010263624
H       -2.1851802764    0.0007141715    0.1173647529
H       -0.8666718545    2.3908837639   -0.7651497712
C       -0.5392071245   -0.0152244652    1.4678858702
H       -0.7713470765   -0.8712062230    2.1150375445
13   
From optimize.out: Frame 7 / 49, Energy=    -286.7978380619
C        1.4264854016    0.3621384342    0.0289291822
C        0.9515123411   -0.9364805368   -0.3905173672
C       -0.3588716198   -1.0242457787   -0.6152666708
C       -1.1262022210    0.2178723245    0.1204149261
C       -0.4260102361    1.4527169611   -0.5198844509
N        0.8346645764    1.5263527848   -0.3500870972
H        2.4122331283    0.4693858070    0.4633472252
H        1.6832682072   -1.7321231120   -0.5494892083
H       -0.9957022389   -1.7966120474   -1.0095201128
H       -2.2023674546    0.0423851163    0.0839403141
H       -0.8602009385    2.4163679030   -0.7389331343
C       -0.5453417021   -0.0622662061    1.4294330769
H       -0.7934672437   -0.9354916499    2.0476333168
13   
From optimize.out: Frame 8 / 49, Energy=    -286.8153023409
C        1.4347765578    0.3712992232    0.0223746361
C        0.9632691182   -0.9337037354   -0.3715404558
C       -0.3558856976   -1.0330565642   -0.5525611742
C       -1.1385650740    0.2301533012    0.0917323636
C       -0.4268102027    1.4697554517   -0.5172289717
N        0.8305190932    1.5312529143   -0.3545183170
H        2.4296266312    0.4887082843    0.4331349616
H        1.6969770725   -1.7244026654   -0.5423879302
H       -0.9935591526   -1.8168292894   -0.9180138632
H       -2.2195546328    0.0840560611    0.0505158753
H       -0.8537300226    2.4418520422   -0.7127164974
C       -0.5514762796   -0.1093079469    1.3909802837