13   
From optimize.out: Frame 1 / 3, Energy=    -286.8249799393
C       -0.0448340000   -0.0803010000    0.0000000000
C       -0.1249170000    0.0903340000   -0.0000000000
C       -0.1247420000    0.0896210000   -0.0000000000
C       -0.1246060000    0.0885580000    0.0000000000
C       -0.0450890000   -0.0802400000   -0.0000000000
N       -0.2857800000    0.8115860000   -0.0000000000
H        0.1493030000    0.0010440000    0.0000000000
H        0.1440150000   -0.0025740000   -0.0000000000
H        0.1440320000   -0.0025120000   -0.0000000000
H        0.1439880000   -0.0024430000    0.0000000000
H        0.1493350000    0.0010450000   -0.0000000000
C       -0.1245920000    0.0882970000    0.0000000000
H        0.1438870000   -0.0024150000    0.0000000000
13   
From optimize.out: Frame 2 / 3, Energy=    -286.8249829252
C       -0.0448140000   -0.0803310000    0.0000000000
C       -0.1248210000    0.0898490000   -0.0000000000
C       -0.1246790000    0.0893170000   -0.0000000000
C       -0.1247190000    0.0889560000    0.0000000000
C       -0.0450790000   -0.0802560000   -0.0000000000
N       -0.2857710000    0.8115650000   -0.0000000000
H        0.1493040000    0.0010450000    0.0000000000
H        0.1439880000   -0.0025460000   -0.0000000000
H        0.1440030000   -0.0025020000   -0.0000000000
H        0.1439880000   -0.0024580000    0.0000000000
H        0.1493570000    0.0010440000   -0.0000000000
C       -0.1247070000    0.0887570000    0.0000000000
H        0.1439490000   -0.0024400000    0.0000000000
