13   
From optimize.out: Frame 1 / 5, Energy=    -286.8723773489
C        0.0678420000   -0.1401820000   -0.0000000000
C        0.0274770000   -0.0026400000    0.0000000000
C       -0.1933620000   -0.0053620000    0.0000000000
C       -0.1865180000   -0.0086220000    0.0000000000
C        0.0371270000    0.0088800000    0.0000000000
N       -0.4011450000    0.0193700000   -0.0000000000
H        0.1632750000    0.0688090000   -0.0000000000
H        0.1449050000    0.0000990000   -0.0000000000
H        0.1286270000    0.0010050000    0.0000000000
H        0.1289310000    0.0008230000    0.0000000000
H        0.1548570000    0.0005180000    0.0000000000
C       -0.2440980000    1.0620930000   -0.0000000000
H        0.1720820000   -0.0047910000   -0.0000000000
13   
From optimize.out: Frame 2 / 5, Energy=    -286.8723842176
C        0.0679990000   -0.1403470000   -0.0000000000
C        0.0275760000   -0.0026310000    0.0000000000
C       -0.1934580000   -0.0053810000    0.0000000000
C       -0.1866070000   -0.0086410000    0.0000000000
C        0.0372500000    0.0089210000    0.0000000000
N       -0.4010980000    0.0193850000   -0.0000000000
H        0.1631880000    0.0687910000   -0.0000000000
H        0.1449290000    0.0000980000   -0.0000000000
H        0.1286210000    0.0010110000    0.0000000000
H        0.1288750000    0.0008250000    0.0000000000
H        0.1549580000    0.0005240000    0.0000000000
C       -0.2443620000    1.0622750000   -0.0000000000
H        0.1721280000   -0.0048300000   -0.0000000000
13   
From optimize.out: Frame 3 / 5, Energy=    -286.8723897864
C        0.0681720000   -0.1406100000   -0.0000000000
C        0.0275950000   -0.0026210000    0.0000000000
C       -0.1935300000   -0.0053990000    0.0000000000
C       -0.1866470000   -0.0086650000    0.0000000000
C        0.0373320000    0.0089660000    0.0000000000
N       -0.4010380000    0.0194580000   -0.0000000000
H        0.1631200000    0.0687760000   -0.0000000000
H        0.1448850000    0.0000980000   -0.0000000000
H        0.1286230000    0.0010190000    0.0000000000
H        0.1288260000    0.0008260000    0.0000000000
H        0.1549960000    0.0005310000    0.0000000000
C       -0.2445880000    1.0625780000   -0.0000000000
H        0.1722550000   -0.0049570000   -0.0000000000
13   
From optimize.out: Frame 4 / 5, Energy=    -286.8723918320
C        0.0681620000   -0.1405770000   -0.0000000000
C        0.0274990000   -0.0026210000    0.0000000000
C       -0.1934670000   -0.0053880000    0.0000000000
C       -0.1865620000   -0.0086600000    0.0000000000
C        0.0372560000    0.0089490000    0.0000000000
N       -0.4011230000    0.0195000000   -0.0000000000
H        0.1631740000    0.0688060000   -0.0000000000
H        0.1448400000    0.0000980000   -0.0000000000
H        0.1286250000    0.0010180000    0.0000000000
H        0.1288600000    0.0008260000    0.0000000000
H        0.1549010000    0.0005300000    0.0000000000
C       -0.2444560000    1.0625360000   -0.0000000000
H        0.1722910000   -0.0050180000   -0.0000000000
