13   
Frame   0 IRC: Energy =  -286.7948930000 ; +0.0000 kcal/mol
C       -0.0999990000    0.0784850000   -0.0000000000
C       -0.1717750000   -0.0020510000    0.0000000000
C       -0.1738160000   -0.0032090000   -0.0000000000
C        0.0110910000   -0.2067810000   -0.0000000000
C       -0.1433650000    0.0465580000    0.0000000000
N       -0.0766030000   -0.0062850000    0.0000000000
H        0.1334200000   -0.0190280000   -0.0000000000
H        0.1430580000   -0.0013830000    0.0000000000
H        0.1427390000   -0.0012290000   -0.0000000000
H        0.1411470000    0.0805060000    0.0000000000
H        0.1206870000    0.0036200000    0.0000000000
C       -0.1782360000    1.0201160000   -0.0000000000
H        0.1516500000    0.0106800000   -0.0000000000
13   
Frame   1 IRC: Energy =  -286.7948910000 ; +0.0013 kcal/mol
C       -0.1001080000    0.0785860000   -0.0000000000
C       -0.1717290000   -0.0020210000    0.0000000000
C       -0.1737750000   -0.0031820000   -0.0000000000
C        0.0109700000   -0.2066840000   -0.0000000000
C       -0.1433270000    0.0465230000    0.0000000000
N       -0.0765250000   -0.0062460000    0.0000000000
H        0.1334380000   -0.0190540000   -0.0000000000
H        0.1430630000   -0.0013840000    0.0000000000
H        0.1427440000   -0.0012290000   -0.0000000000
H        0.1411610000    0.0804080000    0.0000000000
H        0.1206540000    0.0036350000    0.0000000000
C       -0.1781960000    1.0199730000   -0.0000000000
H        0.1516280000    0.0106770000   -0.0000000000
13   
Frame   2 IRC: Energy =  -286.7948810000 ; +0.0075 kcal/mol
C       -0.1009230000    0.0790700000   -0.0000000000
C       -0.1714830000   -0.0019360000    0.0000000000
C       -0.1735410000   -0.0031130000   -0.0000000000
C        0.0111590000   -0.2063150000   -0.0000000000
C       -0.1436990000    0.0466420000    0.0000000000
N       -0.0762770000   -0.0061090000    0.0000000000
H        0.1334950000   -0.0191870000   -0.0000000000
H        0.1430750000   -0.0013920000    0.0000000000
H        0.1427550000   -0.0012350000   -0.0000000000
H        0.1411110000    0.0804100000    0.0000000000
H        0.1207070000    0.0036530000    0.0000000000
C       -0.1779990000    1.0189330000   -0.0000000000
H        0.1516190000    0.0105790000   -0.0000000000
13   
Frame   3 IRC: Energy =  -286.7948780000 ; +0.0094 kcal/mol
C       -0.1009460000    0.0791730000   -0.0000000000
C       -0.1714430000   -0.0019110000    0.0000000000
C       -0.1734990000   -0.0030890000   -0.0000000000
C        0.0112990000   -0.2061970000   -0.0000000000
C       -0.1438650000    0.0466480000    0.0000000000
N       -0.0762690000   -0.0060940000    0.0000000000
H        0.1334930000   -0.0192210000   -0.0000000000
H        0.1430580000   -0.0013920000    0.0000000000
H        0.1427380000   -0.0012360000   -0.0000000000
H        0.1410990000    0.0802820000    0.0000000000
H        0.1206660000    0.0036640000    0.0000000000
C       -0.1779090000    1.0188840000   -0.0000000000
H        0.1515780000    0.0104880000   -0.0000000000
13   
Frame   4 IRC: Energy =  -286.7948560000 ; +0.0232 kcal/mol
C       -0.1022460000    0.0800990000   -0.0000000000
C       -0.1710220000   -0.0017100000    0.0000000000
C       -0.1731210000   -0.0029230000   -0.0000000000
C        0.0111200000   -0.2055370000   -0.0000000000
C       -0.1441510000    0.0468160000    0.0000000000
N       -0.0757850000   -0.0057890000    0.0000000000
H        0.1336730000   -0.0194580000   -0.0000000000
H        0.1430900000   -0.0014070000    0.0000000000
H        0.1427690000   -0.0012470000   -0.0000000000
H        0.1410890000    0.0802690000    0.0000000000
H        0.1207330000    0.0037390000    0.0000000000
C       -0.1777380000    1.0167320000   -0.0000000000
H        0.1515880000    0.0104160000   -0.0000000000
13   
Frame   5 IRC: Energy =  -286.7948530000 ; +0.0251 kcal/mol
C       -0.1024920000    0.0801990000   -0.0000000000
C       -0.1709300000   -0.0016850000    0.0000000000
C       -0.1730370000   -0.0029020000   -0.0000000000
C        0.0109580000   -0.2054460000   -0.0000000000
C       -0.1441220000    0.0467750000    0.0000000000
N       -0.0756810000   -0.0057920000    0.0000000000
H        0.1336990000   -0.0194830000   -0.0000000000
H        0.1431020000   -0.0014090000    0.0000000000
H        0.1427800000   -0.0012490000   -0.0000000000
H        0.1411090000    0.0801500000    0.0000000000
H        0.1206920000    0.0037470000    0.0000000000
C       -0.1776610000    1.0166820000   -0.0000000000
H        0.1515840000    0.0104130000   -0.0000000000
13   
Frame   6 IRC: Energy =  -286.7948360000 ; +0.0358 kcal/mol
C       -0.1032680000    0.0808320000   -0.0000000000
C       -0.1706540000   -0.0015460000    0.0000000000
C       -0.1727820000   -0.0027830000   -0.0000000000
C        0.0112450000   -0.2049900000   -0.0000000000
C       -0.1446440000    0.0470140000    0.0000000000
N       -0.0754390000   -0.0055890000    0.0000000000
H        0.1337900000   -0.0196520000   -0.0000000000
H        0.1431060000   -0.0014180000    0.0000000000
H        0.1427830000   -0.0012560000   -0.0000000000
H        0.1410450000    0.0801760000    0.0000000000
H        0.1207550000    0.0038040000    0.0000000000
C       -0.1775080000    1.0151910000   -0.0000000000
H        0.1515720000    0.0102170000   -0.0000000000
13   
Frame   7 IRC: Energy =  -286.7948320000 ; +0.0383 kcal/mol
C       -0.1031610000    0.0809020000   -0.0000000000
C       -0.1706750000   -0.0015090000    0.0000000000
C       -0.1728000000   -0.0027460000   -0.0000000000
C        0.0113810000   -0.2049150000   -0.0000000000
C       -0.1447690000    0.0470220000    0.0000000000
N       -0.0754240000   -0.0055780000    0.0000000000
H        0.1337960000   -0.0196760000   -0.0000000000
H        0.1430820000   -0.0014180000    0.0000000000
H        0.1427590000   -0.0012560000   -0.0000000000
H        0.1410410000    0.0800610000    0.0000000000
H        0.1207190000    0.0038210000    0.0000000000
C       -0.1774740000    1.0151760000   -0.0000000000
H        0.1515270000    0.0101160000   -0.0000000000
13   
Frame   8 IRC: Energy =  -286.7948110000 ; +0.0515 kcal/mol
C       -0.1042960000    0.0815880000   -0.0000000000
C       -0.1702650000   -0.0013610000    0.0000000000
C       -0.1724380000   -0.0026270000   -0.0000000000
C        0.0111880000   -0.2044390000   -0.0000000000
C       -0.1450370000    0.0472320000    0.0000000000
N       -0.0751020000   -0.0054130000    0.0000000000
H        0.1339580000   -0.0198440000   -0.0000000000
H        0.1431190000   -0.0014310000    0.0000000000
H        0.1427940000   -0.0012670000   -0.0000000000
H        0.1410370000    0.0800810000    0.0000000000
H        0.1207580000    0.0038870000    0.0000000000
C       -0.1773240000    1.0135780000   -0.0000000000
H        0.1516070000    0.0100150000   -0.0000000000
13   
Frame   9 IRC: Energy =  -286.7948060000 ; +0.0546 kcal/mol
C       -0.1047470000    0.0816280000   -0.0000000000
C       -0.1701700000   -0.0013410000    0.0000000000
C       -0.1723480000   -0.0026180000   -0.0000000000
C        0.0112430000   -0.2045120000   -0.0000000000
C       -0.1450840000    0.0471950000    0.0000000000
N       -0.0749200000   -0.0054780000    0.0000000000
H        0.1340410000   -0.0198480000   -0.0000000000
H        0.1431060000   -0.0014340000    0.0000000000
H        0.1427810000   -0.0012690000   -0.0000000000
H        0.1410610000    0.0801310000    0.0000000000
H        0.1207510000    0.0038770000    0.0000000000
C       -0.1773570000    1.0136940000   -0.0000000000
H        0.1516440000    0.0099760000   -0.0000000000
13   
Frame  10 IRC: Energy =  -286.7947820000 ; +0.0697 kcal/mol
C       -0.1052770000    0.0823640000   -0.0000000000
C       -0.1698640000   -0.0011510000    0.0000000000
C       -0.1720740000   -0.0024450000   -0.0000000000
C        0.0112220000   -0.2038290000   -0.0000000000
C       -0.1455810000    0.0475650000    0.0000000000
N       -0.0746990000   -0.0051920000    0.0000000000
H        0.1340680000   -0.0200470000   -0.0000000000
H        0.1431310000   -0.0014440000    0.0000000000
H        0.1428040000   -0.0012770000   -0.0000000000
H        0.1409840000    0.0799070000    0.0000000000
H        0.1207650000    0.0039950000    0.0000000000
C       -0.1770710000    1.0118040000   -0.0000000000
H        0.1515930000    0.0097500000   -0.0000000000
13   
Frame  11 IRC: Energy =  -286.7947670000 ; +0.0791 kcal/mol
C       -0.1056540000    0.0829710000   -0.0000000000
C       -0.1697550000   -0.0010520000    0.0000000000
C       -0.1719810000   -0.0023680000   -0.0000000000
C        0.0109850000   -0.2038440000   -0.0000000000
C       -0.1455230000    0.0475370000    0.0000000000
N       -0.0743210000   -0.0049970000    0.0000000000
H        0.1342860000   -0.0201800000   -0.0000000000
H        0.1431550000   -0.0014530000    0.0000000000
H        0.1428280000   -0.0012840000   -0.0000000000
H        0.1410960000    0.0801400000    0.0000000000
H        0.1208340000    0.0040350000    0.0000000000
C       -0.1775570000    1.0104700000   -0.0000000000
H        0.1516070000    0.0100260000   -0.0000000000
13   
Frame  12 IRC: Energy =  -286.7947540000 ; +0.0872 kcal/mol
C       -0.1058640000    0.0831760000   -0.0000000000
C       -0.1696370000   -0.0010690000    0.0000000000
C       -0.1718780000   -0.0023920000   -0.0000000000
C        0.0111070000   -0.2041380000   -0.0000000000
C       -0.1455680000    0.0474480000    0.0000000000
N       -0.0743510000   -0.0050200000    0.0000000000
H        0.1343830000   -0.0202040000   -0.0000000000
H        0.1432280000   -0.0014560000    0.0000000000
H        0.1429010000   -0.0012870000   -0.0000000000
H        0.1411600000    0.0803970000    0.0000000000
H        0.1208500000    0.0040250000    0.0000000000
C       -0.1779530000    1.0104110000   -0.0000000000
H        0.1516200000    0.0101100000   -0.0000000000
13   
Frame  13 IRC: Energy =  -286.7946440000 ; +0.1562 kcal/mol
C       -0.1081750000    0.0836630000   -0.0000000000
C       -0.1686420000   -0.0006290000    0.0000000000
C       -0.1710370000   -0.0019950000   -0.0000000000
C        0.0116360000   -0.2031520000   -0.0000000000
C       -0.1472110000    0.0492680000    0.0000000000
N       -0.0741130000   -0.0053950000    0.0000000000
H        0.1345330000   -0.0203040000   -0.0000000000
H        0.1431140000   -0.0014770000    0.0000000000
H        0.1427820000   -0.0013040000   -0.0000000000
H        0.1409180000    0.0799870000    0.0000000000
H        0.1206890000    0.0043960000    0.0000000000
C       -0.1766710000    1.0087900000   -0.0000000000
H        0.1521760000    0.0081530000   -0.0000000000
13   
Frame  14 IRC: Energy =  -286.7946240000 ; +0.1688 kcal/mol
C       -0.1082810000    0.0837100000   -0.0000000000
C       -0.1685900000   -0.0005130000    0.0000000000
C       -0.1709980000   -0.0018920000   -0.0000000000
C        0.0105970000   -0.2022210000   -0.0000000000
C       -0.1473320000    0.0496210000    0.0000000000
N       -0.0738550000   -0.0053900000    0.0000000000
H        0.1345620000   -0.0203540000   -0.0000000000
H        0.1430670000   -0.0014820000    0.0000000000
H        0.1427340000   -0.0013090000   -0.0000000000
H        0.1409170000    0.0792490000    0.0000000000
H        0.1205870000    0.0044690000    0.0000000000
C       -0.1756640000    1.0078200000   -0.0000000000
H        0.1522560000    0.0082910000   -0.0000000000
13   
Frame  15 IRC: Energy =  -286.7944410000 ; +0.2836 kcal/mol
C       -0.1105360000    0.0844490000   -0.0000000000
C       -0.1676460000   -0.0002420000    0.0000000000
C       -0.1702230000   -0.0016590000   -0.0000000000
C        0.0121710000   -0.2035870000   -0.0000000000
C       -0.1484210000    0.0513550000    0.0000000000
N       -0.0734780000   -0.0058830000    0.0000000000
H        0.1348560000   -0.0203550000   -0.0000000000
H        0.1431020000   -0.0015010000    0.0000000000
H        0.1427650000   -0.0013250000   -0.0000000000
H        0.1409150000    0.0805410000    0.0000000000
H        0.1206320000    0.0048680000    0.0000000000
C       -0.1770910000    1.0067410000   -0.0000000000
H        0.1529550000    0.0066000000   -0.0000000000
13   
Frame  16 IRC: Energy =  -286.7943970000 ; +0.3112 kcal/mol
C       -0.1109700000    0.0846240000   -0.0000000000
C       -0.1674890000   -0.0002920000    0.0000000000
C       -0.1700780000   -0.0016960000   -0.0000000000
C        0.0134510000   -0.2047390000   -0.0000000000
C       -0.1479720000    0.0511480000    0.0000000000
N       -0.0736600000   -0.0057400000    0.0000000000
H        0.1347820000   -0.0203400000   -0.0000000000
H        0.1431040000   -0.0014960000    0.0000000000
H        0.1427690000   -0.0013190000   -0.0000000000
H        0.1407990000    0.0815360000    0.0000000000
H        0.1207630000    0.0048750000    0.0000000000
C       -0.1784120000    1.0074330000   -0.0000000000
H        0.1529130000    0.0060070000   -0.0000000000
13   
Frame  17 IRC: Energy =  -286.7937870000 ; +0.6940 kcal/mol
C       -0.1130800000    0.0827700000   -0.0000000000
C       -0.1668280000   -0.0001310000    0.0000000000
C       -0.1697190000   -0.0015280000   -0.0000000000
C        0.0138680000   -0.2063520000   -0.0000000000
C       -0.1501900000    0.0573170000    0.0000000000
N       -0.0737450000   -0.0082480000    0.0000000000
H        0.1343130000   -0.0195680000   -0.0000000000
H        0.1429410000   -0.0015000000    0.0000000000
H        0.1425970000   -0.0013240000   -0.0000000000
H        0.1406730000    0.0817630000    0.0000000000
H        0.1201480000    0.0059390000    0.0000000000
C       -0.1768350000    1.0088860000   -0.0000000000
H        0.1558590000    0.0019770000   -0.0000000000
13   
Frame  18 IRC: Energy =  -286.7936600000 ; +0.7737 kcal/mol
C       -0.1138280000    0.0826070000   -0.0000000000
C       -0.1666550000   -0.0002950000    0.0000000000
C       -0.1695810000   -0.0016820000   -0.0000000000
C        0.0160310000   -0.2080900000   -0.0000000000
C       -0.1499850000    0.0578220000    0.0000000000
N       -0.0739140000   -0.0083670000    0.0000000000
H        0.1341130000   -0.0194000000   -0.0000000000
H        0.1429440000   -0.0014910000    0.0000000000
H        0.1426010000   -0.0013150000   -0.0000000000
H        0.1404950000    0.0833670000    0.0000000000
H        0.1203090000    0.0060130000    0.0000000000
C       -0.1786250000    1.0100840000   -0.0000000000
H        0.1560950000    0.0007470000   -0.0000000000
13   
Frame  19 IRC: Energy =  -286.7933650000 ; +0.9588 kcal/mol
C       -0.1137070000    0.0817220000   -0.0000000000
C       -0.1667750000   -0.0001760000    0.0000000000
C       -0.1697830000   -0.0015460000   -0.0000000000
C        0.0141010000   -0.2076940000   -0.0000000000
C       -0.1507300000    0.0603250000    0.0000000000
N       -0.0739990000   -0.0095360000    0.0000000000
H        0.1338320000   -0.0191130000   -0.0000000000
H        0.1428550000   -0.0014920000    0.0000000000
H        0.1425070000   -0.0013180000   -0.0000000000
H        0.1405790000    0.0820540000    0.0000000000
H        0.1198410000    0.0064840000    0.0000000000
C       -0.1762080000    1.0104880000   -0.0000000000
H        0.1574860000   -0.0001980000   -0.0000000000
13   
Frame  20 IRC: Energy =  -286.7931660000 ; +1.0837 kcal/mol
C       -0.1148050000    0.0814480000   -0.0000000000
C       -0.1665330000   -0.0004370000    0.0000000000
C       -0.1695900000   -0.0017780000   -0.0000000000
C        0.0168120000   -0.2100610000   -0.0000000000
C       -0.1504610000    0.0611150000    0.0000000000
N       -0.0740170000   -0.0097890000    0.0000000000
H        0.1335530000   -0.0188610000   -0.0000000000
H        0.1428530000   -0.0014810000    0.0000000000
H        0.1425070000   -0.0013080000   -0.0000000000
H        0.1404180000    0.0840870000    0.0000000000
H        0.1200140000    0.0065980000    0.0000000000
C       -0.1786230000    1.0123020000   -0.0000000000
H        0.1578730000   -0.0018360000   -0.0000000000
13   
Frame  21 IRC: Energy =  -286.7919900000 ; +1.8217 kcal/mol
C       -0.1142230000    0.0771520000   -0.0000000000
C       -0.1677680000   -0.0010920000    0.0000000000
C       -0.1709490000   -0.0022740000   -0.0000000000
C        0.0145380000   -0.2134390000    0.0000000000
C       -0.1503560000    0.0686990000    0.0000000000
N       -0.0760170000   -0.0129590000    0.0000000000
H        0.1314530000   -0.0172970000   -0.0000000000
H        0.1426720000   -0.0014210000    0.0000000000
H        0.1423200000   -0.0012590000   -0.0000000000
H        0.1400930000    0.0845040000    0.0000000000
H        0.1192180000    0.0078090000    0.0000000000
C       -0.1741140000    1.0198890000   -0.0000000000
H        0.1631310000   -0.0083120000   -0.0000000000
13   
Frame  22 IRC: Energy =  -286.7916630000 ; +2.0269 kcal/mol
C       -0.1156330000    0.0765060000   -0.0000000000
C       -0.1677440000   -0.0014710000    0.0000000000
C       -0.1709460000   -0.0025940000   -0.0000000000
C        0.0167890000   -0.2159340000    0.0000000000
C       -0.1489640000    0.0694920000    0.0000000000
N       -0.0755690000   -0.0123450000    0.0000000000
H        0.1309760000   -0.0168520000   -0.0000000000
H        0.1426910000   -0.0013900000    0.0000000000
H        0.1423410000   -0.0012300000   -0.0000000000
H        0.1397470000    0.0874000000    0.0000000000
H        0.1192450000    0.0081310000    0.0000000000
C       -0.1766150000    1.0208830000   -0.0000000000
H        0.1636820000   -0.0105960000   -0.0000000000
13   
Frame  23 IRC: Energy =  -286.7903820000 ; +2.8307 kcal/mol
C       -0.1113830000    0.0720790000   -0.0000000000
C       -0.1705150000   -0.0025120000    0.0000000000
C       -0.1737090000   -0.0034390000   -0.0000000000
C        0.0087850000   -0.2181720000    0.0000000000
C       -0.1479560000    0.0768250000    0.0000000000
N       -0.0799880000   -0.0165230000    0.0000000000
H        0.1283060000   -0.0151800000   -0.0000000000
H        0.1424790000   -0.0013220000    0.0000000000
H        0.1421250000   -0.0011760000   -0.0000000000
H        0.1397320000    0.0860650000    0.0000000000
H        0.1187650000    0.0088710000    0.0000000000
C       -0.1667630000    1.0330210000   -0.0000000000
H        0.1701210000   -0.0185370000   -0.0000000000
13   
Frame  24 IRC: Energy =  -286.7899120000 ; +3.1256 kcal/mol
C       -0.1109820000    0.0711470000   -0.0000000000
C       -0.1714100000   -0.0029840000    0.0000000000
C       -0.1745810000   -0.0038280000   -0.0000000000
C        0.0073290000   -0.2196230000    0.0000000000
C       -0.1453180000    0.0780420000    0.0000000000
N       -0.0798140000   -0.0151020000    0.0000000000
H        0.1275970000   -0.0145130000   -0.0000000000
H        0.1424500000   -0.0012670000    0.0000000000
H        0.1420980000   -0.0011250000   -0.0000000000
H        0.1393600000    0.0892660000    0.0000000000
H        0.1185770000    0.0095740000    0.0000000000
C       -0.1668200000    1.0318440000   -0.0000000000
H        0.1715160000   -0.0214320000   -0.0000000000
13   
Frame  25 IRC: Energy =  -286.7884240000 ; +4.0594 kcal/mol
C       -0.1054680000    0.0670710000   -0.0000000000
C       -0.1752640000   -0.0046650000    0.0000000000
C       -0.1783150000   -0.0052670000   -0.0000000000
C       -0.0070250000   -0.2200600000    0.0000000000
C       -0.1431720000    0.0843700000    0.0000000000
N       -0.0858760000   -0.0194560000    0.0000000000
H        0.1237700000   -0.0124290000   -0.0000000000
H        0.1423940000   -0.0011770000    0.0000000000
H        0.1420430000   -0.0010520000   -0.0000000000
H        0.1396970000    0.0873000000    0.0000000000
H        0.1180330000    0.0100770000    0.0000000000
C       -0.1495800000    1.0478790000   -0.0000000000
H        0.1787630000   -0.0325920000   -0.0000000000
13   
Frame  26 IRC: Energy =  -286.7880330000 ; +4.3047 kcal/mol
C       -0.1035610000    0.0667990000   -0.0000000000
C       -0.1765620000   -0.0052250000    0.0000000000
C       -0.1795430000   -0.0057230000   -0.0000000000
C       -0.0097090000   -0.2188440000    0.0000000000
C       -0.1417950000    0.0854680000    0.0000000000
N       -0.0858960000   -0.0178800000    0.0000000000
H        0.1228020000   -0.0119060000   -0.0000000000
H        0.1423760000   -0.0011270000    0.0000000000
H        0.1420260000   -0.0010060000   -0.0000000000
H        0.1393340000    0.0897990000    0.0000000000
H        0.1180100000    0.0107240000    0.0000000000
C       -0.1462050000    1.0436400000   -0.0000000000
H        0.1787220000   -0.0347180000   -0.0000000000
13   
Frame  27 IRC: Energy =  -286.7868780000 ; +5.0295 kcal/mol
C       -0.0946970000    0.0651100000   -0.0000000000
C       -0.1817340000   -0.0073670000    0.0000000000
C       -0.1845050000   -0.0076140000   -0.0000000000
C       -0.0318460000   -0.2163320000    0.0000000000
C       -0.1387930000    0.0882730000    0.0000000000
N       -0.0917960000   -0.0217610000    0.0000000000
H        0.1186420000   -0.0098950000   -0.0000000000
H        0.1424960000   -0.0010390000    0.0000000000
H        0.1421510000   -0.0009330000   -0.0000000000
H        0.1407320000    0.0866360000    0.0000000000
H        0.1177550000    0.0111280000    0.0000000000
C       -0.1242440000    1.0575190000   -0.0000000000
H        0.1858400000   -0.0437240000   -0.0000000000
13   
Frame  28 IRC: Energy =  -286.7863660000 ; +5.3508 kcal/mol (Transition State)
C       -0.0805460000    0.0657650000   -0.0000000000
C       -0.1887140000   -0.0103550000    0.0000000000
C       -0.1911070000   -0.0102420000   -0.0000000000
C       -0.0498020000   -0.2071830000    0.0000000000
C       -0.1392350000    0.0874130000    0.0000000000
N       -0.0957490000   -0.0236580000    0.0000000000
H        0.1134950000   -0.0079210000   -0.0000000000
H        0.1427600000   -0.0009340000    0.0000000000
H        0.1424240000   -0.0008430000   -0.0000000000
H        0.1423700000    0.0836200000    0.0000000000
H        0.1180350000    0.0117250000    0.0000000000
C       -0.1001720000    1.0589330000   -0.0000000000
H        0.1862380000   -0.0463190000   -0.0000000000
13   
Frame  29 IRC: Energy =  -286.7868450000 ; +5.0502 kcal/mol
C       -0.0623550000    0.0671600000   -0.0000000000
C       -0.1965220000   -0.0134120000    0.0000000000
C       -0.1985000000   -0.0129160000   -0.0000000000
C       -0.0586080000   -0.1972310000    0.0000000000
C       -0.1442200000    0.0838350000    0.0000000000
N       -0.0978250000   -0.0256000000    0.0000000000
H        0.1088060000   -0.0063040000   -0.0000000000
H        0.1431150000   -0.0008540000    0.0000000000
H        0.1427900000   -0.0007760000   -0.0000000000
H        0.1441160000    0.0784080000    0.0000000000
H        0.1190990000    0.0118280000    0.0000000000
C       -0.0829050000    1.0560530000   -0.0000000000
H        0.1830080000   -0.0401920000   -0.0000000000
13   
Frame  30 IRC: Energy =  -286.7877900000 ; +4.4572 kcal/mol
C       -0.0462380000    0.0686030000   -0.0000000000
C       -0.2027780000   -0.0160190000    0.0000000000
C       -0.2043780000   -0.0151900000   -0.0000000000
C       -0.0559870000   -0.1877610000    0.0000000000
C       -0.1500510000    0.0810520000    0.0000000000
N       -0.0975220000   -0.0246790000    0.0000000000
H        0.1052140000   -0.0053080000   -0.0000000000
H        0.1434020000   -0.0007820000    0.0000000000
H        0.1430860000   -0.0007130000   -0.0000000000
H        0.1447490000    0.0750740000    0.0000000000
H        0.1202770000    0.0119900000    0.0000000000
C       -0.0750440000    1.0434010000   -0.0000000000
H        0.1752690000   -0.0296670000   -0.0000000000
13   
Frame  31 IRC: Energy =  -286.7879950000 ; +4.3286 kcal/mol
C       -0.0438800000    0.0683020000   -0.0000000000
C       -0.2035120000   -0.0161680000    0.0000000000
C       -0.2050850000   -0.0153230000   -0.0000000000
C       -0.0541690000   -0.1887680000    0.0000000000
C       -0.1515010000    0.0803720000    0.0000000000
N       -0.0985440000   -0.0265370000    0.0000000000
H        0.1046430000   -0.0051850000   -0.0000000000
H        0.1434900000   -0.0007950000    0.0000000000
H        0.1431760000   -0.0007270000   -0.0000000000
H        0.1452500000    0.0725760000    0.0000000000
H        0.1205350000    0.0116400000    0.0000000000
C       -0.0753910000    1.0485550000   -0.0000000000
H        0.1749880000   -0.0279420000   -0.0000000000
13   
Frame  32 IRC: Energy =  -286.7890200000 ; +3.6854 kcal/mol
C       -0.0295700000    0.0689440000   -0.0000000000
C       -0.2084780000   -0.0180260000    0.0000000000
C       -0.2097860000   -0.0169770000   -0.0000000000
C       -0.0498370000   -0.1857650000    0.0000000000
C       -0.1553080000    0.0783800000    0.0000000000
N       -0.0989750000   -0.0263610000    0.0000000000
H        0.1019500000   -0.0045060000   -0.0000000000
H        0.1438180000   -0.0007560000    0.0000000000
H        0.1435110000   -0.0006940000   -0.0000000000
H        0.1456940000    0.0679010000    0.0000000000
H        0.1216600000    0.0116080000    0.0000000000
C       -0.0741570000    1.0423660000   -0.0000000000
H        0.1694780000   -0.0161110000   -0.0000000000
13   
Frame  33 IRC: Energy =  -286.7892280000 ; +3.5548 kcal/mol
C       -0.0275990000    0.0690320000   -0.0000000000
C       -0.2089640000   -0.0183560000    0.0000000000
C       -0.2102380000   -0.0172690000   -0.0000000000
C       -0.0470480000   -0.1850250000    0.0000000000
C       -0.1556260000    0.0792380000    0.0000000000
N       -0.0993490000   -0.0265850000    0.0000000000
H        0.1012430000   -0.0044580000   -0.0000000000
H        0.1438330000   -0.0007560000    0.0000000000
H        0.1435260000   -0.0006950000   -0.0000000000
H        0.1456660000    0.0668870000    0.0000000000
H        0.1218600000    0.0116250000    0.0000000000
C       -0.0750470000    1.0415930000   -0.0000000000
H        0.1677430000   -0.0152280000   -0.0000000000
13   
Frame  34 IRC: Energy =  -286.7899980000 ; +3.0717 kcal/mol
C       -0.0203470000    0.0689080000   -0.0000000000
C       -0.2113380000   -0.0193640000    0.0000000000
C       -0.2123950000   -0.0181600000   -0.0000000000
C       -0.0391080000   -0.1831580000    0.0000000000
C       -0.1572610000    0.0774420000    0.0000000000
N       -0.1002100000   -0.0272040000    0.0000000000
H        0.0985140000   -0.0040160000   -0.0000000000
H        0.1441670000   -0.0007540000    0.0000000000
H        0.1438680000   -0.0006950000   -0.0000000000
H        0.1458080000    0.0628670000    0.0000000000
H        0.1220100000    0.0116560000    0.0000000000
C       -0.0769690000    1.0391180000   -0.0000000000
H        0.1632620000   -0.0066400000   -0.0000000000
13   
Frame  35 IRC: Energy =  -286.7901330000 ; +2.9869 kcal/mol
C       -0.0185690000    0.0692790000   -0.0000000000
C       -0.2117770000   -0.0196640000    0.0000000000
C       -0.2128330000   -0.0184160000   -0.0000000000
C       -0.0398670000   -0.1825540000    0.0000000000
C       -0.1543120000    0.0786320000    0.0000000000
N       -0.1003720000   -0.0259620000    0.0000000000
H        0.0982010000   -0.0039800000   -0.0000000000
H        0.1441410000   -0.0007390000    0.0000000000
H        0.1438390000   -0.0006810000   -0.0000000000
H        0.1456520000    0.0625990000    0.0000000000
H        0.1219800000    0.0120950000    0.0000000000
C       -0.0784920000    1.0364010000   -0.0000000000
H        0.1624090000   -0.0070090000   -0.0000000000
13   
Frame  36 IRC: Energy =  -286.7906510000 ; +2.6619 kcal/mol
C       -0.0098950000    0.0692240000   -0.0000000000
C       -0.2143310000   -0.0201270000    0.0000000000
C       -0.2152420000   -0.0188250000   -0.0000000000
C       -0.0352800000   -0.1820050000    0.0000000000
C       -0.1507160000    0.0778030000    0.0000000000
N       -0.1035780000   -0.0275410000    0.0000000000
H        0.0959020000   -0.0036570000   -0.0000000000
H        0.1441950000   -0.0007510000    0.0000000000
H        0.1438930000   -0.0006940000   -0.0000000000
H        0.1460000000    0.0591930000    0.0000000000
H        0.1219950000    0.0125440000    0.0000000000
C       -0.0828810000    1.0372380000   -0.0000000000
H        0.1599370000   -0.0024030000   -0.0000000000
13   
Frame  37 IRC: Energy =  -286.7907160000 ; +2.6211 kcal/mol
C       -0.0105350000    0.0695440000   -0.0000000000
C       -0.2141810000   -0.0203400000    0.0000000000
C       -0.2151310000   -0.0190090000   -0.0000000000
C       -0.0364720000   -0.1815420000    0.0000000000
C       -0.1486330000    0.0785690000    0.0000000000
N       -0.1030330000   -0.0262990000    0.0000000000
H        0.0958340000   -0.0036560000   -0.0000000000
H        0.1443160000   -0.0007440000    0.0000000000
H        0.1440140000   -0.0006870000   -0.0000000000
H        0.1457950000    0.0592770000    0.0000000000
H        0.1219060000    0.0128490000    0.0000000000
C       -0.0834440000    1.0352490000   -0.0000000000
H        0.1595640000   -0.0032100000   -0.0000000000
13   
Frame  38 IRC: Energy =  -286.7908070000 ; +2.5640 kcal/mol
C       -0.0095840000    0.0696090000   -0.0000000000
C       -0.2147560000   -0.0204710000    0.0000000000
C       -0.2157030000   -0.0191220000   -0.0000000000
C       -0.0358700000   -0.1806790000    0.0000000000
C       -0.1471880000    0.0788490000    0.0000000000
N       -0.1028660000   -0.0261040000    0.0000000000
H        0.0954260000   -0.0035970000   -0.0000000000
H        0.1444020000   -0.0007450000    0.0000000000
H        0.1441010000   -0.0006880000   -0.0000000000
H        0.1457270000    0.0591120000    0.0000000000
H        0.1218770000    0.0130910000    0.0000000000
C       -0.0844170000    1.0342470000   -0.0000000000
H        0.1588500000   -0.0035030000   -0.0000000000
13   