13   
Frame   0 IRC: Energy =  -286.7948930000 ; +0.0000 kcal/mol
C        0.8009712414   -0.4961334159   -0.0259176100
C        2.2696621220   -0.7635656895    0.1884726984
C        1.5823832253   -1.7642811005   -0.2614852715
C       -1.6790656886    1.1171565643   -0.0266559691
C       -1.1212553819    0.2917622329    1.0780419992
N       -0.0549043236   -0.4181804156    1.1114898170
H        0.4826926407    0.1086500725   -0.8908448211
H        3.1944874840   -0.3305268420    0.5360657065
H        1.5013018508   -2.7944984829   -0.5709554102
H       -2.6146580412    1.6267137121    0.2357961033
H       -1.7210312327    0.3005128704    1.9908393519
C       -1.1789453578    1.2852077173   -1.2387220383
H       -1.4616385380    1.8371827775   -2.1261245562
13   
Frame   1 IRC: Energy =  -286.7948910000 ; +0.0013 kcal/mol
C        0.8008589641   -0.4960562303   -0.0259081943
C        2.2695130926   -0.7633938944    0.1883559850
C        1.5822119371   -1.7641259967   -0.2616320270
C       -1.6791179525    1.1171215184   -0.0264843688
C       -1.1211338700    0.2916155690    1.0781986893
N       -0.0549845681   -0.4181774312    1.1116080834
H        0.4824366838    0.1087753286   -0.8906861240
H        3.1943903622   -0.3303673472    0.5358894590
H        1.5011759770   -2.7943422650   -0.5711886579
H       -2.6146910999    1.6268004935    0.2357597649
H       -1.7211584722    0.3005144113    1.9910348672
C       -1.1785469931    1.2849161488   -1.2387528700
H       -1.4609540608    1.8367196952   -2.1261946067
13   
Frame   2 IRC: Energy =  -286.7948810000 ; +0.0075 kcal/mol
C        0.8001689066   -0.4956771344   -0.0256177984
C        2.2690679176   -0.7628142350    0.1876535281
C        1.5817548884   -1.7634849528   -0.2624034933
C       -1.6789218650    1.1168723235   -0.0261750482
C       -1.1217246003    0.2917302622    1.0788210777
N       -0.0553435582   -0.4181531440    1.1120989958
H        0.4811540510    0.1095111973   -0.8901803900
H        3.1938630049   -0.3296101413    0.5351340272
H        1.5005356468   -2.7935992222   -0.5722026479
H       -2.6143148835    1.6268910620    0.2355056614
H       -1.7213047793    0.3003331185    1.9917019215
C       -1.1773665395    1.2835559065   -1.2377975607
H       -1.4575681893    1.8344449599   -2.1265382730
13   
Frame   3 IRC: Energy =  -286.7948780000 ; +0.0094 kcal/mol
C        0.8001009179   -0.4956248193   -0.0256080015
C        2.2690174305   -0.7627217167    0.1874816848
C        1.5817092747   -1.7633672496   -0.2625848015
C       -1.6789991130    1.1168698852   -0.0260413083
C       -1.1217866163    0.2917683751    1.0788214094
N       -0.0556525247   -0.4180680937    1.1123727356
H        0.4808432685    0.1097158219   -0.8901221375
H        3.1936935212   -0.3294556350    0.5349537815
H        1.5003871620   -2.7933824173   -0.5724109166
H       -2.6140538827    1.6268151035    0.2353992596
H       -1.7213193560    0.3002597124    1.9919014192
C       -1.1772076518    1.2833907783   -1.2377533903
H       -1.4567324302    1.8338002551   -2.1264097343
13   
Frame   4 IRC: Energy =  -286.7948560000 ; +0.0232 kcal/mol
C        0.7988584776   -0.4947827929   -0.0255418886
C        2.2678719442   -0.7613658560    0.1861906635
C        1.5805122713   -1.7619874140   -0.2640427697
C       -1.6790177275    1.1165594299   -0.0252126951
C       -1.1222464237    0.2914239918    1.0803184755
N       -0.0557183141   -0.4182599707    1.1128956856
H        0.4786104455    0.1110617912   -0.8894533807
H        3.1925923771   -0.3281138192    0.5337660767
H        1.4991523403   -2.7920169254   -0.5740458083
H       -2.6144101540    1.6274880480    0.2354203620
H       -1.7217426092    0.2999371020    1.9933221041
C       -1.1745275690    1.2805964598   -1.2360779692
H       -1.4499350585    1.8294599555   -2.1275388557
13   
Frame   5 IRC: Energy =  -286.7948530000 ; +0.0251 kcal/mol
C        0.7986704042   -0.4946627237   -0.0255194509
C        2.2677438134   -0.7612268216    0.1860536123
C        1.5803869349   -1.7618345920   -0.2641921807
C       -1.6790884203    1.1164701227   -0.0248769649
C       -1.1221237173    0.2912725326    1.0804837892
N       -0.0558156100   -0.4181948597    1.1128886697
H        0.4783900319    0.1111842669   -0.8893637310
H        3.1924958759   -0.3279682290    0.5336513311
H        1.4990238725   -2.7918956848   -0.5742189460
H       -2.6145103765    1.6275955728    0.2354328420
H       -1.7218069327    0.2999195871    1.9934629099
C       -1.1741293228    1.2803084219   -1.2361017797
H       -1.4492365530    1.8290324068   -2.1277001011
13   
Frame   6 IRC: Energy =  -286.7948360000 ; +0.0358 kcal/mol
C        0.7979443591   -0.4940973418   -0.0256329009
C        2.2670988016   -0.7603715116    0.1850283882
C        1.5797358742   -1.7609196170   -0.2653066479
C       -1.6792456049    1.1164344384   -0.0244921489
C       -1.1228659216    0.2914293270    1.0812356785
N       -0.0562077439   -0.4181197572    1.1132832309
H        0.4768346691    0.1122254981   -0.8891785915
H        3.1916511044   -0.3270545502    0.5329755917
H        1.4981126911   -2.7909665388   -0.5751967815
H       -2.6143926390    1.6277747368    0.2355584719
H       -1.7218480841    0.2994676607    1.9945903956
C       -1.1727448721    1.2785760663   -1.2346562461
H       -1.4440726339    1.8256215893   -2.1282084399
13   
Frame   7 IRC: Energy =  -286.7948320000 ; +0.0383 kcal/mol
C        0.7979425854   -0.4940329906   -0.0257663653
C        2.2670708731   -0.7601479896    0.1849038337
C        1.5795785553   -1.7608731842   -0.2655294301
C       -1.6793873739    1.1164862047   -0.0243826579
C       -1.1228770238    0.2914322592    1.0812418150
N       -0.0564543003   -0.4180513274    1.1134957332
H        0.4765766699    0.1124021822   -0.8891589664
H        3.1914727250   -0.3269239803    0.5328552188
H        1.4979658414   -2.7907729607   -0.5753386091
H       -2.6142672177    1.6277428718    0.2355558114
H       -1.7218715982    0.2993718385    1.9948530312
C       -1.1725874526    1.2784369943   -1.2346588971
H       -1.4431622837    1.8249300822   -2.1280705175
13   
Frame   8 IRC: Energy =  -286.7948110000 ; +0.0515 kcal/mol
C        0.7969236321   -0.4932409738   -0.0259876525
C        2.2661420845   -0.7592310429    0.1837982850
C        1.5787957482   -1.7596998450   -0.2666410766
C       -1.6797415616    1.1163441572   -0.0234160688
C       -1.1232435336    0.2911888750    1.0823629465
N       -0.0564122385   -0.4180589378    1.1134024314
H        0.4750906264    0.1134809587   -0.8891973800
H        3.1905634695   -0.3260197938    0.5322869571
H        1.4970076742   -2.7898504004   -0.5762205430
H       -2.6149652335    1.6283534695    0.2359890910
H       -1.7219306474    0.2989574260    1.9959005059
C       -1.1708256922    1.2763669696   -1.2330016482
H       -1.4374043279    1.8214091378   -2.1292758478
13   
Frame   9 IRC: Energy =  -286.7948060000 ; +0.0546 kcal/mol
C        0.7965236128   -0.4929602306   -0.0260049011
C        2.2661743701   -0.7590192585    0.1836829912
C        1.5786735063   -1.7597064741   -0.2668735548
C       -1.6796071471    1.1160864518   -0.0229967672
C       -1.1232238114    0.2910564055    1.0826426381
N       -0.0564879773   -0.4179517519    1.1132582685
H        0.4748832064    0.1136072996   -0.8891484857
H        3.1903861346   -0.3258965553    0.5321875532
H        1.4968617898   -2.7896680982   -0.5763435771
H       -2.6153330073    1.6285954330    0.2361161017
H       -1.7219000134    0.2989114317    1.9959571203
C       -1.1704367805    1.2760413932   -1.2329190903
H       -1.4365138830    1.8209039539   -2.1295582969
13   
Frame  10 IRC: Energy =  -286.7947820000 ; +0.0697 kcal/mol
C        0.7961895683   -0.4924978361   -0.0265309709
C        2.2654156191   -0.7580846670    0.1825226402
C        1.5779655350   -1.7586478712   -0.2680900237
C       -1.6806668404    1.1166726561   -0.0226382428
C       -1.1240158873    0.2913795231    1.0830922409
N       -0.0570351530   -0.4176617085    1.1133704769
H        0.4734931006    0.1147348328   -0.8894854534
H        3.1895353253   -0.3250414022    0.5318366925
H        1.4959083928   -2.7889079677   -0.5770330573
H       -2.6152411685    1.6285645787    0.2367786233
H       -1.7217965280    0.2981479179    1.9975633637
C       -1.1692152097    1.2743708850   -1.2313196477
H       -1.4305367542    1.8169710592   -2.1300666418
13   
Frame  11 IRC: Energy =  -286.7947670000 ; +0.0791 kcal/mol
C        0.7956803796   -0.4920295146   -0.0267876862
C        2.2652440660   -0.7577581793    0.1820947067
C        1.5777638663   -1.7583431281   -0.2685776052
C       -1.6808448242    1.1168223449   -0.0226644692
C       -1.1240322293    0.2910028668    1.0840260198
N       -0.0568251832   -0.4178667541    1.1134815180
H        0.4729381762    0.1153131877   -0.8899152657
H        3.1891744648   -0.3246685462    0.5317112832
H        1.4954919295   -2.7886027363   -0.5773139041
H       -2.6170965100    1.6294311307    0.2379647216
H       -1.7219467029    0.2978549912    1.9984669999
C       -1.1671671040    1.2729681466   -1.2314248176
H       -1.4283803289    1.8158761908   -2.1310615012
13   
Frame  12 IRC: Energy =  -286.7947540000 ; +0.0872 kcal/mol
C        0.7953920332   -0.4917647644   -0.0269317995
C        2.2649162897   -0.7580607406    0.1817874582
C        1.5779771935   -1.7578508622   -0.2685428915
C       -1.6805617260    1.1165926731   -0.0225424375
C       -1.1239576182    0.2907441995    1.0845316943
N       -0.0568138112   -0.4178851005    1.1134872692
H        0.4727870612    0.1154664916   -0.8900247362
H        3.1891604587   -0.3245018517    0.5317124865
H        1.4953492793   -2.7886204076   -0.5774342159
H       -2.6182651831    1.6300047010    0.2385448100
H       -1.7219776982    0.2977796204    1.9986853977
C       -1.1662384930    1.2724756866   -1.2317910247
H       -1.4277677859    1.8156203548   -2.1314820106
13   
Frame  13 IRC: Energy =  -286.7946440000 ; +0.1562 kcal/mol
C        0.7938131157   -0.4892406011   -0.0303628223
C        2.2630172537   -0.7550267369    0.1789114414
C        1.5756717198   -1.7553956233   -0.2719634012
C       -1.6859590569    1.1182956679   -0.0176953082
C       -1.1260293429    0.2916809643    1.0854781347
N       -0.0580492986   -0.4158174991    1.1103688373
H        0.4710167824    0.1182214221   -0.8934568653
H        3.1864048889   -0.3231088916    0.5314471728
H        1.4931628958   -2.7864292224   -0.5781089637
H       -2.6204944841    1.6306582592    0.2424613512
H       -1.7204710003    0.2952540847    2.0019487930
C       -1.1674855199    1.2696581362   -1.2239269656
H       -1.4045979538    1.8012500400   -2.1351014042
13   
Frame  14 IRC: Energy =  -286.7946240000 ; +0.1688 kcal/mol
C        0.7936780434   -0.4891220262   -0.0304437167
C        2.2630111246   -0.7545814216    0.1788239653
C        1.5753335902   -1.7554374579   -0.2722894629
C       -1.6875054154    1.1191401107   -0.0172427660
C       -1.1260321303    0.2919218798    1.0849000416
N       -0.0577304310   -0.4159580051    1.1102039588
H        0.4709023454    0.1184443274   -0.8937765049
H        3.1861719387   -0.3230433820    0.5314126732
H        1.4930246524   -2.7862256577   -0.5781341953
H       -2.6196070372    1.6301442582    0.2424144385
H       -1.7205977292    0.2950832650    2.0025241744
C       -1.1675758639    1.2691859211   -1.2226983305
H       -1.4030730878    1.8004481885   -2.1356942755
13   
Frame  15 IRC: Energy =  -286.7944410000 ; +0.2836 kcal/mol
C        0.7924299024   -0.4863381917   -0.0349316847
C        2.2616130888   -0.7530150593    0.1764120060
C        1.5742873816   -1.7533511288   -0.2747138185
C       -1.6929957519    1.1214303354   -0.0135033148
C       -1.1284428119    0.2926304272    1.0870466676
N       -0.0593964129   -0.4132119955    1.1060487483
H        0.4711607623    0.1207235331   -0.8992231385
H        3.1844429142   -0.3221875945    0.5316003333
H        1.4915980697   -2.7850667318   -0.5783720820
H       -2.6286400815    1.6328764286    0.2517222000
H       -1.7189105257    0.2921770951    2.0062332874
C       -1.1673284151    1.2666357911   -1.2175613558
H       -1.3798181200    1.7866970910   -2.1407578483
13   
Frame  16 IRC: Energy =  -286.7943970000 ; +0.3112 kcal/mol
C        0.7925826756   -0.4861900211   -0.0355019357
C        2.2615596640   -0.7527935561    0.1761780796
C        1.5741638282   -1.7532256710   -0.2750152979
C       -1.6921717383    1.1208374915   -0.0133334752
C       -1.1288671828    0.2923205276    1.0884627327
N       -0.0603765928   -0.4123409246    1.1054741216
H        0.4711677546    0.1209699394   -0.8997819080
H        3.1842372900   -0.3221207315    0.5316142740
H        1.4914587768   -2.7849223235   -0.5783779646
H       -2.6307265307    1.6337693988    0.2530485022
H       -1.7182860185    0.2918736823    2.0059225705
C       -1.1674816831    1.2669318825   -1.2181027962
H       -1.3772602431    1.7848903056   -2.1405869030
13   
Frame  17 IRC: Energy =  -286.7937870000 ; +0.6940 kcal/mol
C        0.7915748543   -0.4820834253   -0.0435418447
C        2.2602328947   -0.7509927813    0.1736923205
C        1.5730045174   -1.7512656814   -0.2777449732
C       -1.7101998318    1.1295913902   -0.0047538501
C       -1.1322397389    0.2952768183    1.0866905827
N       -0.0614093351   -0.4081481952    1.0965191547
H        0.4752334362    0.1231018928   -0.9101540535
H        3.1825993725   -0.3217002801    0.5316892311
H        1.4905093850   -2.7837731690   -0.5784783070
H       -2.6451353734    1.6345104377    0.2759521420
H       -1.7162986706    0.2882112163    2.0104479145
C       -1.1775380719    1.2682321739   -1.2053653079
H       -1.3303334384    1.7590396030   -2.1549530090
13   
Frame  18 IRC: Energy =  -286.7936600000 ; +0.7737 kcal/mol
C        0.7914706277   -0.4815561262   -0.0446012888
C        2.2601214169   -0.7509012133    0.1733029705
C        1.5730210132   -1.7509934025   -0.2780932887
C       -1.7103261257    1.1295945239   -0.0044434729
C       -1.1330641444    0.2953322742    1.0878530902
N       -0.0623158449   -0.4069355534    1.0949615601
H        0.4757849684    0.1233710179   -0.9115133508
H        3.1823831728   -0.3216572203    0.5317113113
H        1.4903903526   -2.7836308376   -0.5784726265
H       -2.6487771633    1.6354783887    0.2796548905
H       -1.7155096535    0.2877242010    2.0102322432
C       -1.1794662442    1.2693811519   -1.2050884271
H       -1.3237123758    1.7547927957   -2.1555036109
13   
Frame  19 IRC: Energy =  -286.7933650000 ; +0.9588 kcal/mol
C        0.7914605154   -0.4803510970   -0.0474246130
C        2.2598080168   -0.7502258529    0.1727110142
C        1.5725457940   -1.7505896521   -0.2789019472
C       -1.7187250369    1.1337849415   -0.0008359469
C       -1.1337560756    0.2966112409    1.0858812061
N       -0.0623181080   -0.4059102883    1.0922978599
H        0.4773795713    0.1239298323   -0.9149398592
H        3.1820127956   -0.3215876024    0.5316937595
H        1.4902165820   -2.7833602929   -0.5785185018
H       -2.6524996192    1.6347451277    0.2878394791
H       -1.7152141164    0.2866068648    2.0120678671
C       -1.1832578447    1.2699330656   -1.2003582261
H       -1.3076524742    1.7464137130   -2.1615120917
13   
Frame  20 IRC: Energy =  -286.7931660000 ; +1.0837 kcal/mol
C        0.7911105532   -0.4795539766   -0.0487278436
C        2.2598014778   -0.7502758767    0.1722716791
C        1.5727438505   -1.7503525747   -0.2792617487
C       -1.7193917691    1.1341104043   -0.0004041876
C       -1.1346327209    0.2966675460    1.0871291744
N       -0.0632363206   -0.4044451061    1.0901046764
H        0.4782540295    0.1242234940   -0.9167821727
H        3.1817793496   -0.3215770379    0.5316925375
H        1.4901283518   -2.7831935013   -0.5785039345
H       -2.6578827292    1.6360043423    0.2936572429
H       -1.7143320608    0.2860282805    2.0118747102
C       -1.1859037705    1.2717250789   -1.2004710074
H       -1.2984382414    1.7406389272   -2.1625791260
13   
Frame  21 IRC: Energy =  -286.7919900000 ; +1.8217 kcal/mol
C        0.7917449219   -0.4772648730   -0.0551344390
C        2.2594703320   -0.7496041830    0.1706053163
C        1.5726517816   -1.7494247382   -0.2809568524
C       -1.7373274827    1.1430536467    0.0073476055
C       -1.1363240799    0.2991124499    1.0838154351
N       -0.0638887800   -0.4014307986    1.0832685692
H        0.4825053489    0.1247207853   -0.9234035832
H        3.1814773235   -0.3214171866    0.5316191221
H        1.4899460604   -2.7830609897   -0.5786725465
H       -2.6706804585    1.6339704110    0.3198633407
H       -1.7120498081    0.2836010166    2.0133178399
C       -1.2071834640    1.2826145780   -1.1924576012
H       -1.2503416952    1.7151298815   -2.1792122065
13   
Frame  22 IRC: Energy =  -286.7916630000 ; +2.0269 kcal/mol
C        0.7911671045   -0.4765101869   -0.0559825289
C        2.2596677843   -0.7497021897    0.1702006678
C        1.5729650601   -1.7493676483   -0.2813184130
C       -1.7373951360    1.1435864065    0.0062854474
C       -1.1360602620    0.2984776576    1.0848984276
N       -0.0652594841   -0.3996795396    1.0810946209
H        0.4834144131    0.1247421290   -0.9246280605
H        3.1814551825   -0.3213736343    0.5316755292
H        1.4898925496   -2.7831125506   -0.5786678595
H       -2.6760586953    1.6348674343    0.3264691470
H       -1.7111922347    0.2831120127    2.0129950794
C       -1.2125339869    1.2865039836   -1.1932408729
H       -1.2400622951    1.7084561257   -2.1797811845
13   
Frame  23 IRC: Energy =  -286.7903820000 ; +2.8307 kcal/mol
C        0.7924018745   -0.4754321781   -0.0605235045
C        2.2596716467   -0.7492808562    0.1690526250
C        1.5730293456   -1.7489360569   -0.2824985569
C       -1.7516419121    1.1497025746    0.0145833614
C       -1.1372689601    0.3002634979    1.0823162827
N       -0.0634149334   -0.3997528009    1.0778780476
H        0.4861895204    0.1249692976   -0.9284922060
H        3.1811810935   -0.3213067895    0.5315343638
H        1.4897846831   -2.7829355476   -0.5787293356
H       -2.6830551853    1.6316257100    0.3459796445
H       -1.7095753688    0.2817060073    2.0133807908
C       -1.2384221239    1.3025559524   -1.1900342778
H       -1.1988796801    1.6868211893   -2.1944472352
13   
Frame  24 IRC: Energy =  -286.7899120000 ; +3.1256 kcal/mol
C        0.7921325731   -0.4747708468   -0.0616674386
C        2.2597372972   -0.7493039385    0.1687568700
C        1.5731864884   -1.7488530552   -0.2827558649
C       -1.7524268743    1.1512596362    0.0120896841
C       -1.1352878144    0.2986908297    1.0829400348
N       -0.0638643541   -0.3989828601    1.0765685465
H        0.4870988573    0.1249831429   -0.9296340667
H        3.1811005916   -0.3212990239    0.5315540264
H        1.4897415986   -2.7829186535   -0.5786888293
H       -2.6882342064    1.6320857609    0.3533161466
H       -1.7095137416    0.2813645685    2.0139736457
C       -1.2477180788    1.3089024520   -1.1903086649
H       -1.1859523365    1.6788419878   -2.1961440897
13   
Frame  25 IRC: Energy =  -286.7884240000 ; +4.0594 kcal/mol
C        0.7925546595   -0.4739035850   -0.0644540171
C        2.2599147393   -0.7490316590    0.1676134824
C        1.5734375976   -1.7485391505   -0.2838553020
C       -1.7608493264    1.1531972408    0.0209441068
C       -1.1358806262    0.2999430459    1.0804724594
N       -0.0628634063   -0.3986686448    1.0739423730
H        0.4891666254    0.1247764304   -0.9315320916
H        3.1809667031   -0.3212222111    0.5315549503
H        1.4896275819   -2.7829399776   -0.5786389999
H       -2.6901649852    1.6277050451    0.3673238013
H       -1.7070704814    0.2806450684    2.0116589907
C       -1.2844476244    1.3337744961   -1.1909609746
H       -1.1443914568    1.6542639012   -2.2040687787
13   
Frame  26 IRC: Energy =  -286.7880330000 ; +4.3047 kcal/mol
C        0.7926666715   -0.4737995146   -0.0649110551
C        2.2599817103   -0.7490194370    0.1674081018
C        1.5735309156   -1.7485062834   -0.2840455987
C       -1.7606343495    1.1551500536    0.0158458430
C       -1.1350434165    0.2998215552    1.0793768525
N       -0.0630457352   -0.3985685874    1.0739182723
H        0.4896179153    0.1248522772   -0.9322113837
H        3.1808714027   -0.3212402685    0.5316610121
H        1.4895683732   -2.7829413458   -0.5784981860
H       -2.6907995781    1.6266938231    0.3708529631
H       -1.7069787423    0.2802232347    2.0124837324
C       -1.2942722213    1.3405542708   -1.1914885705
H       -1.1354629456    1.6467802222   -2.2003919832
13   
Frame  27 IRC: Energy =  -286.7868780000 ; +5.0295 kcal/mol
C        0.7928023209   -0.4729263897   -0.0673260539
C        2.2601168431   -0.7488071308    0.1664122684
C        1.5737752246   -1.7482179826   -0.2849534658
C       -1.7654987158    1.1546855201    0.0245554048
C       -1.1336362086    0.2985697422    1.0798465548
N       -0.0610736130   -0.3992663377    1.0721970846
H        0.4913703370    0.1246943774   -0.9338817958
H        3.1807598510   -0.3211814417    0.5316000233
H        1.4894998696   -2.7829296357   -0.5784766930
H       -2.6940658715    1.6238884772    0.3832074226
H       -1.7057996177    0.2799379750    2.0111678622
C       -1.3341017689    1.3691139012   -1.1958716807
H       -1.0941486508    1.6224389251   -2.2084769315
13   
Frame  28 IRC: Energy =  -286.7863660000 ; +5.3508 kcal/mol (Transition State)
C        0.7931515510   -0.4724517512   -0.0691662491
C        2.2603224336   -0.7486493853    0.1655460445
C        1.5740622374   -1.7480346079   -0.2857398210
C       -1.7667845506    1.1551256892    0.0254396810
C       -1.1318457564    0.2982739994    1.0773638665
N       -0.0597314567   -0.3995803695    1.0706104517
H        0.4927864428    0.1246379075   -0.9354682076
H        3.1805906546   -0.3211719976    0.5318589952
H        1.4893618252   -2.7830253874   -0.5781330403
H       -2.6937798531    1.6200808072    0.3922406437
H       -1.7045624007    0.2801404815    2.0085980964
C       -1.3808305297    1.4029590723   -1.2023046382
H       -1.0527405975    1.5916955417   -2.2008458228
13   
Frame  29 IRC: Energy =  -286.7868450000 ; +5.0502 kcal/mol
C        0.7935463110   -0.4720495845   -0.0709099667
C        2.2605211000   -0.7484970069    0.1647202923
C        1.5743378625   -1.7478639749   -0.2864889553
C       -1.7680436449    1.1556697572    0.0260464396
C       -1.1300976534    0.2980430699    1.0747906921
N       -0.0584083922   -0.3998767105    1.0690166216
H        0.4941802071    0.1246014267   -0.9370773107
H        3.1804096217   -0.3211772703    0.5321744247
H        1.4892140746   -2.7831371807   -0.5777323957
H       -2.6933880769    1.6162658254    0.4011186044
H       -1.7033399651    0.2803730406    2.0059796234
C       -1.4269445749    1.4371134147   -1.2105206601
H       -1.0119868696    1.5605351932   -2.1911174096
13   
Frame  30 IRC: Energy =  -286.7877900000 ; +4.4572 kcal/mol
C        0.7943510117   -0.4720746155   -0.0722313977
C        2.2608622120   -0.7484718172    0.1640974806
C        1.5747166946   -1.7478676226   -0.2870655601
C       -1.7691303868    1.1594352033    0.0188645952
C       -1.1284095383    0.2992887938    1.0687990482
N       -0.0582944418   -0.3993258171    1.0673371903
H        0.4950701067    0.1246403888   -0.9383538414
H        3.1802355271   -0.3212024713    0.5326857897
H        1.4890414859   -2.7833345630   -0.5771759430
H       -2.6910091795    1.6125529467    0.4064660190
H       -1.7021190369    0.2811308246    2.0020652189
C       -1.4642621980    1.4646451782   -1.2172727046
H       -0.9810522567    1.5305835712   -2.1682158953
13   
Frame  31 IRC: Energy =  -286.7879950000 ; +4.3286 kcal/mol
C        0.7944309611   -0.4719963014   -0.0725626490
C        2.2609208007   -0.7484395659    0.1639525161
C        1.5747734383   -1.7478541303   -0.2872094636
C       -1.7700349599    1.1583740022    0.0229322991
C       -1.1289179564    0.2996138167    1.0687827769
N       -0.0578029773   -0.3992557891    1.0663474143
H        0.4952744714    0.1246004240   -0.9385556345
H        3.1802832039   -0.3211802890    0.5326864416
H        1.4890539930   -2.7833882525   -0.5771949797
H       -2.6917755383    1.6125599367    0.4077239323
H       -1.7017131439    0.2815346995    2.0004064786
C       -1.4696436002    1.4690549253   -1.2192774942
H       -0.9748486924    1.5263765239   -2.1680316379
13   
Frame  32 IRC: Energy =  -286.7890200000 ; +3.6854 kcal/mol
C        0.7951304314   -0.4713964138   -0.0752521533
C        2.2614021633   -0.7484824481    0.1631831933
C        1.5753541741   -1.7478842920   -0.2879146483
C       -1.7739196277    1.1618660039    0.0209856094
C       -1.1266001329    0.2997767286    1.0645862694
N       -0.0571437794   -0.3982342130    1.0624534342
H        0.4968550055    0.1246958589   -0.9410646500
H        3.1803250923   -0.3211820761    0.5330930741
H        1.4890214322   -2.7837104078   -0.5768139529
H       -2.6956625635    1.6114816494    0.4168753094
H       -1.7013603100    0.2833218798    1.9951723570
C       -1.5033364971    1.4942171754   -1.2260246407
H       -0.9400653881    1.4955305548   -2.1492792016
13   
Frame  33 IRC: Energy =  -286.7892280000 ; +3.5548 kcal/mol
C        0.7959425290   -0.4716888365   -0.0758801540
C        2.2615401691   -0.7484182531    0.1629870462
C        1.5754482879   -1.7479172144   -0.2881472100
C       -1.7764412128    1.1645236767    0.0187319965
C       -1.1279354116    0.3017041266    1.0619919814
N       -0.0570712060   -0.3980406107    1.0618030482
H        0.4972145234    0.1248420830   -0.9419556452
H        3.1802727725   -0.3212347343    0.5332787281
H        1.4890112242   -2.7837741496   -0.5766054507
H       -2.6948703827    1.6105324548    0.4179657953
H       -1.7010092902    0.2835377749    1.9940039255
C       -1.5060310060    1.4967862107   -1.2279695125
H       -0.9360709968    1.4891474719   -2.1402045489
13   
Frame  34 IRC: Energy =  -286.7899980000 ; +3.0717 kcal/mol
C        0.7963938663   -0.4705258001   -0.0794557063
C        2.2625443564   -0.7484977762    0.1614539839
C        1.5765786888   -1.7479719171   -0.2896470009
C       -1.7832139405    1.1688165454    0.0198052126
C       -1.1297191728    0.3066165511    1.0527036316
N       -0.0604938860   -0.3925556404    1.0535874625
H        0.4999018232    0.1247284329   -0.9458952894
H        3.1805939470   -0.3212197147    0.5336964238
H        1.4891659503   -2.7843756983   -0.5763361265
H       -2.7002939884    1.6108861446    0.4262888106
H       -1.6990586928    0.2859684424    1.9844976707
C       -1.5283431958    1.5122357432   -1.2294708900
H       -0.9040557558    1.4558946872   -2.1112281825
13   
Frame  35 IRC: Energy =  -286.7901330000 ; +2.9869 kcal/mol
C        0.7971973781   -0.4704378670   -0.0810248168
C        2.2622551323   -0.7481696812    0.1614819525
C        1.5762030436   -1.7478319355   -0.2897101722
C       -1.7869232099    1.1724744602    0.0169899792
C       -1.1292254404    0.3065997304    1.0519928234
N       -0.0597151549   -0.3927327585    1.0526275221
H        0.5006996464    0.1250073374   -0.9477667394
H        3.1804905739   -0.3213320506    0.5337322795
H        1.4892484849   -2.7843044074   -0.5762009605
H       -2.7017600833    1.6113141472    0.4277488156
H       -1.7000306235    0.2864924274    1.9845875502
C       -1.5279554679    1.5123502169   -1.2303608771
H       -0.9004842794    1.4505703807   -2.1040973564
13   
Frame  36 IRC: Energy =  -286.7906510000 ; +2.6619 kcal/mol
C        0.7983084109   -0.4677905361   -0.0893657844
C        2.2628176071   -0.7474662346    0.1597316477
C        1.5766440399   -1.7476302184   -0.2917173055
C       -1.7985115499    1.1782802344    0.0222124549
C       -1.1333488664    0.3117773903    1.0459656177
N       -0.0623204747   -0.3871740373    1.0425654875
H        0.5061008657    0.1261398458   -0.9587658935
H        3.1798876962   -0.3216379701    0.5333858340
H        1.4896793957   -2.7837461095   -0.5760626254
H       -2.7156900404    1.6171677980    0.4369743966
H       -1.7008970474    0.2889699212    1.9788778264
C       -1.5369602088    1.5179008564   -1.2290907006
H       -0.8657098279    1.4152090598   -2.0747109554
13   
Frame  37 IRC: Energy =  -286.7907160000 ; +2.6211 kcal/mol
C        0.7981193533   -0.4676390906   -0.0894597030
C        2.2621974335   -0.7475486361    0.1594064702
C        1.5765671703   -1.7469464369   -0.2917020739
C       -1.8003242379    1.1803953256    0.0200630335
C       -1.1331743269    0.3116887728    1.0458738149
N       -0.0625211654   -0.3866680704    1.0416547940
H        0.5066154637    0.1260576080   -0.9593804104
H        3.1800943421   -0.3215182461    0.5335732847
H        1.4896347771   -2.7840549829   -0.5760663397
H       -2.7149801238    1.6168965183    0.4365728310
H       -1.7010338978    0.2888703280    1.9792688457
C       -1.5353111241    1.5167668948   -1.2290303106
H       -0.8658836642    1.4137000155   -2.0707742363
13   
Frame  38 IRC: Energy =  -286.7908070000 ; +2.5640 kcal/mol
C        0.7978181584   -0.4667283415   -0.0912233506
C        2.2615573046   -0.7466942472    0.1587416021
C        1.5758476275   -1.7462902033   -0.2924814014
C       -1.8029181362    1.1824926911    0.0193604081
C       -1.1349039426    0.3134810872    1.0441980200
N       -0.0637458941   -0.3846996004    1.0387562423
H        0.5085270863    0.1258847723   -0.9619611631
H        3.1799275782   -0.3213673288    0.5336453829
H        1.4895362646   -2.7840645605   -0.5760686930
H       -2.7160381921    1.6179246425    0.4361723001
H       -1.7009719556    0.2884691181    1.9798499584
C       -1.5336202931    1.5151512281   -1.2278684400
H       -0.8610156058    1.4064407424   -2.0611208657
13   