13   
From qcts2.out: Frame 4 / 4, Energy=    -286.7863656009
C        0.7883701540   -0.4763199672   -0.0796828912
C        2.2557055647   -0.7521665866    0.1544128751
C        1.5695751584   -1.7516037179   -0.2969553767
C       -1.7720064546    1.1504793230    0.0163751215
C       -1.1364407714    0.2934674644    1.0677901296
N       -0.0641254742   -0.4040718053    1.0604232432
H        0.4875204164    0.1209665363   -0.9456809340
H        3.1759803128   -0.3245410482    0.5205364612
H        1.4850718100   -2.7865230729   -0.5896582651
H       -2.6990057884    1.6150434468    0.3836609895
H       -1.7088182741    0.2748609771    1.9992235212
C       -1.3865648296    1.3988285512   -1.2114259291
H       -1.0588878955    1.5879887054   -2.2100225538
