
Running Job 1 of 1 irc_reactant.in
qchem irc_reactant.in_49297.0 ./irc_reactant.d/ 1
/home/leeping/opt/qchem/5.0.2-openmp/exe/qcprog.exe_s irc_reactant.in_49297.0 ./irc_reactant.d/
Check license passed

                  Welcome to Q-Chem
     A Quantum Leap Into The Future Of Chemistry


 Q-Chem 5.0, Q-Chem, Inc., Pleasanton, CA (2017)

 Yihan Shao,  Zhengting Gan,  E. Epifanovsky,  A. T. B. Gilbert,  M. Wormit,  
 J. Kussmann,  A. W. Lange,  A. Behn,  Jia Deng,  Xintian Feng,  D. Ghosh,  
 M. Goldey,  P. R. Horn,  L. D. Jacobson,  I. Kaliman,  T. Kus,  A. Landau,  
 Jie Liu,  E. I. Proynov,  R. M. Richard,  R. P. Steele,  E. J. Sundstrom,  
 H. L. Woodcock III,  P. M. Zimmerman,  D. Zuev,  B. Albrecht,  E. Alguire,  
 S. A. Baeppler,  D. Barton,  Z. Benda,  Y. A. Bernard,  E. J. Berquist,  
 K. B. Bravaya,  H. Burton,  D. Casanova,  Chun-Min Chang,  Yunqing Chen,  
 A. Chien,  K. D. Closser,  M. P. Coons,  S. Dasgupta,  A. L. Dempwolff,  
 M. Diedenhofen,  Hainam Do,  R. G. Edgar,  Po-Tung Fang,  S. Fatehi,  
 Qingguo Feng,  J. Fosso-Tande,  Qinghui Ge,  A. Ghysels,  G. Gidofalvi,  
 J. Gomes,  J. Gonthier,  A. Gunina,  M. W. D. Hanson-Heine,  
 P. H. P. Harbach,  A. W. Hauser,  J. E. Herr,  E. G. Hohenstein,  
 Z. C. Holden,  Kerwin Hui,  T.-C. Jagau,  Hyunjun Ji,  B. Kaduk,  
 K. Khistyaev,  Jaehoon Kim,  P. Klunzinger,  K. Koh,  D. Kosenkov,  
 L. Koulias,  T. Kowalczyk,  C. M. Krauter,  A. Kunitsa,  Ka Un Lao,  
 A. Laurent,  K. V. Lawler,  Joonho Lee,  D. Lefrancois,  S. Lehtola,  
 D. S. Levine,  Yi-Pei Li,  You-Sheng Lin,  Fenglai Liu,  E. Livshits,  
 A. Luenser,  P. Manohar,  E. Mansoor,  S. F. Manzer,  Shan-Ping Mao,  
 Yuezhi Mao,  N. Mardirossian,  A. V. Marenich,  T. Markovich,  
 L. A. Martinez-Martinez,  S. A. Maurer,  N. J. Mayhall,  S. C. McKenzie,  
 J.-M. Mewes,  A. F. Morrison,  J. W. Mullinax,  K. Nanda,  
 T. S. Nguyen-Beck,  R. Olivares-Amaya,  J. A. Parkhill,  T. M. Perrine,  
 F. Plasser,  S. Prager,  A. Prociuk,  E. Ramos,  D. R. Rehn,  F. Rob,  
 M. Schneider,  N. Sergueev,  S. M. Sharada,  S. Sharma,  D. W. Small,  
 T. Stauch,  T. Stein,  Yu-Chuan Su,  A. J. W. Thom,  A. Tkatchenko,  
 T. Tsuchimochi,  L. Vogt,  O. Vydrov,  M. A. Watson,  J. Wenzel,  
 M. de Wergifosse,  T. A. Wesolowski,  A. White,  J. Witte,  A. Yamada,  
 Jun Yang,  K. Yao,  S. Yeganeh,  S. R. Yost,  Zhi-Qiang You,  A. Zech,  
 Igor Ying Zhang,  Xing Zhang,  Yan Zhao,  Ying Zhu,  B. R. Brooks,  
 G. K. L. Chan,  C. J. Cramer,  M. S. Gordon,  W. J. Hehre,  A. Klamt,  
 M. W. Schmidt,  C. D. Sherrill,  D. G. Truhlar,  A. Aspuru-Guzik,  R. Baer,  
 A. T. Bell,  N. A. Besley,  Jeng-Da Chai,  R. A. DiStasio Jr.,  A. Dreuw,  
 B. D. Dunietz,  T. R. Furlani,  Chao-Ping Hsu,  Yousung Jung,  Jing Kong,  
 D. S. Lambrecht,  WanZhen Liang,  C. Ochsenfeld,  V. A. Rassolov,  
 L. V. Slipchenko,  J. E. Subotnik,  T. Van Voorhis,  J. M. Herbert,  
 A. I. Krylov,  P. M. W. Gill,  M. Head-Gordon

 Contributors to earlier versions of Q-Chem not listed above: 
 R. D. Adamson,  B. Austin,  J. Baker,  G. J. O. Beran,  K. Brandhorst,  
 S. T. Brown,  E. F. C. Byrd,  A. K. Chakraborty,  C.-L. Cheng,  
 Siu Hung Chien,  D. M. Chipman,  D. L. Crittenden,  H. Dachsel,  
 R. J. Doerksen,  A. D. Dutoi,  L. Fusti-Molnar,  W. A. Goddard III,  
 A. Golubeva-Zadorozhnaya,  S. R. Gwaltney,  G. Hawkins,  A. Heyden,  
 S. Hirata,  G. Kedziora,  F. J. Keil,  C. Kelley,  Jihan Kim,  R. A. King,  
 R. Z. Khaliullin,  P. P. Korambath,  W. Kurlancheek,  A. M. Lee,  M. S. Lee,  
 S. V. Levchenko,  Ching Yeh Lin,  D. Liotard,  R. C. Lochan,  I. Lotan,  
 P. E. Maslen,  N. Nair,  D. P. O'Neill,  D. Neuhauser,  E. Neuscamman,  
 C. M. Oana,  R. Olson,  B. Peters,  R. Peverati,  P. A. Pieniazek,  
 Y. M. Rhee,  J. Ritchie,  M. A. Rohrdanz,  E. Rosta,  N. J. Russ,  
 H. F. Schaefer III,  N. E. Schultz,  N. Shenvi,  A. C. Simmonett,  A. Sodt,  
 D. Stuck,  K. S. Thanthiriwatte,  V. Vanovschi,  Tao Wang,  A. Warshel,  
 C. F. Williams,  Q. Wu,  X. Xu,  W. Zhang

 Please cite Q-Chem as follows:
 Y. Shao et al., Mol. Phys. 113, 184-215 (2015)
 DOI: 10.1080/00268976.2014.952696

 Q-Chem 5.0.2 for Intel X86 EM64T Linux

 Parts of Q-Chem use Armadillo 5.200.1 (Boston Tea Smuggler).
 http://arma.sourceforge.net/

 Q-Chem begins on Wed Mar  2 17:20:20 2022  

Host: 
0

     Scratch files written to ./irc_reactant.d//
 Dec517 15110_ 26548  26544 5633   
Processing $rem in /home/leeping/opt/qchem/5.0.2-openmp/config/preferences.
 MEM_STATIC 2000
 MEM_TOTAL  8000
 SYMMETRY   OFF
 SYM_IGNORE TRUE 

Checking the input file for inconsistencies... 	...done.

--------------------------------------------------------------
User input:
--------------------------------------------------------------
$molecule
0 2
C        0.8009712414   -0.4961334159   -0.0259176100
C        2.2696621220   -0.7635656895    0.1884726984
C        1.5823832253   -1.7642811005   -0.2614852715
C       -1.6790656886    1.1171565643   -0.0266559691
C       -1.1212553819    0.2917622329    1.0780419992
N       -0.0549043236   -0.4181804156    1.1114898170
H        0.4826926407    0.1086500725   -0.8908448211
H        3.1944874840   -0.3305268420    0.5360657065
H        1.5013018508   -2.7944984829   -0.5709554102
H       -2.6146580412    1.6267137121    0.2357961033
H       -1.7210312327    0.3005128704    1.9908393519
C       -1.1789453578    1.2852077173   -1.2387220383
H       -1.4616385380    1.8371827775   -2.1261245562
$end

$rem
method                b3lyp
basis                 6-31+g(d,p)
unrestricted          true
symmetry              off
sym_ignore            true
incdft                false
incfock               0
scf_convergence       8
thresh                14
jobtype               sp
scf_guess             core
scf_guess_mix         5
scf_algorithm         diis
max_scf_cycles        100
$end

--------------------------------------------------------------
 ----------------------------------------------------------------
             Standard Nuclear Orientation (Angstroms)
    I     Atom           X                Y                Z
 ----------------------------------------------------------------
    1      C       0.8009712414    -0.4961334159    -0.0259176100
    2      C       2.2696621220    -0.7635656895     0.1884726984
    3      C       1.5823832253    -1.7642811005    -0.2614852715
    4      C      -1.6790656886     1.1171565643    -0.0266559691
    5      C      -1.1212553819     0.2917622329     1.0780419992
    6      N      -0.0549043236    -0.4181804156     1.1114898170
    7      H       0.4826926407     0.1086500725    -0.8908448211
    8      H       3.1944874840    -0.3305268420     0.5360657065
    9      H       1.5013018508    -2.7944984829    -0.5709554102
   10      H      -2.6146580412     1.6267137121     0.2357961033
   11      H      -1.7210312327     0.3005128704     1.9908393519
   12      C      -1.1789453578     1.2852077173    -1.2387220383
   13      H      -1.4616385380     1.8371827775    -2.1261245562
 ----------------------------------------------------------------
 Nuclear Repulsion Energy =   248.0688392440 hartrees
 There are       25 alpha and       24 beta electrons
 Requested basis set is 6-31+G(d,p)
 There are 53 shells and 163 basis functions

 Total QAlloc Memory Limit   8000 MB
 Mega-Array Size      1956 MB
 MEM_STATIC part      2000 MB

                       Distance Matrix (Angstroms)
             C (  1)   C (  2)   C (  3)   C (  4)   C (  5)   N (  6)
   C (  2)  1.508157
   C (  3)  1.508077  1.294699
   C (  4)  2.958596  4.379024  4.358311
   C (  5)  2.352544  3.661062  3.651207  1.487544
   N (  6)  1.425586  2.524849  2.525422  2.508094  1.281500
   H (  7)  1.102345  2.262509  2.261257  2.537145  2.546114  2.139136
   H (  8)  2.464178  1.078724  2.300135  5.115072  4.393930  3.301112
   H (  9)  2.463739  2.300391  1.078746  5.070705  4.372871  3.301407
   H ( 10)  4.030074  5.438038  5.418606  1.097207  2.172953  3.391279
   H ( 11)  3.326026  4.506265  4.499876  2.176914  1.092248  2.016372
   C ( 12)  2.926455  4.257611  4.228393  1.321917  2.521440  3.112635
   H ( 13)  3.869708  5.103318  5.070847  2.230130  3.573635  4.188999
             H (  7)   H (  8)   H (  9)   H ( 10)   H ( 11)   C ( 12)
   H (  8)  3.095607
   H (  9)  3.093245  3.188029
   H ( 10)  3.628694  6.137355  6.094185
   H ( 11)  3.632811  5.164969  5.150274  2.374353
   C ( 12)  2.065514  4.988726  4.926829  2.086169  3.419583
   H ( 13)  2.879959  5.784957  5.714021  2.636744  4.402048  1.082624

 
 A cutoff of  1.0D-14 yielded   1320 shell pairs
 There are     13042 function pairs
 
 -------------------------------------------------------
 OpenMP Integral Computing Module                       
 Release: version 1.0, May 2013, Q-Chem Inc. Pittsburgh 
 -------------------------------------------------------
 Integral Job Info:
 Integral job number is                      11
 Integral operator is                         1
 short-range coefficients                     0
 long-range coefficients              100000000
 Omega coefficients                           0
 if combine SR and LR in K                    0
 Integral screening is                        0
 Integral computing path is                   2
 max size of driver memory is            800000
 size of driver memory is                593474
 size of scratch memory is              2361544
 max col of scratch BK array               1296
 max len of scratch array in speh3          155
 max len of scratch index in speh4           18
 max int batch size is                      520
 min int batch size is                       52
 fixed nKL is                                52
 max L of basis functions is                  2
 order of int derivative is                   0
 number of shells is                         53
 number of basis is                         163
 number of cartesian basis is               163
 number of contracted shell pairs          1320
 number of primitive shell pairs           4355
 maxK2 (contraction) of shell pair           36
 max number of K2 of shell pair               1
 max number of CS2 of shell pair            127
 max number of PS2 of shell pair            726
 mem total for path MDJ                  527820
 -------------------------------------------------------
 Smallest overlap matrix eigenvalue = 2.51E-05

 Scale SEOQF with 1.000000e-01/1.000000e-01/1.000000e-01

 Standard Electronic Orientation quadrupole field applied
 Nucleus-field energy     =     0.0000000041 hartrees
 Guess MOs from core Hamiltonian diagonalization
 Mixing HOMO and LUMO in initial guess
 Adding  50% of the LUMO to the HOMO
 An unrestricted hybrid HF-DFT SCF calculation will be
 performed using Pulay DIIS extrapolation
 Exchange:     0.2000 Hartree-Fock + 0.0800 Slater + 0.7200 B88
 Correlation:  0.1900 VWN1RPA + 0.8100 LYP
 Using SG-1 standard quadrature grid
 SCF converges when DIIS error is below 1.0E-08
 using 4 threads for integral computing
 -------------------------------------------------------
 OpenMP Integral computing Module                
 Release: version 1.0, May 2013, Q-Chem Inc. Pittsburgh 
 -------------------------------------------------------
 -------------------------------------------------------
 OpenMP BLAS3 based DFT computing Module                
 Release: version 1.0, May 2013, Q-Chem Inc. Pittsburgh 
 -------------------------------------------------------
 ---------------------------------------
  Cycle       Energy         DIIS Error
 ---------------------------------------
    1    -228.0915204823      9.96E-02
    2    -202.1806686546      8.83E-02
    3    -243.8198647456      7.18E-02
    4    -234.8241231825      8.04E-02
    5    -273.8156197377      4.24E-02
    6    -286.5682825948      7.93E-03
    7    -286.4858923080      9.72E-03
    8    -286.7782809539      2.20E-03
    9    -286.7915955746      9.03E-04
   10    -286.7943525545      2.93E-04
   11    -286.7947162521      1.77E-04
   12    -286.7948516753      2.45E-05
   13    -286.7948713388      8.47E-06
   14    -286.7948798866      6.78E-06
   15    -286.7948859615      2.63E-06
   16    -286.7948895630      1.61E-06
   17    -286.7948912227      6.50E-07
   18    -286.7948924501      2.31E-07
   19    -286.7948927867      9.19E-08
   20    -286.7948928432      2.82E-08
   21    -286.7948928497      8.91E-09 Convergence criterion met
 ---------------------------------------
 <S^2> = 0.7641
 SCF time:  CPU 96.88 s  wall 31.01 s
 SCF   energy in the final basis set = -286.79489285
 Total energy in the final basis set = -286.79489285
 
 --------------------------------------------------------------
 
                    Orbital Energies (a.u.)
 --------------------------------------------------------------
 
 Alpha MOs
 -- Occupied --
-14.337 -10.237 -10.237 -10.227 -10.219 -10.218 -10.214  -0.938
 -0.870  -0.785  -0.671  -0.599  -0.579  -0.542  -0.520  -0.496
 -0.458  -0.428  -0.386  -0.363  -0.313  -0.289  -0.284  -0.256
 -0.219
 -- Virtual --
 -0.063  -0.013   0.008   0.019   0.026   0.027   0.043   0.049
  0.056   0.062   0.075   0.088   0.092   0.096   0.107   0.108
  0.126   0.131   0.134   0.138   0.152   0.164   0.169   0.180
  0.191   0.192   0.196   0.199   0.209   0.225   0.245   0.248
  0.259   0.262   0.274   0.288   0.304   0.309   0.329   0.367
  0.371   0.414   0.449   0.483   0.614   0.654   0.657   0.682
  0.697   0.708   0.714   0.729   0.735   0.749   0.761   0.779
  0.791   0.847   0.869   0.896   0.913   0.940   0.962   0.980
  1.015   1.019   1.033   1.085   1.089   1.120   1.159   1.166
  1.193   1.255   1.268   1.293   1.315   1.361   1.366   1.413
  1.437   1.530   1.542   1.617   1.622   1.638   1.715   1.781
  1.804   1.842   1.854   1.859   1.949   1.964   1.980   2.048
  2.067   2.118   2.169   2.205   2.222   2.261   2.288   2.289
  2.348   2.400   2.405   2.412   2.445   2.462   2.493   2.526
  2.603   2.604   2.623   2.656   2.705   2.721   2.736   2.860
  2.869   2.892   3.082   3.137   3.195   3.271   3.338   3.406
  3.450   3.684   3.752   4.178   4.285   4.366   4.419   4.609
  4.723   4.887
 
 Beta MOs
 -- Occupied --
-14.337 -10.236 -10.236 -10.219 -10.218 -10.216 -10.212  -0.938
 -0.870  -0.772  -0.662  -0.588  -0.579  -0.536  -0.512  -0.489
 -0.447  -0.423  -0.386  -0.361  -0.310  -0.287  -0.257  -0.250
 -- Virtual --
 -0.092  -0.055  -0.012   0.010   0.019   0.027   0.028   0.045
  0.049   0.057   0.064   0.078   0.088   0.093   0.098   0.108
  0.110   0.127   0.131   0.136   0.139   0.152   0.165   0.172
  0.181   0.192   0.193   0.200   0.205   0.210   0.228   0.246
  0.250   0.261   0.262   0.275   0.289   0.306   0.311   0.336
  0.367   0.379   0.421   0.449   0.496   0.618   0.660   0.666
  0.684   0.698   0.710   0.719   0.734   0.737   0.751   0.762
  0.792   0.799   0.851   0.871   0.897   0.919   0.951   0.967
  0.984   1.013   1.025   1.037   1.093   1.101   1.120   1.160
  1.171   1.196   1.256   1.273   1.296   1.322   1.365   1.366
  1.416   1.441   1.538   1.551   1.624   1.639   1.665   1.726
  1.782   1.808   1.853   1.864   1.879   1.954   1.969   1.996
  2.053   2.068   2.122   2.172   2.211   2.228   2.262   2.290
  2.293   2.352   2.404   2.409   2.420   2.448   2.465   2.495
  2.530   2.604   2.615   2.626   2.657   2.711   2.735   2.745
  2.861   2.875   2.895   3.087   3.137   3.198   3.280   3.340
  3.411   3.455   3.696   3.752   4.178   4.290   4.374   4.436
  4.615   4.725   4.888
 --------------------------------------------------------------
 
          Ground-State Mulliken Net Atomic Charges

     Atom                 Charge (a.u.)    Spin (a.u.)
  --------------------------------------------------------
      1 C                    -0.099999       0.078485
      2 C                    -0.171775      -0.002051
      3 C                    -0.173816      -0.003209
      4 C                     0.011091      -0.206781
      5 C                    -0.143365       0.046558
      6 N                    -0.076603      -0.006285
      7 H                     0.133420      -0.019028
      8 H                     0.143058      -0.001383
      9 H                     0.142739      -0.001229
     10 H                     0.141147       0.080506
     11 H                     0.120687       0.003620
     12 C                    -0.178236       1.020116
     13 H                     0.151650       0.010680
  --------------------------------------------------------
  Sum of atomic charges =    -0.000000
  Sum of spin   charges =     1.000000

 -----------------------------------------------------------------
                    Cartesian Multipole Moments
 -----------------------------------------------------------------
    Charge (ESU x 10^10)
                -0.0000
    Dipole Moment (Debye)
         X      -0.2194      Y       0.6559      Z      -1.2576
       Tot       1.4352
    Quadrupole Moments (Debye-Ang)
        XX     -35.8099     XY      -3.2435     YY     -39.4819
        XZ      -0.4563     YZ       1.2694     ZZ     -43.2176
    Octopole Moments (Debye-Ang^2)
       XXX      -0.6857    XXY       9.7427    XYY      -2.6747
       YYY      -1.3455    XXZ       3.3129    XYZ       3.2464
       YYZ     -11.8687    XZZ      -9.5526    YZZ      11.2757
       ZZZ     -18.4594
    Hexadecapole Moments (Debye-Ang^3)
      XXXX    -537.5160   XXXY     156.9474   XXYY    -146.3209
      XYYY     146.6359   YYYY    -306.3027   XXXZ       4.7467
      XXYZ       8.9642   XYYZ      -0.8115   YYYZ      35.2110
      XXZZ    -131.2680   XYZZ      49.0566   YYZZ     -89.1447
      XZZZ      -3.3057   YZZZ      22.8151   ZZZZ    -224.4000
 -----------------------------------------------------------------
Archival summary:
1\1\c8-66\SP\ProcedureUnspecified\6-31+G**\166(2)\hpark21\WedMar217:20:552022WedMar217:20:552022\0\\#,ProcedureUnspecified,6-31+G**,\\0,2\N\C,1,1.2815\H,2,1.09225,1,116.076\C,1,1.42559,2,120.6,3,-179.861,0\H,4,1.10234,1,115.003,2,1.43533,0\C,2,1.48754,1,129.703,3,-179.93,0\H,6,1.09721,2,113.566,1,-179.616,0\C,6,1.32192,2,127.56,1,0.505767,0\H,8,1.08262,6,135.856,2,179.918,0\C,4,1.50808,1,118.796,2,-149.173,0\H,10,1.07875,4,143.993,1,72.6452,0\C,10,1.2947,4,64.5836,1,-105.077,0\H,12,1.07872,10,151.327,4,177.319,0\\\@

 Total job time:  34.67s(wall), 98.58s(cpu) 
 Wed Mar  2 17:20:55 2022

        *************************************************************
        *                                                           *
        *  Thank you very much for using Q-Chem.  Have a nice day.  *
        *                                                           *
        *************************************************************


