
Running Job 1 of 1 qcfsm.in
qchem qcfsm.in_21567.0 ./qcfsm.d/ 1
/home/leeping/opt/qchem/5.0.2-openmp/exe/qcprog.exe_s qcfsm.in_21567.0 ./qcfsm.d/
Check license passed

                  Welcome to Q-Chem
     A Quantum Leap Into The Future Of Chemistry


 Q-Chem 5.0, Q-Chem, Inc., Pleasanton, CA (2017)

 Yihan Shao,  Zhengting Gan,  E. Epifanovsky,  A. T. B. Gilbert,  M. Wormit,  
 J. Kussmann,  A. W. Lange,  A. Behn,  Jia Deng,  Xintian Feng,  D. Ghosh,  
 M. Goldey,  P. R. Horn,  L. D. Jacobson,  I. Kaliman,  T. Kus,  A. Landau,  
 Jie Liu,  E. I. Proynov,  R. M. Richard,  R. P. Steele,  E. J. Sundstrom,  
 H. L. Woodcock III,  P. M. Zimmerman,  D. Zuev,  B. Albrecht,  E. Alguire,  
 S. A. Baeppler,  D. Barton,  Z. Benda,  Y. A. Bernard,  E. J. Berquist,  
 K. B. Bravaya,  H. Burton,  D. Casanova,  Chun-Min Chang,  Yunqing Chen,  
 A. Chien,  K. D. Closser,  M. P. Coons,  S. Dasgupta,  A. L. Dempwolff,  
 M. Diedenhofen,  Hainam Do,  R. G. Edgar,  Po-Tung Fang,  S. Fatehi,  
 Qingguo Feng,  J. Fosso-Tande,  Qinghui Ge,  A. Ghysels,  G. Gidofalvi,  
 J. Gomes,  J. Gonthier,  A. Gunina,  M. W. D. Hanson-Heine,  
 P. H. P. Harbach,  A. W. Hauser,  J. E. Herr,  E. G. Hohenstein,  
 Z. C. Holden,  Kerwin Hui,  T.-C. Jagau,  Hyunjun Ji,  B. Kaduk,  
 K. Khistyaev,  Jaehoon Kim,  P. Klunzinger,  K. Koh,  D. Kosenkov,  
 L. Koulias,  T. Kowalczyk,  C. M. Krauter,  A. Kunitsa,  Ka Un Lao,  
 A. Laurent,  K. V. Lawler,  Joonho Lee,  D. Lefrancois,  S. Lehtola,  
 D. S. Levine,  Yi-Pei Li,  You-Sheng Lin,  Fenglai Liu,  E. Livshits,  
 A. Luenser,  P. Manohar,  E. Mansoor,  S. F. Manzer,  Shan-Ping Mao,  
 Yuezhi Mao,  N. Mardirossian,  A. V. Marenich,  T. Markovich,  
 L. A. Martinez-Martinez,  S. A. Maurer,  N. J. Mayhall,  S. C. McKenzie,  
 J.-M. Mewes,  A. F. Morrison,  J. W. Mullinax,  K. Nanda,  
 T. S. Nguyen-Beck,  R. Olivares-Amaya,  J. A. Parkhill,  T. M. Perrine,  
 F. Plasser,  S. Prager,  A. Prociuk,  E. Ramos,  D. R. Rehn,  F. Rob,  
 M. Schneider,  N. Sergueev,  S. M. Sharada,  S. Sharma,  D. W. Small,  
 T. Stauch,  T. Stein,  Yu-Chuan Su,  A. J. W. Thom,  A. Tkatchenko,  
 T. Tsuchimochi,  L. Vogt,  O. Vydrov,  M. A. Watson,  J. Wenzel,  
 M. de Wergifosse,  T. A. Wesolowski,  A. White,  J. Witte,  A. Yamada,  
 Jun Yang,  K. Yao,  S. Yeganeh,  S. R. Yost,  Zhi-Qiang You,  A. Zech,  
 Igor Ying Zhang,  Xing Zhang,  Yan Zhao,  Ying Zhu,  B. R. Brooks,  
 G. K. L. Chan,  C. J. Cramer,  M. S. Gordon,  W. J. Hehre,  A. Klamt,  
 M. W. Schmidt,  C. D. Sherrill,  D. G. Truhlar,  A. Aspuru-Guzik,  R. Baer,  
 A. T. Bell,  N. A. Besley,  Jeng-Da Chai,  R. A. DiStasio Jr.,  A. Dreuw,  
 B. D. Dunietz,  T. R. Furlani,  Chao-Ping Hsu,  Yousung Jung,  Jing Kong,  
 D. S. Lambrecht,  WanZhen Liang,  C. Ochsenfeld,  V. A. Rassolov,  
 L. V. Slipchenko,  J. E. Subotnik,  T. Van Voorhis,  J. M. Herbert,  
 A. I. Krylov,  P. M. W. Gill,  M. Head-Gordon

 Contributors to earlier versions of Q-Chem not listed above: 
 R. D. Adamson,  B. Austin,  J. Baker,  G. J. O. Beran,  K. Brandhorst,  
 S. T. Brown,  E. F. C. Byrd,  A. K. Chakraborty,  C.-L. Cheng,  
 Siu Hung Chien,  D. M. Chipman,  D. L. Crittenden,  H. Dachsel,  
 R. J. Doerksen,  A. D. Dutoi,  L. Fusti-Molnar,  W. A. Goddard III,  
 A. Golubeva-Zadorozhnaya,  S. R. Gwaltney,  G. Hawkins,  A. Heyden,  
 S. Hirata,  G. Kedziora,  F. J. Keil,  C. Kelley,  Jihan Kim,  R. A. King,  
 R. Z. Khaliullin,  P. P. Korambath,  W. Kurlancheek,  A. M. Lee,  M. S. Lee,  
 S. V. Levchenko,  Ching Yeh Lin,  D. Liotard,  R. C. Lochan,  I. Lotan,  
 P. E. Maslen,  N. Nair,  D. P. O'Neill,  D. Neuhauser,  E. Neuscamman,  
 C. M. Oana,  R. Olson,  B. Peters,  R. Peverati,  P. A. Pieniazek,  
 Y. M. Rhee,  J. Ritchie,  M. A. Rohrdanz,  E. Rosta,  N. J. Russ,  
 H. F. Schaefer III,  N. E. Schultz,  N. Shenvi,  A. C. Simmonett,  A. Sodt,  
 D. Stuck,  K. S. Thanthiriwatte,  V. Vanovschi,  Tao Wang,  A. Warshel,  
 C. F. Williams,  Q. Wu,  X. Xu,  W. Zhang

 Please cite Q-Chem as follows:
 Y. Shao et al., Mol. Phys. 113, 184-215 (2015)
 DOI: 10.1080/00268976.2014.952696

 Q-Chem 5.0.2 for Intel X86 EM64T Linux

 Parts of Q-Chem use Armadillo 5.200.1 (Boston Tea Smuggler).
 http://arma.sourceforge.net/

 Q-Chem begins on Wed Mar  2 12:42:28 2022  

Host: 
0

     Scratch files written to ./qcfsm.d//
 Dec517 15110_ 26548  26544 5633   
Processing $rem in /home/leeping/opt/qchem/5.0.2-openmp/config/preferences.
 MEM_STATIC 2000
 MEM_TOTAL  8000
 SYMMETRY   OFF
 SYM_IGNORE TRUE 
 Now reading second FSM geometry

Checking the input file for inconsistencies... 	...done.

--------------------------------------------------------------
User input:
--------------------------------------------------------------
$molecule
0 2
C        0.0319485283   -0.5337668699   -0.1425857137
C        1.5576897038   -0.4984004590   -0.0351246496
C        2.3712215611   -1.3289449842   -0.6414729201
C       -1.3589208823    1.2881309610    0.1043302615
C       -1.3434970242    0.4243684953    1.2948508665
N       -0.5759230120   -0.6083630507    1.1970553578
H       -0.2666323971   -1.4323160383   -0.6995334164
H        1.9458640397    0.3020573530    0.5969548650
H        2.2983203942   -2.1875572535   -1.2977030829
H       -1.9365281603    2.1984881982   -0.0106079745
H       -1.9199418631    0.6083314139    2.2007869336
C       -0.5297946791    0.7130034740   -0.7854529919
H       -0.2738062086    1.0549687600   -1.7814975357
****
C        0.6333592587   -0.6445806743   -0.1615282847
C        2.1383341996   -0.6036047416   -0.0746437542
C        1.6208029646   -1.7847042792   -0.1710580891
C       -1.8116800265    1.1419425611   -0.0116907800
C       -1.1690844304    0.3026148212    1.0477225197
N       -0.1297826265   -0.4378224226    1.0301915795
H        0.1423870256   -0.3573785005   -1.0970880473
H        2.9929328068    0.0453271447    0.0497581915
H        1.7232747441   -2.8591597996   -0.1967569671
H       -2.8699380501    1.3365219622    0.1878635146
H       -1.7085175368    0.3443476788    2.0000063706
C       -1.2675092561    1.7098837494   -1.0699511351
H       -0.2945790729    1.8066125004   -1.5328251183
$end

$rem
method                b3lyp
basis                 6-31g(d)
unrestricted          true
symmetry              off
sym_ignore            true
incdft                false
incfock               0
scf_convergence       8
thresh                14
jobtype               fsm
scf_guess             core
scf_guess_mix         5
scf_algorithm         diis
max_scf_cycles        100
fsm_nnode             21
fsm_ngrad             6
fsm_mode              2
fsm_opt_mode          2
$end

--------------------------------------------------------------
 ----------------------------------------------------------------
             Standard Nuclear Orientation (Angstroms)
    I     Atom           X                Y                Z
 ----------------------------------------------------------------
    1      C       0.0319485283    -0.5337668699    -0.1425857137
    2      C       1.5576897038    -0.4984004590    -0.0351246496
    3      C       2.3712215611    -1.3289449842    -0.6414729201
    4      C      -1.3589208823     1.2881309610     0.1043302615
    5      C      -1.3434970242     0.4243684953     1.2948508665
    6      N      -0.5759230120    -0.6083630507     1.1970553578
    7      H      -0.2666323971    -1.4323160383    -0.6995334164
    8      H       1.9458640397     0.3020573530     0.5969548650
    9      H       2.2983203942    -2.1875572535    -1.2977030829
   10      H      -1.9365281603     2.1984881982    -0.0106079745
   11      H      -1.9199418631     0.6083314139     2.2007869336
   12      C      -0.5297946791     0.7130034740    -0.7854529919
   13      H      -0.2738062086     1.0549687600    -1.7814975357
 ----------------------------------------------------------------
 Nuclear Repulsion Energy =   258.3950727205 hartrees
 There are       25 alpha and       24 beta electrons
 Requested basis set is 6-31G(d)
 There are 40 shells and 117 basis functions

 Total QAlloc Memory Limit   8000 MB
 Mega-Array Size      1956 MB
 MEM_STATIC part      2000 MB
 beginning FSman 

*******************************************
*******************************************
******** Starting FSM Calculation *********
*******************************************
*******************************************
-FSM parameters:
 Maximum displacement of each coordinate during optimization (Angstrom)      0.05
 Maximum optimization steps for each new node                                6
 The scaling factor for optimization (hartrees/Angstrom^2)                   1.75
 The number of LST interpolations used for reparameterization                100
-Aligning product structure to maximum coincidence with the reactant structure
 Total R --> P Distance 3.362908
 New node interpolation distace (Angstroms): 0.16
-Performing force calculation on reactant structure in state:0
 ----------------------------------------------------------------
             Standard Nuclear Orientation (Angstroms)
    I     Atom           X                Y                Z
 ----------------------------------------------------------------
    1      C       0.0319485283    -0.5337668699    -0.1425857137
    2      C       1.5576897038    -0.4984004590    -0.0351246496
    3      C       2.3712215611    -1.3289449842    -0.6414729201
    4      C      -1.3589208823     1.2881309610     0.1043302615
    5      C      -1.3434970242     0.4243684953     1.2948508665
    6      N      -0.5759230120    -0.6083630507     1.1970553578
    7      H      -0.2666323971    -1.4323160383    -0.6995334164
    8      H       1.9458640397     0.3020573530     0.5969548650
    9      H       2.2983203942    -2.1875572535    -1.2977030829
   10      H      -1.9365281603     2.1984881982    -0.0106079745
   11      H      -1.9199418631     0.6083314139     2.2007869336
   12      C      -0.5297946791     0.7130034740    -0.7854529919
   13      H      -0.2738062086     1.0549687600    -1.7814975357
 ----------------------------------------------------------------
 Nuclear Repulsion Energy =   258.3950727205 hartrees
 There are       25 alpha and       24 beta electrons

                       Distance Matrix (Angstroms)
             C (  1)   C (  2)   C (  3)   C (  4)   C (  5)   N (  6)
   C (  2)  1.529930
   C (  3)  2.520594  1.311219
   C (  4)  2.305384  3.423121  4.617280
   C (  5)  2.208189  3.322231  4.541210  1.470939
   N (  6)  1.472994  2.466305  3.547546  2.324613  1.290453
   H (  7)  1.098514  2.154481  2.640517  3.039757  2.929929  2.090839
   H (  8)  2.215535  1.091300  2.091603  3.483766  3.364805  2.747434
   H (  9)  3.034100  2.235148  1.083129  5.236556  5.177483  4.120552
   H ( 10)  3.370094  4.413997  5.603346  1.084247  2.281098  3.344863
   H ( 11)  3.256633  4.279962  5.499597  2.274204  1.089427  2.072247
   C ( 12)  1.511049  2.527466  3.550518  1.345339  2.252351  2.382955
   H ( 13)  2.302954  2.969369  3.738833  2.188192  3.317501  3.424869
             H (  7)   H (  8)   H (  9)   H ( 10)   H ( 11)   C ( 12)
   H (  8)  3.095815
   H (  9)  2.739923  3.148354
   H ( 10)  4.055356  4.363319  6.231208
   H ( 11)  3.912740  4.196491  6.152249  2.723810
   C ( 12)  2.163107  2.865103  4.083367  2.187681  3.295617
   H ( 13)  2.712431  3.339288  4.166997  2.684833  4.332186  1.083778

 
 Requested basis set is 6-31G(d)
 There are 40 shells and 117 basis functions
 A cutoff of  1.0D-14 yielded    785 shell pairs
 There are      6999 function pairs
 
 -------------------------------------------------------
 OpenMP Integral Computing Module                       
 Release: version 1.0, May 2013, Q-Chem Inc. Pittsburgh 
 -------------------------------------------------------
 Integral Job Info:
 Integral job number is                      11
 Integral operator is                         1
 short-range coefficients                     0
 long-range coefficients              100000000
 Omega coefficients                           0
 if combine SR and LR in K                    0
 Integral screening is                        0
 Integral computing path is                   2
 max size of driver memory is            800000
 size of driver memory is                593474
 size of scratch memory is              2361544
 max col of scratch BK array               1296
 max len of scratch array in speh3          155
 max len of scratch index in speh4           18
 max int batch size is                      520
 min int batch size is                       52
 fixed nKL is                                52
 max L of basis functions is                  2
 order of int derivative is                   0
 number of shells is                         40
 number of basis is                         117
 number of cartesian basis is               117
 number of contracted shell pairs           785
 number of primitive shell pairs           3347
 maxK2 (contraction) of shell pair           36
 max number of K2 of shell pair               1
 max number of CS2 of shell pair             86
 max number of PS2 of shell pair            372
 mem total for path MDJ                  530316
 -------------------------------------------------------
 Smallest overlap matrix eigenvalue = 1.56E-03

 Scale SEOQF with 1.000000e-01/1.000000e-01/1.000000e-01

 Standard Electronic Orientation quadrupole field applied
 Nucleus-field energy     =     0.0000000024 hartrees
 Guess MOs from core Hamiltonian diagonalization
 Mixing HOMO and LUMO in initial guess
 Adding  50% of the LUMO to the HOMO
 An unrestricted hybrid HF-DFT SCF calculation will be
 performed using Pulay DIIS extrapolation
 Exchange:     0.2000 Hartree-Fock + 0.0800 Slater + 0.7200 B88
 Correlation:  0.1900 VWN1RPA + 0.8100 LYP
 Using SG-1 standard quadrature grid
 SCF converges when DIIS error is below 1.0E-08
 using 4 threads for integral computing
 -------------------------------------------------------
 OpenMP Integral computing Module                
 Release: version 1.0, May 2013, Q-Chem Inc. Pittsburgh 
 -------------------------------------------------------
 -------------------------------------------------------
 OpenMP BLAS3 based DFT computing Module                
 Release: version 1.0, May 2013, Q-Chem Inc. Pittsburgh 
 -------------------------------------------------------
 ---------------------------------------
  Cycle       Energy         DIIS Error
 ---------------------------------------
    1    -227.7195104761      1.37E-01
    2    -145.9616129560      1.67E-01
    3    -224.4942098414      1.18E-01
    4    -240.0721967117      1.18E-01
    5    -284.6338154328      2.59E-02
    6    -278.6283476014      4.97E-02
    7    -286.0335233572      1.65E-02
    8    -286.0399787661      1.66E-02
    9    -286.8063767771      4.49E-03
   10    -286.8372412159      2.48E-03
   11    -286.8492952760      5.08E-04
   12    -286.8499566600      2.99E-04
   13    -286.8503159106      1.44E-04
   14    -286.8504726545      8.10E-05
   15    -286.8505413183      4.76E-05
   16    -286.8505705776      1.76E-05
   17    -286.8505801677      2.53E-06
   18    -286.8505811867      7.46E-07
   19    -286.8505817185      3.34E-07
   20    -286.8505819736      2.17E-07
   21    -286.8505822033      8.68E-08
   22    -286.8505822485      2.74E-08
   23    -286.8505822520      1.17E-08
   24    -286.8505822530      7.40E-09 Convergence criterion met
 ---------------------------------------
 <S^2> = 0.7609
 SCF time:  CPU 59.79 s  wall 40.39 s
 SCF   energy in the final basis set = -286.85058225
 Total energy in the final basis set = -286.85058225
 
 --------------------------------------------------------------
 
                    Orbital Energies (a.u.)
 --------------------------------------------------------------
 
 Alpha MOs
 -- Occupied --
-14.323 -10.230 -10.227 -10.209 -10.205 -10.202 -10.201  -0.946
 -0.791  -0.769  -0.704  -0.587  -0.563  -0.555  -0.514  -0.469
 -0.425  -0.411  -0.404  -0.374  -0.332  -0.283  -0.265  -0.252
 -0.234
 -- Virtual --
 -0.038   0.012   0.075   0.116   0.122   0.146   0.152   0.157
  0.167   0.202   0.233   0.267   0.285   0.362   0.381   0.439
  0.487   0.530   0.536   0.541   0.568   0.573   0.580   0.595
  0.621   0.632   0.649   0.671   0.683   0.715   0.723   0.797
  0.822   0.833   0.847   0.851   0.876   0.894   0.904   0.916
  0.941   0.951   1.003   1.101   1.146   1.182   1.251   1.311
  1.339   1.398   1.418   1.471   1.529   1.567   1.597   1.633
  1.666   1.718   1.792   1.814   1.830   1.927   1.937   1.981
  1.991   2.066   2.135   2.165   2.187   2.270   2.279   2.309
  2.326   2.421   2.446   2.546   2.582   2.592   2.636   2.725
  2.760   2.832   2.899   2.956   3.003   3.928   4.059   4.085
  4.179   4.324   4.418   4.535
 
 Beta MOs
 -- Occupied --
-14.323 -10.229 -10.227 -10.205 -10.204 -10.201 -10.194  -0.945
 -0.783  -0.767  -0.692  -0.577  -0.558  -0.551  -0.513  -0.462
 -0.416  -0.409  -0.401  -0.370  -0.328  -0.278  -0.264  -0.248
 -- Virtual --
 -0.074  -0.035   0.023   0.076   0.117   0.130   0.151   0.153
  0.158   0.170   0.203   0.234   0.270   0.289   0.362   0.399
  0.440   0.494   0.532   0.538   0.546   0.572   0.579   0.599
  0.623   0.634   0.640   0.650   0.673   0.685   0.717   0.726
  0.797   0.824   0.834   0.850   0.853   0.886   0.895   0.910
  0.917   0.947   0.958   1.010   1.103   1.146   1.190   1.254
  1.312   1.341   1.399   1.421   1.473   1.531   1.574   1.599
  1.658   1.683   1.776   1.799   1.827   1.841   1.929   1.942
  1.992   1.998   2.067   2.139   2.169   2.194   2.272   2.288
  2.312   2.328   2.431   2.453   2.549   2.584   2.594   2.638
  2.729   2.770   2.838   2.912   2.956   3.005   3.928   4.074
  4.101   4.181   4.328   4.418   4.537
 --------------------------------------------------------------
 
          Ground-State Mulliken Net Atomic Charges

     Atom                 Charge (a.u.)    Spin (a.u.)
  --------------------------------------------------------
      1 C                    -0.095475       0.072660
      2 C                    -0.075903      -0.163885
      3 C                    -0.194428       1.044414
      4 C                    -0.140987       0.003097
      5 C                     0.051962       0.008503
      6 N                    -0.364038      -0.003066
      7 H                     0.173558      -0.003396
      8 H                     0.157889       0.037396
      9 H                     0.160477       0.001732
     10 H                     0.142792       0.000371
     11 H                     0.145209       0.000653
     12 C                    -0.113585       0.001731
     13 H                     0.152530      -0.000208
  --------------------------------------------------------
  Sum of atomic charges =    -0.000000
  Sum of spin   charges =     1.000000

 -----------------------------------------------------------------
                    Cartesian Multipole Moments
 -----------------------------------------------------------------
    Charge (ESU x 10^10)
                 0.0000
    Dipole Moment (Debye)
         X      -0.9589      Y       1.3958      Z      -1.6042
       Tot       2.3326
    Quadrupole Moments (Debye-Ang)
        XX     -41.2273     XY      -2.3665     YY     -38.9354
        XZ      -1.3232     YZ       4.3515     ZZ     -40.6057
    Octopole Moments (Debye-Ang^2)
       XXX     -14.3946    XXY       8.3149    XYY      -1.8353
       YYY       7.8497    XXZ       0.3808    XYZ       1.1956
       YYZ     -12.4039    XZZ      -3.6540    YZZ       7.2300
       ZZZ     -17.2441
    Hexadecapole Moments (Debye-Ang^3)
      XXXX    -528.7407   XXXY     119.2130   XXYY    -114.1684
      XYYY     101.8408   YYYY    -239.1336   XXXZ      65.2702
      XXYZ       7.8595   XYYZ      15.9264   YYYZ       0.5811
      XXZZ    -112.5522   XYZZ      32.1737   YYZZ     -75.8865
      XZZZ      61.1473   YZZZ      -3.5146   ZZZZ    -211.0087
 -----------------------------------------------------------------
 Calculating analytic gradient of the SCF energy
 Gradient of SCF Energy
            1           2           3           4           5           6
    1   0.0000640  -0.0001004  -0.0000229   0.0001339  -0.0001978   0.0001470
    2   0.0000200  -0.0000107  -0.0000643   0.0000804  -0.0001306   0.0000941
    3   0.0000145  -0.0000518   0.0001180   0.0000773  -0.0001127   0.0000875
            7           8           9          10          11          12
    1  -0.0000049   0.0000358   0.0000451   0.0000031  -0.0000077  -0.0000921
    2  -0.0000035   0.0000214   0.0000511   0.0000046  -0.0000058  -0.0000361
    3  -0.0000299  -0.0000076  -0.0000410  -0.0000168  -0.0000105  -0.0000184
           13
    1  -0.0000031
    2  -0.0000207
    3  -0.0000085
 Max gradient component =       1.978E-04
 RMS gradient           =       7.049E-05
 Gradient time:  CPU 6.92 s  wall 2.34 s
-Performing force calculation on product structure in state0
 ----------------------------------------------------------------
             Standard Nuclear Orientation (Angstroms)
    I     Atom           X                Y                Z
 ----------------------------------------------------------------
    1      C       0.6332060274    -0.6446988375    -0.1616574121
    2      C       2.1382707859    -0.6036100027    -0.0763972126
    3      C       1.6206705378    -1.7848036820    -0.1712755354
    4      C      -1.8117228390     1.1418840391    -0.0107331987
    5      C      -1.1679852728     0.3034610310     1.0487032081
    6      N      -0.1286821619    -0.4369629104     1.0306944311
    7      H       0.1412377995    -0.3582934253    -1.0969381690
    8      H       2.9929824523     0.0454486445     0.0465582932
    9      H       1.7231447246    -2.8592776152    -0.1961827842
   10      H      -2.8697748194     1.3366022746     0.1897759525
   11      H      -1.7064132072     0.3459770539     2.0015211276
   12      C      -1.2686860035     1.7089532155    -1.0700431366
   13      H      -0.2962480234     1.8053202143    -1.5340255645
 ----------------------------------------------------------------
 Nuclear Repulsion Energy =   247.2505561206 hartrees
 There are       25 alpha and       24 beta electrons

                       Distance Matrix (Angstroms)
             C (  1)   C (  2)   C (  3)   C (  4)   C (  5)   N (  6)
   C (  2)  1.508038
   C (  3)  1.508316  1.293109
   C (  4)  3.031886  4.318971  4.513602
   C (  5)  2.368179  3.608318  3.691314  1.496582
   N (  6)  1.430151  2.528339  2.514287  2.531789  1.276206
   H (  7)  1.094902  2.256064  2.253997  2.691548  2.599185  2.146128
   H (  8)  2.467428  1.080244  2.297937  4.928554  4.287717  3.308479
   H (  9)  2.468505  2.296675  1.079637  5.342188  4.462207  3.286655
   H ( 10)  4.039794  5.377341  5.480660  1.094346  2.168231  3.371389
   H ( 11)  3.336855  4.472254  4.508964  2.166501  1.095251  2.011153
   C ( 12)  3.159436  4.235875  4.621959  1.318558  2.544530  3.212112
   H ( 13)  2.958018  3.722164  4.291929  2.248829  3.112233  3.410821
             H (  7)   H (  8)   H (  9)   H ( 10)   H ( 11)   C ( 12)
   H (  8)  3.098877
   H (  9)  3.093333  3.179441
   H ( 10)  3.687072  6.004957  6.232919
   H ( 11)  3.675631  5.098678  5.183187  2.370057
   C ( 12)  2.502422  4.709126  5.530227  2.071056  3.388778
   H ( 13)  2.250258  4.051473  5.256067  3.132767  4.076560  1.081759

 
 Applying Cartesian multipole field
    Component          Value
    ---------          -----
     (2,0,0)        1.00000E-11
     (0,2,0)        2.00000E-11
     (0,0,2)       -3.00000E-11
 Nucleus-field energy     =     0.0000000053 hartrees
 Requested basis set is 6-31G(d)
 There are 40 shells and 117 basis functions
 A cutoff of  1.0D-14 yielded    772 shell pairs
 There are      6966 function pairs
 Smallest overlap matrix eigenvalue = 2.26E-03
 Guess MOs from core Hamiltonian diagonalization
 Mixing HOMO and LUMO in initial guess
 Adding  50% of the LUMO to the HOMO
 An unrestricted hybrid HF-DFT SCF calculation will be
 performed using Pulay DIIS extrapolation
 Exchange:     0.2000 Hartree-Fock + 0.0800 Slater + 0.7200 B88
 Correlation:  0.1900 VWN1RPA + 0.8100 LYP
 Using SG-1 standard quadrature grid
 SCF converges when DIIS error is below 1.0E-08
 using 4 threads for integral computing
 -------------------------------------------------------
 OpenMP Integral computing Module                
 Release: version 1.0, May 2013, Q-Chem Inc. Pittsburgh 
 -------------------------------------------------------
 -------------------------------------------------------
 OpenMP BLAS3 based DFT computing Module                
 Release: version 1.0, May 2013, Q-Chem Inc. Pittsburgh 
 -------------------------------------------------------
 ---------------------------------------
  Cycle       Energy         DIIS Error
 ---------------------------------------
    1    -228.9499904350      1.36E-01
    2    -202.0248165341      1.16E-01
    3    -248.2830199490      9.93E-02
    4    -250.2188808050      1.04E-01
    5    -274.2414742894      5.96E-02
    6    -286.3892944389      1.31E-02
    7    -286.3759090295      1.33E-02
    8    -286.7324403468      4.61E-03
    9    -286.7600009342      2.05E-03
   10    -286.7665972528      5.69E-04
   11    -286.7672690280      1.94E-04
   12    -286.7673768242      1.43E-04
   13    -286.7674502103      2.94E-05
   14    -286.7674709998      9.40E-06
   15    -286.7674764770      6.23E-06
   16    -286.7674793996      2.45E-06
   17    -286.7674820161      1.14E-06
   18    -286.7674834230      4.36E-07
   19    -286.7674837340      1.74E-07
   20    -286.7674838449      9.21E-08
   21    -286.7674838736      4.06E-08
   22    -286.7674838762      8.24E-09 Convergence criterion met
 ---------------------------------------
 <S^2> = 0.7643
 SCF time:  CPU 52.63 s  wall 46.81 s
 SCF   energy in the final basis set = -286.76748388
 Total energy in the final basis set = -286.76748388
 
 --------------------------------------------------------------
 
                    Orbital Energies (a.u.)
 --------------------------------------------------------------
 
 Alpha MOs
 -- Occupied --
-14.324 -10.232 -10.231 -10.218 -10.210 -10.208 -10.204  -0.927
 -0.861  -0.776  -0.662  -0.593  -0.572  -0.542  -0.512  -0.481
 -0.458  -0.419  -0.373  -0.350  -0.307  -0.278  -0.270  -0.249
 -0.217
 -- Virtual --
 -0.044   0.012   0.069   0.111   0.124   0.129   0.139   0.172
  0.179   0.195   0.240   0.249   0.303   0.327   0.362   0.435
  0.488   0.510   0.518   0.535   0.556   0.565   0.577   0.587
  0.605   0.621   0.646   0.657   0.672   0.688   0.729   0.735
  0.835   0.842   0.856   0.869   0.872   0.884   0.902   0.931
  0.949   1.013   1.034   1.071   1.084   1.140   1.200   1.285
  1.318   1.404   1.445   1.462   1.505   1.571   1.574   1.662
  1.678   1.695   1.717   1.739   1.816   1.883   1.905   1.937
  1.998   2.048   2.078   2.116   2.200   2.264   2.318   2.356
  2.382   2.413   2.421   2.441   2.486   2.615   2.669   2.699
  2.819   2.831   2.928   2.978   3.172   3.951   4.051   4.108
  4.181   4.304   4.424   4.492
 
 Beta MOs
 -- Occupied --
-14.324 -10.231 -10.230 -10.210 -10.208 -10.206 -10.203  -0.927
 -0.860  -0.762  -0.652  -0.581  -0.572  -0.537  -0.510  -0.476
 -0.448  -0.412  -0.373  -0.350  -0.304  -0.275  -0.253  -0.236
 -- Virtual --
 -0.077  -0.035   0.013   0.072   0.119   0.126   0.130   0.143
  0.174   0.181   0.198   0.240   0.251   0.307   0.334   0.368
  0.445   0.489   0.513   0.522   0.536   0.564   0.576   0.589
  0.606   0.621   0.631   0.651   0.660   0.674   0.690   0.731
  0.737   0.837   0.844   0.865   0.871   0.874   0.885   0.913
  0.936   0.954   1.022   1.034   1.076   1.086   1.146   1.202
  1.287   1.319   1.407   1.445   1.465   1.515   1.575   1.578
  1.664   1.690   1.711   1.752   1.779   1.825   1.884   1.908
  1.943   2.006   2.059   2.083   2.125   2.204   2.268   2.323
  2.358   2.384   2.415   2.429   2.445   2.493   2.619   2.671
  2.713   2.820   2.838   2.928   2.980   3.178   3.951   4.062
  4.128   4.188   4.304   4.425   4.493
 --------------------------------------------------------------
 
          Ground-State Mulliken Net Atomic Charges

     Atom                 Charge (a.u.)    Spin (a.u.)
  --------------------------------------------------------
      1 C                    -0.020673       0.010276
      2 C                    -0.123470      -0.001250
      3 C                    -0.116628       0.000029
      4 C                    -0.159104      -0.164919
      5 C                     0.025683       0.078884
      6 N                    -0.338180      -0.021477
      7 H                     0.131557      -0.001763
      8 H                     0.152140      -0.000367
      9 H                     0.153829      -0.000531
     10 H                     0.153173       0.047834
     11 H                     0.138149       0.014550
     12 C                    -0.169641       1.037661
     13 H                     0.173166       0.001071
  --------------------------------------------------------
  Sum of atomic charges =    -0.000000
  Sum of spin   charges =     1.000000

 -----------------------------------------------------------------
                    Cartesian Multipole Moments
 -----------------------------------------------------------------
    Charge (ESU x 10^10)
                 0.0000
    Dipole Moment (Debye)
         X       0.5743      Y       0.1810      Z      -0.8866
       Tot       1.0718
    Quadrupole Moments (Debye-Ang)
        XX     -36.1033     XY      -0.3406     YY     -39.3741
        XZ      -2.8418     YZ       1.4843     ZZ     -42.8796
    Octopole Moments (Debye-Ang^2)
       XXX       3.5776    XXY       3.3923    XYY       9.0574
       YYY     -12.8035    XXZ       4.3640    XYZ      -2.6774
       YYZ      -4.6188    XZZ      -1.7647    YZZ       4.7977
       ZZZ      -9.3009
    Hexadecapole Moments (Debye-Ang^3)
      XXXX    -518.2465   XXXY     164.2625   XXYY    -151.9006
      XYYY     152.2368   YYYY    -336.9611   XXXZ       6.5921
      XXYZ      15.4593   XYYZ      -0.3746   YYYZ      31.2070
      XXZZ    -130.0337   XYZZ      59.7009   YYZZ     -95.0441
      XZZZ       5.8594   YZZZ      30.9781   ZZZZ    -185.3761
 -----------------------------------------------------------------
 Calculating analytic gradient of the SCF energy
 Gradient of SCF Energy
            1           2           3           4           5           6
    1  -0.0000689   0.0000021   0.0000569  -0.0000265  -0.0000387   0.0000280
    2   0.0000542  -0.0000405  -0.0000134   0.0000048  -0.0000882   0.0000217
    3   0.0000094   0.0000566  -0.0000525  -0.0000015  -0.0000092  -0.0000366
            7           8           9          10          11          12
    1   0.0000121   0.0000000  -0.0000144   0.0000173   0.0000299   0.0000088
    2   0.0000131   0.0000164   0.0000011  -0.0000178   0.0000373   0.0000132
    3   0.0000075  -0.0000376   0.0000099   0.0000106   0.0000223   0.0000066
           13
    1  -0.0000067
    2  -0.0000019
    3   0.0000144
 Max gradient component =       8.821E-05
 RMS gradient           =       3.118E-05
 Gradient time:  CPU 6.94 s  wall 5.69 s

STARTING FREEZING STRING ITERATION # 1
 The distance between the innermost nodes (Angstroms): 3.363
-Adding two new nodes
 The distance between the previous and current R_nodes (Angstroms): 0.1610
 The distance between the previous and current P_nodes (Angstroms): 0.1571
-Optimizing new reactant side node
 Using BFGS, step: 2 E_tol 0.0831
 max_steps 6, node_spacing 0.1601, sigma 0.7000
 ----------------------------------------------------------------
             Standard Nuclear Orientation (Angstroms)
    I     Atom           X                Y                Z
 ----------------------------------------------------------------
    1      C       0.0660121847    -0.5355363557    -0.1356803144
    2      C       1.5844790490    -0.4948358293    -0.0295626730
    3      C       2.3534033013    -1.3658643800    -0.6276449095
    4      C      -1.3912460487     1.2830358543     0.1031160705
    5      C      -1.3364736721     0.4144491144     1.2890017660
    6      N      -0.5548387080    -0.6066705007     1.1931969863
    7      H      -0.2635511687    -1.3954605237    -0.7310913529
    8      H       1.9983332945     0.3061566093     0.5837888610
    9      H       2.2771259849    -2.2417395954    -1.2583320309
   10      H      -1.9971782822     2.1762683397     0.0018569703
   11      H      -1.9107229834     0.5934944300     2.1974482303
   12      C      -0.5634557108     0.7564930294    -0.8082957092
   13      H      -0.2661725289     1.0974267606    -1.7898554505
 ----------------------------------------------------------------
 Nuclear Repulsion Energy =   257.2295050355 hartrees
 There are       25 alpha and       24 beta electrons

                       Distance Matrix (Angstroms)
             C (  1)   C (  2)   C (  3)   C (  4)   C (  5)   N (  6)
   C (  2)  1.522714
   C (  3)  2.482666  1.306766
   C (  4)  2.342612  3.468915  4.644683
   C (  5)  2.213404  3.331272  4.523079  1.470975
   N (  6)  1.468479  2.466643  3.514216  2.336417  1.289503
   H (  7)  1.096629  2.172207  2.619165  3.023564  2.916798  2.099982
   H (  8)  2.227094  1.090442  2.095066  3.560139  3.410277  2.779086
   H (  9)  3.010067  2.245285  1.082008  5.266359  5.157747  4.086988
   H ( 10)  3.410213  4.468115  5.645400  1.084099  2.279754  3.353265
   H ( 11)  3.259706  4.284913  5.477500  2.265293  1.089539  2.070589
   C ( 12)  1.586815  2.604971  3.611800  1.339088  2.261240  2.421624
   H ( 13)  2.348023  3.009791  3.778983  2.209883  3.330370  3.447590
             H (  7)   H (  8)   H (  9)   H ( 10)   H ( 11)   C ( 12)
   H (  8)  3.120983
   H (  9)  2.729324  3.156408
   H ( 10)  4.037316  4.449728  6.275073
   H ( 11)  3.904544  4.238771  6.125279  2.708001
   C ( 12)  2.174122  2.950164  4.154616  2.174321  3.297908
   H ( 13)  2.708408  3.374653  4.230947  2.714869  4.342474  1.080774

 
 Applying Cartesian multipole field
    Component          Value
    ---------          -----
     (2,0,0)        1.00000E-11
     (0,2,0)        2.00000E-11
     (0,0,2)       -3.00000E-11
 Nucleus-field energy     =     0.0000000025 hartrees
 Requested basis set is 6-31G(d)
 There are 40 shells and 117 basis functions
 A cutoff of  1.0D-14 yielded    785 shell pairs
 There are      6999 function pairs
 Smallest overlap matrix eigenvalue = 1.62E-03
 Guess MOs from core Hamiltonian diagonalization
 Mixing HOMO and LUMO in initial guess
 Adding  50% of the LUMO to the HOMO
 An unrestricted hybrid HF-DFT SCF calculation will be
 performed using Pulay DIIS extrapolation
 Exchange:     0.2000 Hartree-Fock + 0.0800 Slater + 0.7200 B88
 Correlation:  0.1900 VWN1RPA + 0.8100 LYP
 Using SG-1 standard quadrature grid
 SCF converges when DIIS error is below 1.0E-08
 using 4 threads for integral computing
 -------------------------------------------------------
 OpenMP Integral computing Module                
 Release: version 1.0, May 2013, Q-Chem Inc. Pittsburgh 
 -------------------------------------------------------
 -------------------------------------------------------
 OpenMP BLAS3 based DFT computing Module                
 Release: version 1.0, May 2013, Q-Chem Inc. Pittsburgh 
 -------------------------------------------------------
 ---------------------------------------
  Cycle       Energy         DIIS Error
 ---------------------------------------
    1    -228.4257153452      1.36E-01
    2    -148.8291610070      1.64E-01
    3    -222.9609051416      1.19E-01
    4    -238.7491021112      1.13E-01
    5    -283.2528091486      3.19E-02
    6    -278.4355140731      5.10E-02
    7    -285.7437175629      1.97E-02
    8    -285.9005831732      1.83E-02
    9    -286.8051009946      4.56E-03
   10    -286.8246495034      3.30E-03
   11    -286.8453037438      8.75E-04
   12    -286.8462739199      5.98E-04
   13    -286.8470435689      3.27E-04
   14    -286.8473378388      1.32E-04
   15    -286.8473992905      3.79E-05
   16    -286.8474061820      1.72E-05
   17    -286.8474086357      3.53E-06
   18    -286.8474092505      7.05E-07
   19    -286.8474096530      3.32E-07
   20    -286.8474098902      1.92E-07
   21    -286.8474101344      8.14E-08
   22    -286.8474102126      2.40E-08
   23    -286.8474102171      1.31E-08
   24    -286.8474102185      7.59E-09 Convergence criterion met
 ---------------------------------------
 <S^2> = 0.7606
 SCF time:  CPU 59.39 s  wall 38.37 s
 SCF   energy in the final basis set = -286.84741022
 Total energy in the final basis set = -286.84741022
 
 --------------------------------------------------------------
 
                    Orbital Energies (a.u.)
 --------------------------------------------------------------
 
 Alpha MOs
 -- Occupied --
-14.323 -10.233 -10.228 -10.208 -10.207 -10.202 -10.200  -0.942
 -0.791  -0.768  -0.699  -0.588  -0.563  -0.553  -0.510  -0.469
 -0.429  -0.411  -0.409  -0.364  -0.331  -0.283  -0.263  -0.253
 -0.230
 -- Virtual --
 -0.038   0.012   0.075   0.118   0.121   0.146   0.152   0.157
  0.167   0.193   0.223   0.270   0.285   0.359   0.383   0.439
  0.489   0.524   0.537   0.538   0.568   0.573   0.582   0.593
  0.620   0.626   0.648   0.666   0.684   0.715   0.722   0.798
  0.823   0.836   0.845   0.854   0.880   0.896   0.908   0.915
  0.945   0.952   1.007   1.096   1.140   1.179   1.244   1.319
  1.343   1.393   1.422   1.465   1.527   1.565   1.584   1.638
  1.669   1.711   1.760   1.814   1.835   1.905   1.915   1.985
  1.997   2.068   2.125   2.156   2.185   2.265   2.278   2.309
  2.329   2.419   2.448   2.547   2.571   2.581   2.627   2.727
  2.749   2.823   2.897   2.966   2.997   3.932   4.062   4.086
  4.154   4.323   4.415   4.521
 
 Beta MOs
 -- Occupied --
-14.323 -10.231 -10.228 -10.207 -10.203 -10.200 -10.192  -0.942
 -0.781  -0.768  -0.688  -0.577  -0.556  -0.551  -0.509  -0.462
 -0.419  -0.410  -0.406  -0.359  -0.329  -0.278  -0.263  -0.249
 -- Virtual --
 -0.070  -0.035   0.023   0.076   0.119   0.128   0.151   0.153
  0.157   0.171   0.193   0.224   0.272   0.290   0.360   0.399
  0.439   0.496   0.524   0.542   0.543   0.573   0.578   0.597
  0.621   0.628   0.643   0.649   0.667   0.686   0.718   0.725
  0.798   0.825   0.837   0.847   0.855   0.890   0.897   0.913
  0.917   0.947   0.961   1.014   1.097   1.140   1.187   1.247
  1.320   1.345   1.394   1.425   1.467   1.528   1.571   1.585
  1.659   1.685   1.760   1.783   1.827   1.845   1.908   1.920
  1.999   2.000   2.069   2.129   2.162   2.189   2.267   2.285
  2.314   2.330   2.429   2.454   2.550   2.572   2.584   2.629
  2.728   2.759   2.831   2.911   2.966   2.998   3.932   4.075
  4.103   4.159   4.327   4.415   4.523
 --------------------------------------------------------------
 
          Ground-State Mulliken Net Atomic Charges

     Atom                 Charge (a.u.)    Spin (a.u.)
  --------------------------------------------------------
      1 C                    -0.089716       0.071342
      2 C                    -0.076429      -0.161993
      3 C                    -0.191444       1.047967
      4 C                    -0.138067       0.000608
      5 C                     0.053764       0.008202
      6 N                    -0.362681      -0.003201
      7 H                     0.170661      -0.003237
      8 H                     0.158449       0.037115
      9 H                     0.162487      -0.002399
     10 H                     0.143028       0.000563
     11 H                     0.144677       0.000904
     12 C                    -0.127608       0.004519
     13 H                     0.152879      -0.000390
  --------------------------------------------------------
  Sum of atomic charges =     0.000000
  Sum of spin   charges =     1.000000

 -----------------------------------------------------------------
                    Cartesian Multipole Moments
 -----------------------------------------------------------------
    Charge (ESU x 10^10)
                 0.0000
    Dipole Moment (Debye)
         X      -0.9179      Y       1.3810      Z      -1.5727
       Tot       2.2854
    Quadrupole Moments (Debye-Ang)
        XX     -41.0565     XY      -2.2990     YY     -38.9036
        XZ      -1.3550     YZ       4.2751     ZZ     -40.6230
    Octopole Moments (Debye-Ang^2)
       XXX     -14.3135    XXY       8.5282    XYY      -1.4492
       YYY       7.2739    XXZ       0.6445    XYZ       1.2089
       YYZ     -12.4348    XZZ      -3.6601    YZZ       7.3223
       ZZZ     -17.1143
    Hexadecapole Moments (Debye-Ang^3)
      XXXX    -531.6259   XXXY     122.3998   XXYY    -114.7794
      XYYY     103.8232   YYYY    -243.2229   XXXZ      63.4461
      XXYZ       8.0720   XYYZ      14.7569   YYYZ       2.2510
      XXZZ    -113.5838   XYZZ      33.6981   YYZZ     -76.4218
      XZZZ      58.9425   YZZZ      -2.7982   ZZZZ    -210.7237
 -----------------------------------------------------------------
 Calculating analytic gradient of the SCF energy
 Gradient of SCF Energy
            1           2           3           4           5           6
    1   0.0177751   0.0065614  -0.0096870   0.0012418   0.0016237  -0.0006124
    2  -0.0261040   0.0010444   0.0021971  -0.0027644   0.0007654  -0.0013647
    3   0.0111062   0.0020049   0.0013707   0.0019456  -0.0013134   0.0009787
            7           8           9          10          11          12
    1  -0.0026496   0.0006949   0.0019175   0.0007432   0.0002271  -0.0210597
    2   0.0035071  -0.0002876  -0.0003076  -0.0001940   0.0005192   0.0252563
    3  -0.0019616  -0.0000052   0.0000046  -0.0012156  -0.0002536  -0.0147157
           13
    1   0.0032240
    2  -0.0022673
    3   0.0020545
 Max gradient component =       2.610E-02
 RMS gradient           =       8.225E-03
 Gradient time:  CPU 6.94 s  wall 2.16 s
 ----------------------------------------------------------------
             Standard Nuclear Orientation (Angstroms)
    I     Atom           X                Y                Z
 ----------------------------------------------------------------
    1      C       0.0406768827    -0.4863145848    -0.1548945274
    2      C       1.5787796961    -0.4955604291    -0.0318786824
    3      C       2.3673069035    -1.3784430701    -0.6267215348
    4      C      -1.4008931652     1.2874022115     0.0992183277
    5      C      -1.3378874933     0.4110567105     1.2901722401
    6      N      -0.5489075562    -0.6034342905     1.1904532082
    7      H      -0.2576080821    -1.3929410079    -0.7342133766
    8      H       2.0090717044     0.3081287407     0.5810313610
    9      H       2.2688674246    -2.2536238285    -1.2487650866
   10      H      -2.0128115476     2.1714374120     0.0073230662
   11      H      -1.9089492618     0.5892286115     2.1972707895
   12      C      -0.5316970798     0.7188839269    -0.7857127552
   13      H      -0.2702328498     1.1113956106    -1.7953358957
 ----------------------------------------------------------------
 Nuclear Repulsion Energy =   257.7065838025 hartrees
 There are       25 alpha and       24 beta electrons

                       Distance Matrix (Angstroms)
             C (  1)   C (  2)   C (  3)   C (  4)   C (  5)   N (  6)
   C (  2)  1.543042
   C (  3)  2.536084  1.324800
   C (  4)  2.299732  3.474851  4.672585
   C (  5)  2.189505  3.328171  4.539301  1.479974
   N (  6)  1.473529  2.456173  3.522367  2.343488  1.289040
   H (  7)  1.116493  2.161223  2.627155  3.030833  2.918827  2.100599
   H (  8)  2.246621  1.098511  2.105119  3.580360  3.422807  2.783092
   H (  9)  3.047092  2.246736  1.078225  5.274758  5.153194  4.075876
   H ( 10)  3.362555  4.473694  5.673544  1.079077  2.280387  3.353017
   H ( 11)  3.238907  4.279034  5.489356  2.268786  1.086593  2.070227
   C ( 12)  1.475821  2.548971  3.581659  1.364484  2.248110  2.377825
   H ( 13)  2.310929  3.018433  3.810718  2.213302  3.339270  3.454452
             H (  7)   H (  8)   H (  9)   H ( 10)   H ( 11)   C ( 12)
   H (  8)  3.124315
   H (  9)  2.718201  3.158833
   H ( 10)  4.041709  4.469520  6.284242
   H ( 11)  3.905064  4.247603  6.116463  2.703709
   C ( 12)  2.130160  2.914141  4.110156  2.220927  3.288134
   H ( 13)  2.719897  3.389334  4.250779  2.722104  4.347293  1.114346

 
 Applying Cartesian multipole field
    Component          Value
    ---------          -----
     (2,0,0)        1.00000E-11
     (0,2,0)        2.00000E-11
     (0,0,2)       -3.00000E-11
 Nucleus-field energy     =     0.0000000025 hartrees
 Requested basis set is 6-31G(d)
 There are 40 shells and 117 basis functions
 A cutoff of  1.0D-14 yielded    785 shell pairs
 There are      6999 function pairs
 Smallest overlap matrix eigenvalue = 1.56E-03
 Guess MOs from core Hamiltonian diagonalization
 Mixing HOMO and LUMO in initial guess
 Adding  50% of the LUMO to the HOMO
 An unrestricted hybrid HF-DFT SCF calculation will be
 performed using Pulay DIIS extrapolation
 Exchange:     0.2000 Hartree-Fock + 0.0800 Slater + 0.7200 B88
 Correlation:  0.1900 VWN1RPA + 0.8100 LYP
 Using SG-1 standard quadrature grid
 SCF converges when DIIS error is below 1.0E-08
 using 4 threads for integral computing
 -------------------------------------------------------
 OpenMP Integral computing Module                
 Release: version 1.0, May 2013, Q-Chem Inc. Pittsburgh 
 -------------------------------------------------------
 -------------------------------------------------------
 OpenMP BLAS3 based DFT computing Module                
 Release: version 1.0, May 2013, Q-Chem Inc. Pittsburgh 
 -------------------------------------------------------
 ---------------------------------------
  Cycle       Energy         DIIS Error
 ---------------------------------------
    1    -227.2766696694      1.38E-01
    2    -146.4051510119      1.66E-01
    3    -221.3437521004      1.19E-01
    4    -240.0802349145      1.13E-01
    5    -283.4001081465      3.17E-02
    6    -278.4158315841      5.11E-02
    7    -285.8075698396      1.92E-02
    8    -285.8920621744      1.84E-02
    9    -286.8025521651      4.70E-03
   10    -286.8261814334      3.20E-03
   11    -286.8459688187      7.81E-04
   12    -286.8468387906      5.10E-04
   13    -286.8474654234      2.58E-04
   14    -286.8477060111      1.16E-04
   15    -286.8477688504      3.90E-05
   16    -286.8477811063      1.51E-05
   17    -286.8477848181      4.43E-06
   18    -286.8477857020      9.02E-07
   19    -286.8477864062      4.30E-07
   20    -286.8477868775      2.77E-07
   21    -286.8477873010      1.00E-07
   22    -286.8477873583      3.54E-08
   23    -286.8477873627      1.57E-08
   24    -286.8477873646      9.95E-09 Convergence criterion met
 ---------------------------------------
 <S^2> = 0.7619
 SCF time:  CPU 59.21 s  wall 40.61 s
 SCF   energy in the final basis set = -286.84778736
 Total energy in the final basis set = -286.84778736
 
 --------------------------------------------------------------
 
                    Orbital Energies (a.u.)
 --------------------------------------------------------------
 
 Alpha MOs
 -- Occupied --
-14.323 -10.232 -10.226 -10.211 -10.209 -10.206 -10.203  -0.947
 -0.789  -0.767  -0.703  -0.586  -0.561  -0.555  -0.513  -0.468
 -0.422  -0.415  -0.398  -0.376  -0.327  -0.281  -0.267  -0.252
 -0.235
 -- Virtual --
 -0.039   0.009   0.071   0.112   0.121   0.144   0.147   0.157
  0.165   0.202   0.240   0.264   0.283   0.365   0.377   0.433
  0.487   0.532   0.539   0.542   0.566   0.575   0.576   0.594
  0.618   0.630   0.647   0.674   0.685   0.717   0.726   0.793
  0.817   0.825   0.839   0.848   0.875   0.888   0.901   0.908
  0.941   0.952   1.002   1.097   1.141   1.180   1.255   1.307
  1.324   1.399   1.417   1.471   1.530   1.564   1.590   1.637
  1.657   1.714   1.785   1.815   1.827   1.911   1.950   1.980
  1.988   2.061   2.122   2.160   2.177   2.268   2.280   2.301
  2.322   2.406   2.442   2.546   2.578   2.588   2.632   2.714
  2.750   2.834   2.878   2.937   3.011   3.929   4.053   4.080
  4.170   4.318   4.414   4.533
 
 Beta MOs
 -- Occupied --
-14.323 -10.230 -10.226 -10.209 -10.208 -10.203 -10.195  -0.946
 -0.781  -0.765  -0.692  -0.574  -0.558  -0.551  -0.512  -0.461
 -0.416  -0.409  -0.396  -0.372  -0.324  -0.277  -0.266  -0.248
 -- Virtual --
 -0.074  -0.036   0.021   0.073   0.113   0.128   0.148   0.149
  0.158   0.168   0.203   0.240   0.268   0.287   0.366   0.394
  0.434   0.494   0.533   0.541   0.547   0.572   0.579   0.598
  0.623   0.630   0.637   0.648   0.676   0.687   0.720   0.729
  0.793   0.818   0.825   0.842   0.850   0.882   0.891   0.906
  0.910   0.945   0.959   1.010   1.098   1.142   1.187   1.258
  1.309   1.325   1.400   1.421   1.473   1.531   1.569   1.592
  1.654   1.680   1.775   1.793   1.823   1.842   1.913   1.960
  1.984   1.998   2.063   2.126   2.163   2.184   2.271   2.286
  2.303   2.327   2.416   2.449   2.548   2.579   2.591   2.634
  2.719   2.762   2.838   2.890   2.937   3.012   3.929   4.068
  4.095   4.174   4.322   4.414   4.535
 --------------------------------------------------------------
 
          Ground-State Mulliken Net Atomic Charges

     Atom                 Charge (a.u.)    Spin (a.u.)
  --------------------------------------------------------
      1 C                    -0.097175       0.072749
      2 C                    -0.079493      -0.170312
      3 C                    -0.192561       1.054119
      4 C                    -0.144670       0.004768
      5 C                     0.052648       0.007334
      6 N                    -0.363011      -0.002269
      7 H                     0.174513      -0.003426
      8 H                     0.158308       0.035255
      9 H                     0.162240       0.000129
     10 H                     0.145342       0.000391
     11 H                     0.142535       0.000702
     12 C                    -0.111231       0.000680
     13 H                     0.152556      -0.000121
  --------------------------------------------------------
  Sum of atomic charges =    -0.000000
  Sum of spin   charges =     1.000000

 -----------------------------------------------------------------
                    Cartesian Multipole Moments
 -----------------------------------------------------------------
    Charge (ESU x 10^10)
                -0.0000
    Dipole Moment (Debye)
         X      -0.9744      Y       1.4105      Z      -1.6058
       Tot       2.3490
    Quadrupole Moments (Debye-Ang)
        XX     -41.1084     XY      -2.3718     YY     -38.8617
        XZ      -1.2784     YZ       4.2476     ZZ     -40.8047
    Octopole Moments (Debye-Ang^2)
       XXX     -14.7517    XXY       8.8426    XYY      -1.8929
       YYY       7.4506    XXZ       0.7668    XYZ       1.2658
       YYZ     -12.4851    XZZ      -3.9239    YZZ       7.2732
       ZZZ     -16.8019
    Hexadecapole Moments (Debye-Ang^3)
      XXXX    -533.3357   XXXY     122.0915   XXYY    -114.4019
      XYYY     103.5747   YYYY    -241.0566   XXXZ      64.5729
      XXYZ       7.5827   XYYZ      14.9713   YYYZ       1.5677
      XXZZ    -114.4785   XYZZ      34.1319   YYZZ     -76.0165
      XZZZ      59.8264   YZZZ      -4.0407   ZZZZ    -210.3916
 -----------------------------------------------------------------
 Calculating analytic gradient of the SCF energy
 Gradient of SCF Energy
            1           2           3           4           5           6
    1  -0.0118760  -0.0072965   0.0086274  -0.0166385   0.0059212   0.0008991
    2   0.0271555   0.0058799  -0.0138111   0.0189925  -0.0069083  -0.0034321
    3  -0.0009940   0.0092642  -0.0104961   0.0018363   0.0007651   0.0043937
            7           8           9          10          11          12
    1  -0.0027151   0.0034139   0.0009144   0.0007462   0.0012686   0.0127950
    2  -0.0071012   0.0035914   0.0024970  -0.0027025   0.0006266  -0.0342533
    3  -0.0056821   0.0024637   0.0022731   0.0025347  -0.0022816   0.0125975
           13
    1   0.0039404
    2   0.0094656
    3  -0.0166747
 Max gradient component =       3.425E-02
 RMS gradient           =       1.040E-02
 Gradient time:  CPU 6.98 s  wall 2.56 s
 ----------------------------------------------------------------
             Standard Nuclear Orientation (Angstroms)
    I     Atom           X                Y                Z
 ----------------------------------------------------------------
    1      C       0.0508167353    -0.5140864862    -0.1543065524
    2      C       1.5846083851    -0.5018806507    -0.0417074431
    3      C       2.3595594725    -1.3622409324    -0.6168250346
    4      C      -1.3820802862     1.2681742054     0.0973851045
    5      C      -1.3443615908     0.4186000120     1.2897004770
    6      N      -0.5510054835    -0.6000856974     1.1861719660
    7      H      -0.2550526726    -1.3879136141    -0.7267298219
    8      H       2.0026211041     0.3041057562     0.5792034289
    9      H       2.2690805123    -2.2531208121    -1.2534224878
   10      H      -2.0100918364     2.1754734186     0.0039393483
   11      H      -1.9108042720     0.5893876817     2.1997526084
   12      C      -0.5428248868     0.7514661207    -0.7973335977
   13      H      -0.2747497095     1.0993372463    -1.7778810744
 ----------------------------------------------------------------
 Nuclear Repulsion Energy =   258.0295210289 hartrees
 There are       25 alpha and       24 beta electrons

                       Distance Matrix (Angstroms)
             C (  1)   C (  2)   C (  3)   C (  4)   C (  5)   N (  6)
   C (  2)  1.537968
   C (  3)  2.502715  1.292876
   C (  4)  2.300651  3.457410  4.629152
   C (  5)  2.213952  3.346460  4.530482  1.464519
   N (  6)  1.471893  2.465396  3.507573  2.316579  1.295320
   H (  7)  1.088484  2.153756  2.617047  3.000693  2.918232  2.089845
   H (  8)  2.239870  1.099945  2.081970  3.552152  3.423479  2.776145
   H (  9)  3.025391  2.236872  1.098685  5.249302  5.163577  4.078852
   H ( 10)  3.392067  4.482430  5.656379  1.107394  2.276616  3.351169
   H ( 11)  3.256871  4.293358  5.475214  2.271618  1.085459  2.071532
   C ( 12)  1.538674  2.582212  3.595021  1.331112  2.260304  2.400219
   H ( 13)  2.311952  3.005896  3.787744  2.184333  3.319266  3.427822
             H (  7)   H (  8)   H (  9)   H ( 10)   H ( 11)   C ( 12)
   H (  8)  3.108936
   H (  9)  2.719786  3.157361
   H ( 10)  4.038783  4.464842  6.285278
   H ( 11)  3.900709  4.245287  6.121741  2.710557
   C ( 12)  2.159802  2.928187  4.140335  2.196066  3.298509
   H ( 13)  2.700319  3.372634  4.240885  2.710049  4.331084  1.074408

 
 Applying Cartesian multipole field
    Component          Value
    ---------          -----
     (2,0,0)        1.00000E-11
     (0,2,0)        2.00000E-11
     (0,0,2)       -3.00000E-11
 Nucleus-field energy     =     0.0000000025 hartrees
 Requested basis set is 6-31G(d)
 There are 40 shells and 117 basis functions
 A cutoff of  1.0D-14 yielded    785 shell pairs
 There are      6999 function pairs
 Smallest overlap matrix eigenvalue = 1.50E-03
 Guess MOs from core Hamiltonian diagonalization
 Mixing HOMO and LUMO in initial guess
 Adding  50% of the LUMO to the HOMO
 An unrestricted hybrid HF-DFT SCF calculation will be
 performed using Pulay DIIS extrapolation
 Exchange:     0.2000 Hartree-Fock + 0.0800 Slater + 0.7200 B88
 Correlation:  0.1900 VWN1RPA + 0.8100 LYP
 Using SG-1 standard quadrature grid
 SCF converges when DIIS error is below 1.0E-08
 using 4 threads for integral computing
 -------------------------------------------------------
 OpenMP Integral computing Module                
 Release: version 1.0, May 2013, Q-Chem Inc. Pittsburgh 
 -------------------------------------------------------
 -------------------------------------------------------
 OpenMP BLAS3 based DFT computing Module                
 Release: version 1.0, May 2013, Q-Chem Inc. Pittsburgh 
 -------------------------------------------------------
 ---------------------------------------
  Cycle       Energy         DIIS Error
 ---------------------------------------
    1    -228.3310594761      1.37E-01
    2    -148.5843371782      1.64E-01
    3    -225.3622721885      1.17E-01
    4    -240.2558969848      1.16E-01
    5    -284.6857976044      2.51E-02
    6    -278.7769317098      4.91E-02
    7    -286.0369240351      1.63E-02
    8    -286.0414620426      1.65E-02
    9    -286.8089349903      4.29E-03
   10    -286.8352100214      2.48E-03
   11    -286.8472422167      5.37E-04
   12    -286.8478672048      3.57E-04
   13    -286.8482549021      1.96E-04
   14    -286.8484381372      1.02E-04
   15    -286.8485064658      5.05E-05
   16    -286.8485257609      1.54E-05
   17    -286.8485303590      2.50E-06
   18    -286.8485309507      6.96E-07
   19    -286.8485312839      2.23E-07
   20    -286.8485314623      1.25E-07
   21    -286.8485315970      8.11E-08
   22    -286.8485316395      2.76E-08
   23    -286.8485316443      9.18E-09 Convergence criterion met
 ---------------------------------------
 <S^2> = 0.7599
 SCF time:  CPU 57.08 s  wall 41.93 s
 SCF   energy in the final basis set = -286.84853164
 Total energy in the final basis set = -286.84853164
 
 --------------------------------------------------------------
 
                    Orbital Energies (a.u.)
 --------------------------------------------------------------
 
 Alpha MOs
 -- Occupied --
-14.323 -10.231 -10.227 -10.207 -10.204 -10.201 -10.200  -0.944
 -0.792  -0.770  -0.703  -0.586  -0.561  -0.555  -0.510  -0.468
 -0.426  -0.412  -0.407  -0.370  -0.332  -0.284  -0.265  -0.254
 -0.231
 -- Virtual --
 -0.038   0.016   0.076   0.115   0.118   0.147   0.153   0.156
  0.165   0.201   0.228   0.268   0.284   0.363   0.386   0.441
  0.483   0.528   0.537   0.539   0.570   0.575   0.584   0.596
  0.621   0.628   0.649   0.670   0.684   0.715   0.720   0.795
  0.825   0.833   0.847   0.852   0.875   0.892   0.907   0.920
  0.943   0.952   1.005   1.102   1.145   1.191   1.253   1.313
  1.336   1.398   1.419   1.474   1.529   1.567   1.585   1.634
  1.663   1.714   1.776   1.810   1.839   1.915   1.930   1.991
  1.995   2.068   2.135   2.167   2.192   2.268   2.288   2.316
  2.330   2.422   2.452   2.554   2.581   2.590   2.632   2.733
  2.758   2.836   2.903   2.964   3.002   3.924   4.062   4.086
  4.165   4.322   4.413   4.530
 
 Beta MOs
 -- Occupied --
-14.323 -10.229 -10.227 -10.204 -10.202 -10.201 -10.192  -0.943
 -0.782  -0.769  -0.693  -0.577  -0.556  -0.549  -0.509  -0.460
 -0.415  -0.411  -0.403  -0.366  -0.329  -0.279  -0.264  -0.250
 -- Virtual --
 -0.073  -0.035   0.028   0.078   0.116   0.126   0.151   0.154
  0.156   0.169   0.202   0.229   0.272   0.288   0.364   0.403
  0.441   0.491   0.529   0.540   0.545   0.574   0.581   0.602
  0.622   0.629   0.644   0.651   0.671   0.686   0.717   0.723
  0.795   0.827   0.833   0.849   0.853   0.887   0.893   0.912
  0.922   0.947   0.958   1.012   1.104   1.146   1.200   1.255
  1.314   1.337   1.398   1.424   1.475   1.530   1.573   1.588
  1.655   1.679   1.769   1.788   1.822   1.850   1.918   1.936
  1.997   2.007   2.069   2.140   2.172   2.198   2.270   2.296
  2.320   2.332   2.434   2.457   2.557   2.582   2.593   2.634
  2.734   2.770   2.844   2.916   2.964   3.003   3.924   4.077
  4.103   4.169   4.325   4.414   4.533
 --------------------------------------------------------------
 
          Ground-State Mulliken Net Atomic Charges

     Atom                 Charge (a.u.)    Spin (a.u.)
  --------------------------------------------------------
      1 C                    -0.093517       0.076362
      2 C                    -0.074134      -0.159561
      3 C                    -0.193667       1.030887
      4 C                    -0.138635       0.002861
      5 C                     0.052479       0.009002
      6 N                    -0.364506      -0.003267
      7 H                     0.173880      -0.003380
      8 H                     0.156791       0.040496
      9 H                     0.159247       0.002796
     10 H                     0.140443       0.000575
     11 H                     0.146715       0.000692
     12 C                    -0.118073       0.002811
     13 H                     0.152978      -0.000276
  --------------------------------------------------------
  Sum of atomic charges =     0.000000
  Sum of spin   charges =     1.000000

 -----------------------------------------------------------------
                    Cartesian Multipole Moments
 -----------------------------------------------------------------
    Charge (ESU x 10^10)
                 0.0000
    Dipole Moment (Debye)
         X      -0.9855      Y       1.3726      Z      -1.5641
       Tot       2.3026
    Quadrupole Moments (Debye-Ang)
        XX     -41.0956     XY      -2.2072     YY     -38.9855
        XZ      -1.3813     YZ       4.2486     ZZ     -40.5396
    Octopole Moments (Debye-Ang^2)
       XXX     -14.9243    XXY       8.5962    XYY      -1.5702
       YYY       6.9473    XXZ       1.0019    XYZ       1.0829
       YYZ     -12.2881    XZZ      -4.1333    YZZ       7.3232
       ZZZ     -16.5151
    Hexadecapole Moments (Debye-Ang^3)
      XXXX    -532.3881   XXXY     122.8142   XXYY    -115.3287
      XYYY     104.3719   YYYY    -242.0959   XXXZ      63.8418
      XXYZ       7.5801   XYYZ      15.0220   YYYZ       1.7805
      XXZZ    -113.2933   XYZZ      33.8118   YYZZ     -75.9208
      XZZZ      58.8288   YZZZ      -3.3081   ZZZZ    -208.2530
 -----------------------------------------------------------------
 Calculating analytic gradient of the SCF energy
 Gradient of SCF Energy
            1           2           3           4           5           6
    1  -0.0005394   0.0157224  -0.0147502   0.0202431  -0.0074003   0.0035811
    2  -0.0143544  -0.0185229   0.0241911  -0.0253546   0.0093091  -0.0031872
    3  -0.0007825  -0.0107490   0.0163759  -0.0061569   0.0025443  -0.0002522
            7           8           9          10          11          12
    1   0.0012525   0.0034892  -0.0004511  -0.0086879   0.0018825  -0.0147351
    2   0.0060469   0.0033206  -0.0088534   0.0113923  -0.0007838   0.0198261
    3   0.0022500   0.0029153  -0.0060026  -0.0000210  -0.0015059  -0.0045594
           13
    1   0.0003931
    2  -0.0030299
    3   0.0059440
 Max gradient component =       2.535E-02
 RMS gradient           =       1.053E-02
 Gradient time:  CPU 7.07 s  wall 1.93 s
 ----------------------------------------------------------------
             Standard Nuclear Orientation (Angstroms)
    I     Atom           X                Y                Z
 ----------------------------------------------------------------
    1      C       0.0652252745    -0.5164842224    -0.1478069324
    2      C       1.5672222718    -0.4760325019    -0.0288753299
    3      C       2.3735652940    -1.3917289723    -0.6360002903
    4      C      -1.4046018820     1.2964276717     0.1066965995
    5      C      -1.3351983246     0.4080087374     1.2848529732
    6      N      -0.5570025843    -0.5941703307     1.1848429379
    7      H      -0.2567626747    -1.3919192380    -0.7284955004
    8      H       1.9963499059     0.2972631030     0.5735170919
    9      H       2.2700254374    -2.2413589241    -1.2450772800
   10      H      -1.9973629907     2.1591917766     0.0023287540
   11      H      -1.9141222707     0.5903897436     2.2029948984
   12      C      -0.5358480333     0.7488830224    -0.8029215030
   13      H      -0.2757738181     1.0987463790    -1.7781095408
 ----------------------------------------------------------------
 Nuclear Repulsion Energy =   257.3030990279 hartrees
 There are       25 alpha and       24 beta electrons

                       Distance Matrix (Angstroms)
             C (  1)   C (  2)   C (  3)   C (  4)   C (  5)   N (  6)
   C (  2)  1.507241
   C (  3)  2.516509  1.362824
   C (  4)  2.347725  3.462908  4.695991
   C (  5)  2.206442  3.306275  4.547929  1.477213
   N (  6)  1.472806  2.449367  3.541158  2.335634  1.272774
   H (  7)  1.098755  2.157600  2.631954  3.040113  2.907978  2.094615
   H (  8)  2.216244  1.070053  2.111378  3.575294  3.408442  2.772721
   H (  9)  3.006716  2.255982  1.050508  5.276942  5.139780  4.075516
   H ( 10)  3.381723  4.433018  5.667585  1.051960  2.269355  3.324753
   H ( 11)  3.266383  4.270628  5.511166  2.269927  1.100636  2.069200
   C ( 12)  1.546486  2.553913  3.615905  1.371839  2.261406  2.399051
   H ( 13)  2.320159  2.989378  3.811283  2.205861  3.313795  3.424054
             H (  7)   H (  8)   H (  9)   H ( 10)   H ( 11)   C ( 12)
   H (  8)  3.102433
   H (  9)  2.715338  3.134770
   H ( 10)  4.021714  4.443285  6.255515
   H ( 11)  3.907688  4.246518  6.116788  2.703886
   C ( 12)  2.160200  2.917288  4.124315  2.184817  3.310633
   H ( 13)  2.702863  3.366759  4.233382  2.694137  4.334952  1.068192

 
 Applying Cartesian multipole field
    Component          Value
    ---------          -----
     (2,0,0)        1.00000E-11
     (0,2,0)        2.00000E-11
     (0,0,2)       -3.00000E-11
 Nucleus-field energy     =     0.0000000026 hartrees
 Requested basis set is 6-31G(d)
 There are 40 shells and 117 basis functions
 A cutoff of  1.0D-14 yielded    785 shell pairs
 There are      6999 function pairs
 Smallest overlap matrix eigenvalue = 1.68E-03
 Guess MOs from core Hamiltonian diagonalization
 Mixing HOMO and LUMO in initial guess
 Adding  50% of the LUMO to the HOMO
 An unrestricted hybrid HF-DFT SCF calculation will be
 performed using Pulay DIIS extrapolation
 Exchange:     0.2000 Hartree-Fock + 0.0800 Slater + 0.7200 B88
 Correlation:  0.1900 VWN1RPA + 0.8100 LYP
 Using SG-1 standard quadrature grid
 SCF converges when DIIS error is below 1.0E-08
 using 4 threads for integral computing
 -------------------------------------------------------
 OpenMP Integral computing Module                
 Release: version 1.0, May 2013, Q-Chem Inc. Pittsburgh 
 -------------------------------------------------------
 -------------------------------------------------------
 OpenMP BLAS3 based DFT computing Module                
 Release: version 1.0, May 2013, Q-Chem Inc. Pittsburgh 
 -------------------------------------------------------
 ---------------------------------------
  Cycle       Energy         DIIS Error
 ---------------------------------------
    1    -227.3000211449      1.37E-01
    2    -144.7914346181      1.67E-01
    3    -220.5375727145      1.18E-01
    4    -237.2036332214      1.13E-01
    5    -283.0228927898      3.36E-02
    6    -278.4744652568      5.10E-02
    7    -285.7605725207      1.97E-02
    8    -285.9405653787      1.78E-02
    9    -286.7944680716      4.88E-03
   10    -286.8224674041      3.17E-03
   11    -286.8417369940      8.02E-04
   12    -286.8427061591      4.75E-04
   13    -286.8433150739      2.23E-04
   14    -286.8435263802      1.28E-04
   15    -286.8436010644      6.07E-05
   16    -286.8436331533      1.91E-05
   17    -286.8436418076      4.00E-06
   18    -286.8436433020      1.03E-06
   19    -286.8436444737      5.44E-07
   20    -286.8436453513      3.57E-07
   21    -286.8436460778      1.24E-07
   22    -286.8436461246      3.19E-08
   23    -286.8436461279      1.40E-08
   24    -286.8436461296      8.22E-09 Convergence criterion met
 ---------------------------------------
 <S^2> = 0.7650
 SCF time:  CPU 59.63 s  wall 31.07 s
 SCF   energy in the final basis set = -286.84364613
 Total energy in the final basis set = -286.84364613
 
 --------------------------------------------------------------
 
                    Orbital Energies (a.u.)
 --------------------------------------------------------------
 
 Alpha MOs
 -- Occupied --
-14.321 -10.232 -10.227 -10.213 -10.208 -10.206 -10.201  -0.946
 -0.788  -0.765  -0.699  -0.594  -0.568  -0.553  -0.514  -0.469
 -0.429  -0.414  -0.402  -0.371  -0.332  -0.278  -0.262  -0.249
 -0.238
 -- Virtual --
 -0.039   0.001   0.072   0.122   0.130   0.146   0.152   0.161
  0.169   0.198   0.227   0.269   0.288   0.358   0.367   0.434
  0.499   0.529   0.537   0.542   0.563   0.566   0.575   0.588
  0.618   0.625   0.647   0.668   0.690   0.716   0.722   0.799
  0.824   0.838   0.844   0.861   0.879   0.899   0.906   0.915
  0.945   0.954   1.002   1.090   1.144   1.165   1.252   1.311
  1.332   1.399   1.419   1.465   1.529   1.565   1.588   1.645
  1.669   1.720   1.773   1.819   1.840   1.918   1.926   1.959
  1.991   2.063   2.124   2.159   2.165   2.265   2.269   2.297
  2.309   2.404   2.437   2.544   2.570   2.585   2.626   2.711
  2.740   2.823   2.864   2.961   3.002   3.940   4.047   4.082
  4.166   4.329   4.420   4.529
 
 Beta MOs
 -- Occupied --
-14.321 -10.230 -10.227 -10.208 -10.208 -10.201 -10.197  -0.946
 -0.781  -0.764  -0.686  -0.581  -0.562  -0.552  -0.514  -0.462
 -0.421  -0.411  -0.401  -0.366  -0.330  -0.274  -0.261  -0.243
 -- Virtual --
 -0.072  -0.036   0.013   0.073   0.123   0.134   0.152   0.154
  0.161   0.171   0.198   0.228   0.271   0.292   0.358   0.384
  0.434   0.505   0.530   0.541   0.546   0.571   0.574   0.590
  0.623   0.625   0.635   0.647   0.669   0.691   0.719   0.724
  0.799   0.826   0.841   0.846   0.862   0.885   0.903   0.908
  0.920   0.947   0.964   1.011   1.092   1.145   1.170   1.254
  1.312   1.333   1.400   1.423   1.467   1.530   1.570   1.589
  1.663   1.693   1.779   1.790   1.830   1.849   1.922   1.928
  1.973   1.994   2.064   2.128   2.162   2.172   2.271   2.274
  2.300   2.311   2.411   2.445   2.546   2.571   2.588   2.627
  2.715   2.749   2.826   2.878   2.961   3.002   3.940   4.068
  4.092   4.170   4.334   4.420   4.531
 --------------------------------------------------------------
 
          Ground-State Mulliken Net Atomic Charges

     Atom                 Charge (a.u.)    Spin (a.u.)
  --------------------------------------------------------
      1 C                    -0.089573       0.060998
      2 C                    -0.084086      -0.179119
      3 C                    -0.192533       1.090784
      4 C                    -0.142542       0.000774
      5 C                     0.058075       0.005154
      6 N                    -0.361064      -0.002491
      7 H                     0.174089      -0.002701
      8 H                     0.160702       0.027508
      9 H                     0.163894      -0.004003
     10 H                     0.143641       0.000416
     11 H                     0.141209       0.000834
     12 C                    -0.124689       0.002126
     13 H                     0.152877      -0.000279
  --------------------------------------------------------
  Sum of atomic charges =    -0.000000
  Sum of spin   charges =     1.000000

 -----------------------------------------------------------------
                    Cartesian Multipole Moments
 -----------------------------------------------------------------
    Charge (ESU x 10^10)
                 0.0000
    Dipole Moment (Debye)
         X      -0.9659      Y       1.3836      Z      -1.5923
       Tot       2.3200
    Quadrupole Moments (Debye-Ang)
        XX     -41.1066     XY      -2.2847     YY     -38.8660
        XZ      -1.2193     YZ       4.2313     ZZ     -40.7466
    Octopole Moments (Debye-Ang^2)
       XXX     -14.9193    XXY       8.7553    XYY      -1.9683
       YYY       7.1782    XXZ       0.7297    XYZ       1.2987
       YYZ     -12.3454    XZZ      -3.8857    YZZ       7.1780
       ZZZ     -16.7425
    Hexadecapole Moments (Debye-Ang^3)
      XXXX    -533.2600   XXXY     123.1952   XXYY    -115.1458
      XYYY     104.7477   YYYY    -243.2133   XXXZ      65.0590
      XXYZ       7.5687   XYYZ      15.2060   YYYZ       1.2729
      XXZZ    -114.4283   XYZZ      34.2896   YYZZ     -76.3090
      XZZZ      60.6693   YZZZ      -4.0038   ZZZZ    -210.1474
 -----------------------------------------------------------------
 Calculating analytic gradient of the SCF energy
 Gradient of SCF Energy
            1           2           3           4           5           6
    1   0.0158134  -0.0315205   0.0247460  -0.0357110   0.0195352  -0.0120908
    2  -0.0158869   0.0503145  -0.0571837   0.0360697  -0.0208496   0.0146796
    3   0.0059634   0.0338005  -0.0388518   0.0151695  -0.0073951   0.0017873
            7           8           9          10          11          12
    1  -0.0022837  -0.0035743   0.0038526   0.0137348  -0.0032670   0.0125417
    2   0.0014491  -0.0105393   0.0203280  -0.0198093   0.0025587   0.0027334
    3  -0.0012846  -0.0072971   0.0148795   0.0017034   0.0049055  -0.0339171
           13
    1  -0.0017763
    2  -0.0038641
    3   0.0105366
 Max gradient component =       5.718E-02
 RMS gradient           =       2.121E-02
 Gradient time:  CPU 7.38 s  wall 3.22 s
WARNING!!!!! energy has increased from optimization step!
 ----------------------------------------------------------------
             Standard Nuclear Orientation (Angstroms)
    I     Atom           X                Y                Z
 ----------------------------------------------------------------
    1      C       0.0471179297    -0.4817104901    -0.1557562871
    2      C       1.5848953864    -0.5061303549    -0.0479731359
    3      C       2.3635288293    -1.3657265050    -0.6137780797
    4      C      -1.3934266611     1.2834321139     0.0968434845
    5      C      -1.3454874869     0.4173391251     1.2897249431
    6      N      -0.5459540957    -0.6044462552     1.1841862426
    7      H      -0.2547722686    -1.3935251532    -0.7328567333
    8      H       2.0052628333     0.3062375733     0.5774980253
    9      H       2.2644095342    -2.2596500789    -1.2486953379
   10      H      -2.0127455153     2.1672430875     0.0040562093
   11      H      -1.9107177809     0.5869738001     2.1987651348
   12      C      -0.5329386791     0.7256372412    -0.7693900345
   13      H      -0.2734559338     1.1115416305    -1.7946771852
 ----------------------------------------------------------------
 Nuclear Repulsion Energy =   258.3428164916 hartrees
 There are       25 alpha and       24 beta electrons

                       Distance Matrix (Angstroms)
             C (  1)   C (  2)   C (  3)   C (  4)   C (  5)   N (  6)
   C (  2)  1.541744
   C (  3)  2.521315  1.290469
   C (  4)  2.292314  3.477630  4.651638
   C (  5)  2.199331  3.351026  4.534253  1.474917
   N (  6)  1.470457  2.463413  3.503900  2.337650  1.301706
   H (  7)  1.120530  2.154278  2.621155  3.025068  2.925701  2.093439
   H (  8)  2.234470  1.108091  2.083976  3.568897  3.427410  2.775991
   H (  9)  3.044990  2.231211  1.100929  5.267226  5.161512  4.068999
   H ( 10)  3.359395  4.482483  5.658213  1.083184  2.271638  3.350589
   H ( 11)  3.243297  4.296745  5.476552  2.273921  1.083797  2.076399
   C ( 12)  1.473330  2.554000  3.575967  1.342362  2.235003  2.363420
   H ( 13)  2.308090  3.020150  3.805925  2.204933  3.338369  3.448550
             H (  7)   H (  8)   H (  9)   H ( 10)   H ( 11)   C ( 12)
   H (  8)  3.116726
   H (  9)  2.713400  3.160050
   H ( 10)  4.038884  4.465038  6.281785
   H ( 11)  3.906269  4.247614  6.117184  2.706364
   C ( 12)  2.137653  2.903872  4.119081  2.205963  3.275278
   H ( 13)  2.720877  3.386486  4.254855  2.715709  4.347802  1.125818

 
 Applying Cartesian multipole field
    Component          Value
    ---------          -----
     (2,0,0)        1.00000E-11
     (0,2,0)        2.00000E-11
     (0,0,2)       -3.00000E-11
 Nucleus-field energy     =     0.0000000025 hartrees
 Requested basis set is 6-31G(d)
 There are 40 shells and 117 basis functions
 A cutoff of  1.0D-14 yielded    785 shell pairs
 There are      6999 function pairs
 Smallest overlap matrix eigenvalue = 1.48E-03
 Guess MOs from core Hamiltonian diagonalization
 Mixing HOMO and LUMO in initial guess
 Adding  50% of the LUMO to the HOMO
 An unrestricted hybrid HF-DFT SCF calculation will be
 performed using Pulay DIIS extrapolation
 Exchange:     0.2000 Hartree-Fock + 0.0800 Slater + 0.7200 B88
 Correlation:  0.1900 VWN1RPA + 0.8100 LYP
 Using SG-1 standard quadrature grid
 SCF converges when DIIS error is below 1.0E-08
 using 4 threads for integral computing
 -------------------------------------------------------
 OpenMP Integral computing Module                
 Release: version 1.0, May 2013, Q-Chem Inc. Pittsburgh 
 -------------------------------------------------------
 -------------------------------------------------------
 OpenMP BLAS3 based DFT computing Module                
 Release: version 1.0, May 2013, Q-Chem Inc. Pittsburgh 
 -------------------------------------------------------
 ---------------------------------------
  Cycle       Energy         DIIS Error
 ---------------------------------------
    1    -227.6504529129      1.37E-01
    2    -147.8128745140      1.64E-01
    3    -222.7049357562      1.19E-01
    4    -242.3248164714      1.12E-01
    5    -283.6556721175      3.05E-02
    6    -278.6344993119      5.00E-02
    7    -285.8777868110      1.84E-02
    8    -285.8940231208      1.84E-02
    9    -286.8085447462      4.28E-03
   10    -286.8293550894      2.91E-03
   11    -286.8456400281      6.11E-04
   12    -286.8462823724      4.08E-04
   13    -286.8466928313      2.23E-04
   14    -286.8468716187      1.02E-04
   15    -286.8469239434      3.16E-05
   16    -286.8469336586      6.66E-06
   17    -286.8469352284      2.45E-06
   18    -286.8469356771      6.99E-07
   19    -286.8469360537      3.36E-07
   20    -286.8469362908      2.00E-07
   21    -286.8469365219      9.11E-08
   22    -286.8469365899      2.45E-08
   23    -286.8469365940      1.37E-08
   24    -286.8469365950      8.06E-09 Convergence criterion met
 ---------------------------------------
 <S^2> = 0.7598
 SCF time:  CPU 59.56 s  wall 53.49 s
 SCF   energy in the final basis set = -286.84693660
 Total energy in the final basis set = -286.84693660
 
 --------------------------------------------------------------
 
                    Orbital Energies (a.u.)
 --------------------------------------------------------------
 
 Alpha MOs
 -- Occupied --
-14.323 -10.231 -10.227 -10.208 -10.207 -10.202 -10.201  -0.946
 -0.792  -0.770  -0.706  -0.584  -0.559  -0.554  -0.513  -0.468
 -0.422  -0.415  -0.398  -0.377  -0.327  -0.286  -0.267  -0.253
 -0.233
 -- Virtual --
 -0.039   0.016   0.073   0.110   0.116   0.143   0.148   0.158
  0.165   0.205   0.242   0.268   0.283   0.367   0.386   0.437
  0.481   0.532   0.539   0.541   0.567   0.577   0.584   0.598
  0.622   0.631   0.649   0.674   0.685   0.718   0.728   0.789
  0.817   0.825   0.842   0.847   0.872   0.884   0.897   0.914
  0.939   0.954   1.002   1.104   1.146   1.196   1.257   1.307
  1.327   1.402   1.417   1.473   1.533   1.569   1.589   1.632
  1.658   1.713   1.783   1.816   1.832   1.917   1.962   1.980
  1.997   2.068   2.128   2.167   2.192   2.269   2.294   2.311
  2.331   2.409   2.450   2.555   2.583   2.592   2.643   2.724
  2.767   2.843   2.909   2.949   3.011   3.920   4.060   4.083
  4.172   4.319   4.411   4.537
 
 Beta MOs
 -- Occupied --
-14.323 -10.229 -10.227 -10.207 -10.204 -10.201 -10.193  -0.945
 -0.783  -0.769  -0.696  -0.573  -0.558  -0.547  -0.512  -0.460
 -0.415  -0.408  -0.396  -0.373  -0.323  -0.280  -0.266  -0.250
 -- Virtual --
 -0.075  -0.035   0.027   0.075   0.110   0.124   0.147   0.149
  0.158   0.169   0.206   0.242   0.271   0.287   0.367   0.403
  0.438   0.488   0.533   0.541   0.547   0.573   0.581   0.604
  0.624   0.631   0.641   0.651   0.676   0.687   0.720   0.731
  0.789   0.819   0.825   0.844   0.850   0.881   0.889   0.902
[...]
      1 C                    -0.048697      -0.088670
      2 C                    -0.131942      -0.021538
      3 C                    -0.150135       0.274183
      4 C                    -0.193765      -0.157172
      5 C                     0.061600       0.054818
      6 N                    -0.341223      -0.030001
      7 H                     0.182987       0.022381
      8 H                     0.146048       0.015572
      9 H                     0.184803      -0.010435
     10 H                     0.139688       0.065599
     11 H                     0.140871       0.012258
     12 C                    -0.178638       0.907057
     13 H                     0.188403      -0.044053
  --------------------------------------------------------
  Sum of atomic charges =    -0.000000
  Sum of spin   charges =     1.000000

 -----------------------------------------------------------------
                    Cartesian Multipole Moments
 -----------------------------------------------------------------
    Charge (ESU x 10^10)
                -0.0000
    Dipole Moment (Debye)
         X       0.1324      Y       0.4647      Z      -1.4948
       Tot       1.5709
    Quadrupole Moments (Debye-Ang)
        XX     -38.2408     XY      -1.4502     YY     -39.1069
        XZ      -2.7281     YZ       3.2238     ZZ     -40.5475
    Octopole Moments (Debye-Ang^2)
       XXX      -4.5155    XXY       5.8014    XYY       6.4988
       YYY      -4.5882    XXZ       1.4633    XYZ       0.1627
       YYZ     -10.7964    XZZ      -2.9898    YZZ       6.9643
       ZZZ     -15.4499
    Hexadecapole Moments (Debye-Ang^3)
      XXXX    -480.0748   XXXY     125.6197   XXYY    -116.7249
      XYYY     105.0099   YYYY    -279.9758   XXXZ      35.1552
      XXYZ      13.7067   XYYZ       4.4935   YYYZ      23.8998
      XXZZ    -112.0048   XYZZ      42.8762   YYZZ     -83.1394
      XZZZ      33.8094   YZZZ      12.2372   ZZZZ    -188.6930
 -----------------------------------------------------------------
 Calculating analytic gradient of the SCF energy
 Gradient of SCF Energy
            1           2           3           4           5           6
    1  -0.0038833  -0.0081451   0.0206790  -0.0065608  -0.0003325  -0.0036394
    2   0.0226409   0.0014972  -0.0108833   0.0034385  -0.0037352   0.0085616
    3   0.0007921  -0.0013645  -0.0009592   0.0019724   0.0086706  -0.0086465
            7           8           9          10          11          12
    1  -0.0029758  -0.0001993  -0.0051623   0.0054493  -0.0024572  -0.0003226
    2  -0.0083532  -0.0020029   0.0024470  -0.0057473   0.0045248  -0.0064960
    3  -0.0045384   0.0053385  -0.0070813  -0.0018377   0.0057643  -0.0002201
           13
    1   0.0075499
    2  -0.0058922
    3   0.0021097
 Max gradient component =       2.264E-02
 RMS gradient           =       7.042E-03
 Gradient time:  CPU 7.33 s  wall 2.54 s
 ----------------------------------------------------------------
             Standard Nuclear Orientation (Angstroms)
    I     Atom           X                Y                Z
 ----------------------------------------------------------------
    1      C       0.3788863518    -0.5950069668    -0.1345705548
    2      C       1.8330885631    -0.3821454290    -0.1114498875
    3      C       1.8349904386    -1.6576385758    -0.3241683256
    4      C      -1.5784646166     1.2101323460     0.0878571617
    5      C      -1.2761525509     0.2625535805     1.2018780485
    6      N      -0.3374242983    -0.6000717241     1.0827565101
    7      H      -0.1720194366    -0.8379514234    -1.0526314306
    8      H       2.4866269882     0.4195012189     0.2334453098
    9      H       1.9522469835    -2.6497017187    -0.7046871061
   10      H      -2.4756395809     1.8140889265     0.1684276014
   11      H      -1.8433570231     0.3452923972     2.1427670795
   12      C      -0.7488847421     1.2382401719    -0.9342352836
   13      H      -0.1175288673     1.3792246728    -1.7862507586
 ----------------------------------------------------------------
 Nuclear Repulsion Energy =   253.8187102553 hartrees
 There are       25 alpha and       24 beta electrons

                       Distance Matrix (Angstroms)
             C (  1)   C (  2)   C (  3)   C (  4)   C (  5)   N (  6)
   C (  2)  1.469880
   C (  3)  1.812560  1.293111
   C (  4)  2.671933  3.770115  4.477226
   C (  5)  2.293613  3.436255  3.961713  1.493433
   N (  6)  1.412449  2.486915  2.795938  2.409740  1.280439
   H (  7)  1.097887  2.261424  2.287058  2.733761  2.740991  2.154954
   H (  8)  2.367960  1.090276  2.247237  4.143822  3.888574  3.120276
   H (  9)  2.649956  2.346900  1.068987  5.290782  4.747503  3.555071
   H ( 10)  3.747515  4.844266  5.556714  1.084517  2.216766  3.352034
   H ( 11)  3.317950  4.373433  4.860838  2.245166  1.101744  2.070065
   C ( 12)  2.296111  3.157406  3.928703  1.316687  2.406856  2.759882
   H ( 13)  2.621463  3.116455  3.895196  2.382269  3.393859  3.492445
             H (  7)   H (  8)   H (  9)   H ( 10)   H ( 11)   C ( 12)
   H (  8)  3.209919
   H (  9)  2.813541  3.253561
   H ( 10)  3.719001  5.154919  6.347750
   H ( 11)  3.795261  4.732840  5.611114  2.540701
   C ( 12)  2.158092  3.535866  4.739715  2.128180  3.385730
   H ( 13)  2.336030  3.432473  4.656823  3.093632  4.414145  1.069774

 
 Applying Cartesian multipole field
    Component          Value
    ---------          -----
     (2,0,0)        1.00000E-11
     (0,2,0)        2.00000E-11
     (0,0,2)       -3.00000E-11
 Nucleus-field energy     =     0.0000000036 hartrees
 Requested basis set is 6-31G(d)
 There are 40 shells and 117 basis functions
 A cutoff of  1.0D-14 yielded    785 shell pairs
 There are      6998 function pairs
 Smallest overlap matrix eigenvalue = 1.54E-03
 Guess MOs from core Hamiltonian diagonalization
 Mixing HOMO and LUMO in initial guess
 Adding  50% of the LUMO to the HOMO
 An unrestricted hybrid HF-DFT SCF calculation will be
 performed using Pulay DIIS extrapolation
 Exchange:     0.2000 Hartree-Fock + 0.0800 Slater + 0.7200 B88
 Correlation:  0.1900 VWN1RPA + 0.8100 LYP
 Using SG-1 standard quadrature grid
 SCF converges when DIIS error is below 1.0E-08
 using 4 threads for integral computing
 -------------------------------------------------------
 OpenMP Integral computing Module                
 Release: version 1.0, May 2013, Q-Chem Inc. Pittsburgh 
 -------------------------------------------------------
 -------------------------------------------------------
 OpenMP BLAS3 based DFT computing Module                
 Release: version 1.0, May 2013, Q-Chem Inc. Pittsburgh 
 -------------------------------------------------------
 ---------------------------------------
  Cycle       Energy         DIIS Error
 ---------------------------------------
    1    -229.6493532673      1.38E-01
    2    -216.4725845589      1.03E-01
    3    -237.3068163980      1.21E-01
    4    -278.0086517306      5.41E-02
    5    -282.6831871978      4.29E-02
    6    -285.2970663773      2.30E-02
    7    -284.0535980199      2.74E-02
    8    -286.6691733266      4.20E-03
    9    -286.6855227630      4.03E-03
   10    -286.7113742605      8.16E-04
   11    -286.7134008083      3.05E-04
   12    -286.7139236225      1.32E-04
   13    -286.7141461390      1.01E-04
   14    -286.7142793241      5.60E-05
   15    -286.7143340685      2.37E-05
   16    -286.7143465732      4.42E-06
   17    -286.7143501105      2.14E-06
   18    -286.7143522092      7.95E-07
   19    -286.7143534301      3.10E-07
   20    -286.7143537923      1.72E-07
   21    -286.7143539056      1.23E-07
   22    -286.7143539808      9.93E-08
   23    -286.7143539985      2.91E-08
   24    -286.7143539987      1.03E-08
   25    -286.7143539987      5.46E-09 Convergence criterion met
 ---------------------------------------
 <S^2> = 0.7755
 SCF time:  CPU 61.40 s  wall 47.79 s
 SCF   energy in the final basis set = -286.71435400
 Total energy in the final basis set = -286.71435400
 
 --------------------------------------------------------------
 
                    Orbital Energies (a.u.)
 --------------------------------------------------------------
 
 Alpha MOs
 -- Occupied --
-14.323 -10.236 -10.229 -10.216 -10.209 -10.202 -10.201  -0.930
 -0.835  -0.764  -0.666  -0.584  -0.576  -0.547  -0.497  -0.485
 -0.453  -0.433  -0.412  -0.336  -0.292  -0.284  -0.261  -0.231
 -0.154
 -- Virtual --
 -0.037   0.001   0.061   0.088   0.111   0.120   0.137   0.141
  0.171   0.175   0.248   0.261   0.298   0.340   0.382   0.429
  0.492   0.496   0.535   0.541   0.566   0.574   0.598   0.607
  0.615   0.633   0.653   0.680   0.701   0.740   0.749   0.772
  0.812   0.816   0.836   0.859   0.883   0.891   0.908   0.947
  0.980   1.017   1.026   1.066   1.097   1.161   1.200   1.263
  1.353   1.388   1.412   1.490   1.506   1.532   1.564   1.653
  1.687   1.724   1.772   1.801   1.826   1.862   1.919   1.965
  2.009   2.053   2.114   2.148   2.218   2.275   2.314   2.335
  2.349   2.430   2.435   2.510   2.564   2.593   2.622   2.653
  2.737   2.886   2.942   2.984   3.087   3.960   4.082   4.138
  4.205   4.318   4.411   4.475
 
 Beta MOs
 -- Occupied --
-14.324 -10.237 -10.228 -10.216 -10.204 -10.203 -10.188  -0.930
 -0.831  -0.751  -0.659  -0.573  -0.567  -0.541  -0.492  -0.479
 -0.446  -0.429  -0.409  -0.334  -0.289  -0.282  -0.255  -0.201
 -- Virtual --
 -0.043  -0.029   0.006   0.068   0.097   0.118   0.126   0.141
  0.144   0.172   0.178   0.249   0.262   0.301   0.344   0.387
  0.437   0.499   0.511   0.538   0.546   0.570   0.581   0.609
  0.612   0.619   0.635   0.656   0.682   0.713   0.744   0.754
  0.781   0.815   0.820   0.840   0.861   0.885   0.898   0.915
  0.952   0.985   1.018   1.028   1.069   1.102   1.165   1.204
  1.267   1.366   1.391   1.418   1.492   1.508   1.534   1.569
  1.661   1.711   1.736   1.789   1.825   1.836   1.867   1.932
  1.980   2.021   2.063   2.123   2.150   2.220   2.279   2.317
  2.341   2.356   2.432   2.437   2.513   2.565   2.598   2.624
  2.657   2.740   2.893   2.946   2.988   3.091   3.959   4.084
  4.146   4.225   4.322   4.412   4.478
 --------------------------------------------------------------
 
          Ground-State Mulliken Net Atomic Charges

     Atom                 Charge (a.u.)    Spin (a.u.)
  --------------------------------------------------------
      1 C                    -0.049673      -0.097582
      2 C                    -0.132701      -0.025735
      3 C                    -0.150210       0.301748
      4 C                    -0.192607      -0.153862
      5 C                     0.061811       0.052310
      6 N                    -0.340503      -0.029251
      7 H                     0.184445       0.023076
      8 H                     0.146140       0.016955
      9 H                     0.185480      -0.012119
     10 H                     0.139477       0.064650
     11 H                     0.140952       0.012131
     12 C                    -0.180450       0.890781
     13 H                     0.187839      -0.043102
  --------------------------------------------------------
  Sum of atomic charges =    -0.000000
  Sum of spin   charges =     1.000000

 -----------------------------------------------------------------
                    Cartesian Multipole Moments
 -----------------------------------------------------------------
    Charge (ESU x 10^10)
                -0.0000
    Dipole Moment (Debye)
         X       0.1116      Y       0.4574      Z      -1.4894
       Tot       1.5620
    Quadrupole Moments (Debye-Ang)
        XX     -38.2846     XY      -1.4365     YY     -39.0928
        XZ      -2.7298     YZ       3.2276     ZZ     -40.5361
    Octopole Moments (Debye-Ang^2)
       XXX      -4.7172    XXY       5.8539    XYY       6.4429
       YYY      -4.6442    XXZ       1.4605    XYZ       0.1790
       YYZ     -10.8244    XZZ      -3.0372    YZZ       6.9383
       ZZZ     -15.4078
    Hexadecapole Moments (Debye-Ang^3)
      XXXX    -480.9299   XXXY     125.9430   XXYY    -116.8460
      XYYY     105.0758   YYYY    -279.4085   XXXZ      35.2601
      XXYZ      13.6663   XYYZ       4.5114   YYYZ      23.7843
      XXZZ    -112.0610   XYZZ      42.9081   YYZZ     -83.0300
      XZZZ      33.9292   YZZZ      12.0875   ZZZZ    -188.5423
 -----------------------------------------------------------------
 Calculating analytic gradient of the SCF energy
 Gradient of SCF Energy
            1           2           3           4           5           6
    1  -0.0026935  -0.0075601   0.0183302  -0.0067288   0.0000185  -0.0034591
    2   0.0197345   0.0022258  -0.0105668   0.0033962  -0.0038577   0.0081174
    3   0.0009723  -0.0010989  -0.0007741   0.0021375   0.0083186  -0.0084267
            7           8           9          10          11          12
    1  -0.0030301   0.0000844  -0.0048985   0.0055993  -0.0021954  -0.0014432
    2  -0.0074466  -0.0017484   0.0028528  -0.0059852   0.0045604  -0.0050048
    3  -0.0045294   0.0051213  -0.0067441  -0.0017625   0.0055960  -0.0011818
           13
    1   0.0079763
    2  -0.0062775
    3   0.0023717
 Max gradient component =       1.973E-02
 RMS gradient           =       6.524E-03
 Gradient time:  CPU 7.37 s  wall 4.70 s
 E1 = -286.7149844, E2 = -286.7143540, Emax = -286.7146561
 Iteration 5, Curvature = -0.7741819
 Curvature, final (in Hartree/Bohr^2) = -0.2167930
 ----------------------------------------------------------------
             Standard Nuclear Orientation (Angstroms)
    I     Atom           X                Y                Z
 ----------------------------------------------------------------
    1      C       0.3804614025    -0.5985739134    -0.1344066514
    2      C       1.8338515767    -0.3814244060    -0.1115396892
    3      C       1.8321021010    -1.6570331403    -0.3237322272
    4      C      -1.5783363272     1.2099253879     0.0878500081
    5      C      -1.2757449070     0.2622429360     1.2017459259
    6      N      -0.3371879354    -0.6006028614     1.0829693743
    7      H      -0.1721911475    -0.8369982771    -1.0528020473
    8      H       2.4871492094     0.4200481776     0.2333137381
    9      H       1.9522936263    -2.6491527065    -0.7043599431
   10      H      -2.4756872914     1.8140350690     0.1683870761
   11      H      -1.8431992369     0.3453333328     2.1427215136
   12      C      -0.7501396635     1.2399257633    -0.9350798081
   13      H      -0.1169974786     1.3786834443    -1.7860708781
 ----------------------------------------------------------------
 Nuclear Repulsion Energy =   253.8055874526 hartrees
 There are       25 alpha and       24 beta electrons
 Requested basis set is 6-31G(d)
 There are 40 shells and 117 basis functions
 Geometry Optimization Parameters
   NAtoms,    NIC,     NZ,  NCons,   NDum,   NFix, NCnnct, MaxDiis
       13      83       0       0       0       0       0       0


** GEOMETRY OPTIMIZATION IN DELOCALIZED INTERNAL COORDINATES **
   Searching for a Minimum

   Optimization Cycle:   1

                       Coordinates (Angstroms)
     ATOM                X               Y               Z
      1  C         0.3804614025   -0.5985739134   -0.1344066514
      2  C         1.8338515767   -0.3814244060   -0.1115396892
      3  C         1.8321021010   -1.6570331403   -0.3237322272
      4  C        -1.5783363272    1.2099253879    0.0878500081
      5  C        -1.2757449070    0.2622429360    1.2017459259
      6  N        -0.3371879354   -0.6006028614    1.0829693743
      7  H        -0.1721911475   -0.8369982771   -1.0528020473
      8  H         2.4871492094    0.4200481776    0.2333137381
      9  H         1.9522936263   -2.6491527065   -0.7043599431
     10  H        -2.4756872914    1.8140350690    0.1683870761
     11  H        -1.8431992369    0.3453333328    2.1427215136
     12  C        -0.7501396635    1.2399257633   -0.9350798081
     13  H        -0.1169974786    1.3786834443   -1.7860708781
   Point Group: c1    Number of degrees of freedom:    33


   Energy is   -286.714353999


 Attempting to Generate Delocalized Internal Coordinates

 33 Hessian modes will be used to form the next step
  Hessian Eigenvalues:
     0.010044    0.011441    0.013904    0.017383    0.018253    0.023867
     0.029421    0.031462    0.062681    0.129715    0.139624    0.150352
     0.159938    0.160000    0.172991    0.186394    0.200000    0.200000
     0.220005    0.220024    0.250000    0.316992    0.330731    0.334649
     0.338983    0.348107    0.354269    0.372651    0.373055    0.435069
     0.558737    0.628091    0.729350

 Minimum Search - Taking Simple RFO Step
 Searching for Lamda that Minimizes Along All modes
 Value Taken    Lamda =  -0.03735848
 Calculated Step too Large.  Step scaled by  0.630257
 Step Taken.  Stepsize is  0.300000

                             Maximum     Tolerance    Cnvgd?
         Gradient           0.082980      0.000300      NO
         Displacement       0.193866      0.001200      NO
         Energy change     *********      0.000001      NO


 New Cartesian Coordinates Obtained by Inverse Iteration

 Displacement from previous Coordinates is:  1.944578
 ----------------------------------------------------------------
             Standard Nuclear Orientation (Angstroms)
    I     Atom           X                Y                Z
 ----------------------------------------------------------------
    1      C       0.4626089712    -0.7358276611    -0.1898015025
    2      C       1.9138763224    -0.5068117572    -0.1542609568
    3      C       1.9059120474    -1.7981251474    -0.1467010573
    4      C      -1.6526157571     1.2960540915     0.0835327819
    5      C      -1.2458117703     0.2537268177     1.0877487062
    6      N      -0.2972473702    -0.6070944013     0.9895285086
    7      H      -0.0524924453    -1.0880450298    -1.0858417219
    8      H       2.5595235709     0.3409121928     0.0737927350
    9      H       2.0424273248    -2.8418838773    -0.3388872675
   10      H      -2.5751091271     1.8320024174     0.3147596440
   11      H      -1.8025865445     0.2592810144     2.0322031526
   12      C      -0.9207312344     1.5882413816    -0.9692106382
   13      H      -0.4013800593     1.9539787650    -1.8278659926
 ----------------------------------------------------------------
 Nuclear Repulsion Energy =   246.9131030952 hartrees
 There are       25 alpha and       24 beta electrons

































 Eigenvalues after right structure
 -0.2518328 -0.0000000 -0.0000000 0.0000000 0.0000000 0.0000000 0.0000768 0.0009694 0.0022618 0.0033063 0.0105186 0.0181597 0.0208140 0.0383744 0.0433316 0.0616242 0.0665798 0.0838217 0.0995057 0.1232838 0.1440149 0.1851530 0.2019931 0.2869621 0.3179757 0.3756373 0.4499143 0.4979918 0.5635157 0.5828285 0.6354181 0.7677263 0.8722482 1.0591605 1.1758330 1.2673311 1.7029133 1.8020318 1.9092457
Archival summary:
1\1\c8-66\JobtypUnspecified\ProcedureUnspecified\6-31G*\166(2)\hpark21\WedMar213:28:332022WedMar213:28:332022\0\\#,JobtypUnspecified,ProcedureUnspecified,6-31G*,\\0,2\N\C,1,1.28469\H,2,1.09637,1,116.373\C,1,1.40882,2,121.565,3,178.11,0\H,4,1.09191,1,117.515,2,-65.6754,0\C,4,1.46966,1,119.876,2,119.348,0\H,6,1.08973,4,135.345,1,-62.537,0\C,6,1.29136,4,80.6902,1,101.031,0\H,8,1.07005,6,166.795,4,124.329,0\C,2,1.50346,1,127.826,3,177.312,0\H,10,1.09165,2,115.312,1,171.893,0\C,10,1.31503,2,122.559,1,-11.095,0\H,12,1.06807,10,172.011,2,-159.696,0\\\@

 Total job time:  2765.86s(wall), 4612.65s(cpu) 
 Wed Mar  2 13:28:33 2022

        *************************************************************
        *                                                           *
        *  Thank you very much for using Q-Chem.  Have a nice day.  *
        *                                                           *
        *************************************************************


