
Running Job 1 of 1 qcts2.in
qchem qcts2.in_28743.0 ./qcts2.d/ 1
/home/leeping/opt/qchem/5.0.2-openmp/exe/qcprog.exe_s qcts2.in_28743.0 ./qcts2.d/
Check license passed

                  Welcome to Q-Chem
     A Quantum Leap Into The Future Of Chemistry


 Q-Chem 5.0, Q-Chem, Inc., Pleasanton, CA (2017)

 Yihan Shao,  Zhengting Gan,  E. Epifanovsky,  A. T. B. Gilbert,  M. Wormit,  
 J. Kussmann,  A. W. Lange,  A. Behn,  Jia Deng,  Xintian Feng,  D. Ghosh,  
 M. Goldey,  P. R. Horn,  L. D. Jacobson,  I. Kaliman,  T. Kus,  A. Landau,  
 Jie Liu,  E. I. Proynov,  R. M. Richard,  R. P. Steele,  E. J. Sundstrom,  
 H. L. Woodcock III,  P. M. Zimmerman,  D. Zuev,  B. Albrecht,  E. Alguire,  
 S. A. Baeppler,  D. Barton,  Z. Benda,  Y. A. Bernard,  E. J. Berquist,  
 K. B. Bravaya,  H. Burton,  D. Casanova,  Chun-Min Chang,  Yunqing Chen,  
 A. Chien,  K. D. Closser,  M. P. Coons,  S. Dasgupta,  A. L. Dempwolff,  
 M. Diedenhofen,  Hainam Do,  R. G. Edgar,  Po-Tung Fang,  S. Fatehi,  
 Qingguo Feng,  J. Fosso-Tande,  Qinghui Ge,  A. Ghysels,  G. Gidofalvi,  
 J. Gomes,  J. Gonthier,  A. Gunina,  M. W. D. Hanson-Heine,  
 P. H. P. Harbach,  A. W. Hauser,  J. E. Herr,  E. G. Hohenstein,  
 Z. C. Holden,  Kerwin Hui,  T.-C. Jagau,  Hyunjun Ji,  B. Kaduk,  
 K. Khistyaev,  Jaehoon Kim,  P. Klunzinger,  K. Koh,  D. Kosenkov,  
 L. Koulias,  T. Kowalczyk,  C. M. Krauter,  A. Kunitsa,  Ka Un Lao,  
 A. Laurent,  K. V. Lawler,  Joonho Lee,  D. Lefrancois,  S. Lehtola,  
 D. S. Levine,  Yi-Pei Li,  You-Sheng Lin,  Fenglai Liu,  E. Livshits,  
 A. Luenser,  P. Manohar,  E. Mansoor,  S. F. Manzer,  Shan-Ping Mao,  
 Yuezhi Mao,  N. Mardirossian,  A. V. Marenich,  T. Markovich,  
 L. A. Martinez-Martinez,  S. A. Maurer,  N. J. Mayhall,  S. C. McKenzie,  
 J.-M. Mewes,  A. F. Morrison,  J. W. Mullinax,  K. Nanda,  
 T. S. Nguyen-Beck,  R. Olivares-Amaya,  J. A. Parkhill,  T. M. Perrine,  
 F. Plasser,  S. Prager,  A. Prociuk,  E. Ramos,  D. R. Rehn,  F. Rob,  
 M. Schneider,  N. Sergueev,  S. M. Sharada,  S. Sharma,  D. W. Small,  
 T. Stauch,  T. Stein,  Yu-Chuan Su,  A. J. W. Thom,  A. Tkatchenko,  
 T. Tsuchimochi,  L. Vogt,  O. Vydrov,  M. A. Watson,  J. Wenzel,  
 M. de Wergifosse,  T. A. Wesolowski,  A. White,  J. Witte,  A. Yamada,  
 Jun Yang,  K. Yao,  S. Yeganeh,  S. R. Yost,  Zhi-Qiang You,  A. Zech,  
 Igor Ying Zhang,  Xing Zhang,  Yan Zhao,  Ying Zhu,  B. R. Brooks,  
 G. K. L. Chan,  C. J. Cramer,  M. S. Gordon,  W. J. Hehre,  A. Klamt,  
 M. W. Schmidt,  C. D. Sherrill,  D. G. Truhlar,  A. Aspuru-Guzik,  R. Baer,  
 A. T. Bell,  N. A. Besley,  Jeng-Da Chai,  R. A. DiStasio Jr.,  A. Dreuw,  
 B. D. Dunietz,  T. R. Furlani,  Chao-Ping Hsu,  Yousung Jung,  Jing Kong,  
 D. S. Lambrecht,  WanZhen Liang,  C. Ochsenfeld,  V. A. Rassolov,  
 L. V. Slipchenko,  J. E. Subotnik,  T. Van Voorhis,  J. M. Herbert,  
 A. I. Krylov,  P. M. W. Gill,  M. Head-Gordon

 Contributors to earlier versions of Q-Chem not listed above: 
 R. D. Adamson,  B. Austin,  J. Baker,  G. J. O. Beran,  K. Brandhorst,  
 S. T. Brown,  E. F. C. Byrd,  A. K. Chakraborty,  C.-L. Cheng,  
 Siu Hung Chien,  D. M. Chipman,  D. L. Crittenden,  H. Dachsel,  
 R. J. Doerksen,  A. D. Dutoi,  L. Fusti-Molnar,  W. A. Goddard III,  
 A. Golubeva-Zadorozhnaya,  S. R. Gwaltney,  G. Hawkins,  A. Heyden,  
 S. Hirata,  G. Kedziora,  F. J. Keil,  C. Kelley,  Jihan Kim,  R. A. King,  
 R. Z. Khaliullin,  P. P. Korambath,  W. Kurlancheek,  A. M. Lee,  M. S. Lee,  
 S. V. Levchenko,  Ching Yeh Lin,  D. Liotard,  R. C. Lochan,  I. Lotan,  
 P. E. Maslen,  N. Nair,  D. P. O'Neill,  D. Neuhauser,  E. Neuscamman,  
 C. M. Oana,  R. Olson,  B. Peters,  R. Peverati,  P. A. Pieniazek,  
 Y. M. Rhee,  J. Ritchie,  M. A. Rohrdanz,  E. Rosta,  N. J. Russ,  
 H. F. Schaefer III,  N. E. Schultz,  N. Shenvi,  A. C. Simmonett,  A. Sodt,  
 D. Stuck,  K. S. Thanthiriwatte,  V. Vanovschi,  Tao Wang,  A. Warshel,  
 C. F. Williams,  Q. Wu,  X. Xu,  W. Zhang

 Please cite Q-Chem as follows:
 Y. Shao et al., Mol. Phys. 113, 184-215 (2015)
 DOI: 10.1080/00268976.2014.952696

 Q-Chem 5.0.2 for Intel X86 EM64T Linux

 Parts of Q-Chem use Armadillo 5.200.1 (Boston Tea Smuggler).
 http://arma.sourceforge.net/

 Q-Chem begins on Wed Mar  2 14:13:15 2022  

Host: 
0

     Scratch files written to ./qcts2.d//
 Dec517 15110_ 26548  26544 5633   
Processing $rem in /home/leeping/opt/qchem/5.0.2-openmp/config/preferences.
 MEM_STATIC 2000
 MEM_TOTAL  8000
 SYMMETRY   OFF
 SYM_IGNORE TRUE 

Checking the input file for inconsistencies... 	...done.

--------------------------------------------------------------
User input:
--------------------------------------------------------------
$molecule
0 2
C        0.7883701540   -0.4763199672   -0.0796828912
C        2.2557055647   -0.7521665866    0.1544128751
C        1.5695751584   -1.7516037179   -0.2969553767
C       -1.7720064546    1.1504793230    0.0163751215
C       -1.1364407714    0.2934674644    1.0677901296
N       -0.0641254742   -0.4040718053    1.0604232432
H        0.4875204164    0.1209665363   -0.9456809340
H        3.1759803128   -0.3245410482    0.5205364612
H        1.4850718100   -2.7865230729   -0.5896582651
H       -2.6990057884    1.6150434468    0.3836609895
H       -1.7088182741    0.2748609771    1.9992235212
C       -1.3865648296    1.3988285512   -1.2114259291
H       -1.0588878955    1.5879887054   -2.2100225538
$end

$rem
method                b3lyp
basis                 6-31+g(d,p)
unrestricted          true
symmetry              off
sym_ignore            true
incdft                false
incfock               0
scf_convergence       8
thresh                14
jobtype               sp
scf_guess             read
scf_algorithm         diis
max_scf_cycles        100
$end

--------------------------------------------------------------
 ----------------------------------------------------------------
             Standard Nuclear Orientation (Angstroms)
    I     Atom           X                Y                Z
 ----------------------------------------------------------------
    1      C       0.7883701540    -0.4763199672    -0.0796828912
    2      C       2.2557055647    -0.7521665866     0.1544128751
    3      C       1.5695751584    -1.7516037179    -0.2969553767
    4      C      -1.7720064546     1.1504793230     0.0163751215
    5      C      -1.1364407714     0.2934674644     1.0677901296
    6      N      -0.0641254742    -0.4040718053     1.0604232432
    7      H       0.4875204164     0.1209665363    -0.9456809340
    8      H       3.1759803128    -0.3245410482     0.5205364612
    9      H       1.4850718100    -2.7865230729    -0.5896582651
   10      H      -2.6990057884     1.6150434468     0.3836609895
   11      H      -1.7088182741     0.2748609771     1.9992235212
   12      C      -1.3865648296     1.3988285512    -1.2114259291
   13      H      -1.0588878955     1.5879887054    -2.2100225538
 ----------------------------------------------------------------
 Nuclear Repulsion Energy =   246.6899447991 hartrees
 There are       25 alpha and       24 beta electrons
 Requested basis set is 6-31+G(d,p)
 There are 53 shells and 163 basis functions

 Total QAlloc Memory Limit   8000 MB
 Mega-Array Size      1956 MB
 MEM_STATIC part      2000 MB

                       Distance Matrix (Angstroms)
             C (  1)   C (  2)   C (  3)   C (  4)   C (  5)   N (  6)
   C (  2)  1.511279
   C (  3)  1.511237  1.293593
   C (  4)  3.035001  4.456633  4.436939
   C (  5)  2.369423  3.665278  3.656141  1.497961
   N (  6)  1.425416  2.514685  2.515412  2.534467  1.279248
   H (  7)  1.094173  2.258107  2.257921  2.662876  2.592503  2.145794
   H (  8)  2.466573  1.078803  2.298986  5.187720  4.390717  3.285740
   H (  9)  2.466274  2.299157  1.078830  5.145466  4.371019  3.286161
   H ( 10)  4.092711  5.495944  5.478899  1.100021  2.157824  3.387835
   H ( 11)  3.334977  4.491721  4.486297  2.168499  1.093403  2.011793
   C ( 12)  3.086643  4.445045  4.415908  1.310625  2.545429  3.187569
   H ( 13)  3.494579  4.696106  4.660635  2.378403  3.525033  3.956472
             H (  7)   H (  8)   H (  9)   H ( 10)   H ( 11)   C ( 12)
   H (  8)  3.094525
   H (  9)  3.094407  3.186387
   H ( 10)  3.762096  6.188391  6.150418
   H ( 11)  3.676962  5.138780  5.125945  2.320906
   C ( 12)  2.283801  5.175569  5.113713  2.076909  3.416931
   H ( 13)  2.478325  5.389604  5.313536  3.068862  4.456957  1.067871

 
 A cutoff of  1.0D-14 yielded   1319 shell pairs
 There are     13045 function pairs
 
 -------------------------------------------------------
 OpenMP Integral Computing Module                       
 Release: version 1.0, May 2013, Q-Chem Inc. Pittsburgh 
 -------------------------------------------------------
 Integral Job Info:
 Integral job number is                      11
 Integral operator is                         1
 short-range coefficients                     0
 long-range coefficients              100000000
 Omega coefficients                           0
 if combine SR and LR in K                    0
 Integral screening is                        0
 Integral computing path is                   2
 max size of driver memory is            800000
 size of driver memory is                593474
 size of scratch memory is              2361544
 max col of scratch BK array               1296
 max len of scratch array in speh3          155
 max len of scratch index in speh4           18
 max int batch size is                      520
 min int batch size is                       52
 fixed nKL is                                52
 max L of basis functions is                  2
 order of int derivative is                   0
 number of shells is                         53
 number of basis is                         163
 number of cartesian basis is               163
 number of contracted shell pairs          1319
 number of primitive shell pairs           4356
 maxK2 (contraction) of shell pair           36
 max number of K2 of shell pair               1
 max number of CS2 of shell pair            127
 max number of PS2 of shell pair            738
 mem total for path MDJ                  527820
 -------------------------------------------------------
 Smallest overlap matrix eigenvalue = 2.67E-05

 Scale SEOQF with 1.000000e-01/1.000000e-01/1.000000e-01

 Standard Electronic Orientation quadrupole field applied
 Nucleus-field energy     =     0.0000000044 hartrees
 Guess MOs from SCF MO coefficient file
 Reading MOs from coefficient file
 Reading MOs from coefficient file
 An unrestricted hybrid HF-DFT SCF calculation will be
 performed using Pulay DIIS extrapolation
 Exchange:     0.2000 Hartree-Fock + 0.0800 Slater + 0.7200 B88
 Correlation:  0.1900 VWN1RPA + 0.8100 LYP
 Using SG-1 standard quadrature grid
 SCF converges when DIIS error is below 1.0E-08
Using Q-Chem read-in guess as SCF_GUESS READ specified.

 using 4 threads for integral computing
 -------------------------------------------------------
 OpenMP Integral computing Module                
 Release: version 1.0, May 2013, Q-Chem Inc. Pittsburgh 
 -------------------------------------------------------
 -------------------------------------------------------
 OpenMP BLAS3 based DFT computing Module                
 Release: version 1.0, May 2013, Q-Chem Inc. Pittsburgh 
 -------------------------------------------------------
 ---------------------------------------
  Cycle       Energy         DIIS Error
 ---------------------------------------
    1    -286.7863656009      1.01E-09
    2    -286.7863656009      9.66E-10 Convergence criterion met
 ---------------------------------------
 <S^2> = 0.7643
 SCF time:  CPU 9.73 s  wall 3.21 s
 SCF   energy in the final basis set = -286.78636560
 Total energy in the final basis set = -286.78636560
 
 --------------------------------------------------------------
 
                    Orbital Energies (a.u.)
 --------------------------------------------------------------
 
 Alpha MOs
 -- Occupied --
-14.336 -10.238 -10.237 -10.224 -10.220 -10.219 -10.218  -0.937
 -0.869  -0.785  -0.671  -0.603  -0.578  -0.551  -0.518  -0.503
 -0.463  -0.430  -0.385  -0.362  -0.314  -0.288  -0.272  -0.257
 -0.202
 -- Virtual --
 -0.063  -0.012   0.009   0.016   0.020   0.026   0.046   0.048
  0.050   0.062   0.077   0.088   0.089   0.096   0.106   0.108
  0.120   0.126   0.133   0.137   0.152   0.161   0.165   0.181
  0.189   0.191   0.194   0.198   0.210   0.224   0.241   0.246
  0.254   0.263   0.269   0.282   0.296   0.304   0.315   0.365
  0.389   0.405   0.449   0.547   0.630   0.656   0.668   0.684
  0.697   0.705   0.715   0.730   0.737   0.750   0.754   0.761
  0.789   0.837   0.870   0.883   0.896   0.934   0.960   0.966
  0.986   1.015   1.029   1.073   1.120   1.129   1.174   1.187
  1.207   1.252   1.273   1.287   1.322   1.363   1.373   1.405
  1.409   1.518   1.546   1.599   1.635   1.674   1.693   1.723
  1.784   1.814   1.851   1.856   1.925   1.940   2.029   2.065
  2.085   2.086   2.141   2.168   2.181   2.258   2.266   2.285
  2.349   2.358   2.420   2.430   2.451   2.451   2.497   2.554
  2.589   2.604   2.624   2.652   2.673   2.798   2.804   2.859
  2.864   2.922   3.067   3.136   3.187   3.308   3.351   3.444
  3.573   3.659   3.754   4.184   4.300   4.383   4.515   4.698
  4.836   4.886
 
 Beta MOs
 -- Occupied --
-14.336 -10.238 -10.235 -10.223 -10.219 -10.218 -10.209  -0.937
 -0.868  -0.770  -0.661  -0.590  -0.578  -0.545  -0.515  -0.497
 -0.453  -0.423  -0.385  -0.361  -0.311  -0.287  -0.257  -0.251
 -- Virtual --
 -0.071  -0.056  -0.012   0.011   0.018   0.021   0.027   0.047
  0.048   0.052   0.066   0.080   0.088   0.091   0.098   0.107
  0.109   0.123   0.127   0.134   0.138   0.152   0.162   0.166
  0.182   0.191   0.194   0.199   0.199   0.211   0.230   0.243
  0.246   0.256   0.262   0.270   0.284   0.300   0.307   0.319
  0.365   0.393   0.411   0.449   0.553   0.633   0.662   0.685
  0.686   0.699   0.708   0.719   0.736   0.745   0.751   0.761
  0.780   0.790   0.841   0.872   0.892   0.896   0.941   0.964
  0.970   0.990   1.013   1.033   1.081   1.120   1.130   1.175
  1.189   1.211   1.253   1.276   1.289   1.331   1.367   1.374
  1.406   1.411   1.528   1.549   1.602   1.636   1.715   1.727
  1.745   1.789   1.823   1.854   1.881   1.932   1.945   2.031
  2.064   2.084   2.092   2.145   2.175   2.181   2.258   2.268
  2.286   2.350   2.362   2.423   2.432   2.456   2.460   2.501
  2.557   2.593   2.606   2.625   2.653   2.677   2.801   2.811
  2.862   2.864   2.933   3.069   3.136   3.191   3.313   3.353
  3.446   3.580   3.675   3.754   4.183   4.302   4.384   4.524
  4.700   4.853   4.886
 --------------------------------------------------------------
 
          Ground-State Mulliken Net Atomic Charges

     Atom                 Charge (a.u.)    Spin (a.u.)
  --------------------------------------------------------
      1 C                    -0.080546       0.065772
      2 C                    -0.188714      -0.010368
      3 C                    -0.191107      -0.010235
      4 C                    -0.049801      -0.207171
      5 C                    -0.139235       0.087436
      6 N                    -0.095749      -0.023679
      7 H                     0.113495      -0.007922
      8 H                     0.142760      -0.000933
      9 H                     0.142424      -0.000843
     10 H                     0.142370       0.083618
     11 H                     0.118035       0.011723
     12 C                    -0.100172       1.058922
     13 H                     0.186238      -0.046319
  --------------------------------------------------------
  Sum of atomic charges =     0.000000
  Sum of spin   charges =     1.000000

 -----------------------------------------------------------------
                    Cartesian Multipole Moments
 -----------------------------------------------------------------
    Charge (ESU x 10^10)
                 0.0000
    Dipole Moment (Debye)
         X       0.3232      Y       0.4117      Z      -1.5364
       Tot       1.6232
    Quadrupole Moments (Debye-Ang)
        XX     -37.8816     XY      -1.4819     YY     -40.6989
        XZ      -1.4214     YZ       1.3810     ZZ     -41.8253
    Octopole Moments (Debye-Ang^2)
       XXX       8.4675    XXY       4.9352    XYY       3.0302
       YYY      -7.6111    XXZ       7.4652    XYZ       0.1564
       YYZ      -9.3842    XZZ      -6.0154    YZZ      10.3834
       ZZZ     -19.9227
    Hexadecapole Moments (Debye-Ang^3)
      XXXX    -573.7789   XXXY     172.2365   XXYY    -160.3933
      XYYY     163.2950   YYYY    -323.0755   XXXZ      -0.3348
      XXYZ      15.4604   XYYZ      -6.8281   YYYZ      38.0614
      XXZZ    -141.5621   XYZZ      56.8135   YYZZ     -91.9577
      XZZZ      -2.2117   YZZZ      17.2023   ZZZZ    -208.9173
 -----------------------------------------------------------------
Archival summary:
1\1\c8-66\SP\ProcedureUnspecified\6-31+G**\166(2)\hpark21\WedMar214:13:232022WedMar214:13:232022\0\\#,ProcedureUnspecified,6-31+G**,\\0,2\N\C,1,1.27925\H,2,1.0934,1,115.749\C,1,1.42542,2,122.247,3,-179.842,0\H,4,1.09417,1,116.164,2,1.49422,0\C,2,1.49796,1,131.573,3,-179.942,0\H,6,1.10002,2,111.396,1,-179.417,0\C,6,1.31063,2,129.879,1,0.704497,0\H,8,1.06787,6,178.978,2,7.978,0\C,4,1.51124,1,117.835,2,-149.61,0\H,10,1.07883,4,143.905,1,72.2865,0\C,10,1.29359,4,64.6619,1,-104.403,0\H,12,1.0788,10,151.299,4,176.129,0\\\@

 Total job time:  8.51s(wall), 11.57s(cpu) 
 Wed Mar  2 14:13:23 2022

        *************************************************************
        *                                                           *
        *  Thank you very much for using Q-Chem.  Have a nice day.  *
        *                                                           *
        *************************************************************


