
Running Job 1 of 1 qcts2.in
qchem qcts2.in_27989.0 ./qcts2.d/ 1
/home/leeping/opt/qchem/5.0.2-openmp/exe/qcprog.exe_s qcts2.in_27989.0 ./qcts2.d/
Check license passed

                  Welcome to Q-Chem
     A Quantum Leap Into The Future Of Chemistry


 Q-Chem 5.0, Q-Chem, Inc., Pleasanton, CA (2017)

 Yihan Shao,  Zhengting Gan,  E. Epifanovsky,  A. T. B. Gilbert,  M. Wormit,  
 J. Kussmann,  A. W. Lange,  A. Behn,  Jia Deng,  Xintian Feng,  D. Ghosh,  
 M. Goldey,  P. R. Horn,  L. D. Jacobson,  I. Kaliman,  T. Kus,  A. Landau,  
 Jie Liu,  E. I. Proynov,  R. M. Richard,  R. P. Steele,  E. J. Sundstrom,  
 H. L. Woodcock III,  P. M. Zimmerman,  D. Zuev,  B. Albrecht,  E. Alguire,  
 S. A. Baeppler,  D. Barton,  Z. Benda,  Y. A. Bernard,  E. J. Berquist,  
 K. B. Bravaya,  H. Burton,  D. Casanova,  Chun-Min Chang,  Yunqing Chen,  
 A. Chien,  K. D. Closser,  M. P. Coons,  S. Dasgupta,  A. L. Dempwolff,  
 M. Diedenhofen,  Hainam Do,  R. G. Edgar,  Po-Tung Fang,  S. Fatehi,  
 Qingguo Feng,  J. Fosso-Tande,  Qinghui Ge,  A. Ghysels,  G. Gidofalvi,  
 J. Gomes,  J. Gonthier,  A. Gunina,  M. W. D. Hanson-Heine,  
 P. H. P. Harbach,  A. W. Hauser,  J. E. Herr,  E. G. Hohenstein,  
 Z. C. Holden,  Kerwin Hui,  T.-C. Jagau,  Hyunjun Ji,  B. Kaduk,  
 K. Khistyaev,  Jaehoon Kim,  P. Klunzinger,  K. Koh,  D. Kosenkov,  
 L. Koulias,  T. Kowalczyk,  C. M. Krauter,  A. Kunitsa,  Ka Un Lao,  
 A. Laurent,  K. V. Lawler,  Joonho Lee,  D. Lefrancois,  S. Lehtola,  
 D. S. Levine,  Yi-Pei Li,  You-Sheng Lin,  Fenglai Liu,  E. Livshits,  
 A. Luenser,  P. Manohar,  E. Mansoor,  S. F. Manzer,  Shan-Ping Mao,  
 Yuezhi Mao,  N. Mardirossian,  A. V. Marenich,  T. Markovich,  
 L. A. Martinez-Martinez,  S. A. Maurer,  N. J. Mayhall,  S. C. McKenzie,  
 J.-M. Mewes,  A. F. Morrison,  J. W. Mullinax,  K. Nanda,  
 T. S. Nguyen-Beck,  R. Olivares-Amaya,  J. A. Parkhill,  T. M. Perrine,  
 F. Plasser,  S. Prager,  A. Prociuk,  E. Ramos,  D. R. Rehn,  F. Rob,  
 M. Schneider,  N. Sergueev,  S. M. Sharada,  S. Sharma,  D. W. Small,  
 T. Stauch,  T. Stein,  Yu-Chuan Su,  A. J. W. Thom,  A. Tkatchenko,  
 T. Tsuchimochi,  L. Vogt,  O. Vydrov,  M. A. Watson,  J. Wenzel,  
 M. de Wergifosse,  T. A. Wesolowski,  A. White,  J. Witte,  A. Yamada,  
 Jun Yang,  K. Yao,  S. Yeganeh,  S. R. Yost,  Zhi-Qiang You,  A. Zech,  
 Igor Ying Zhang,  Xing Zhang,  Yan Zhao,  Ying Zhu,  B. R. Brooks,  
 G. K. L. Chan,  C. J. Cramer,  M. S. Gordon,  W. J. Hehre,  A. Klamt,  
 M. W. Schmidt,  C. D. Sherrill,  D. G. Truhlar,  A. Aspuru-Guzik,  R. Baer,  
 A. T. Bell,  N. A. Besley,  Jeng-Da Chai,  R. A. DiStasio Jr.,  A. Dreuw,  
 B. D. Dunietz,  T. R. Furlani,  Chao-Ping Hsu,  Yousung Jung,  Jing Kong,  
 D. S. Lambrecht,  WanZhen Liang,  C. Ochsenfeld,  V. A. Rassolov,  
 L. V. Slipchenko,  J. E. Subotnik,  T. Van Voorhis,  J. M. Herbert,  
 A. I. Krylov,  P. M. W. Gill,  M. Head-Gordon

 Contributors to earlier versions of Q-Chem not listed above: 
 R. D. Adamson,  B. Austin,  J. Baker,  G. J. O. Beran,  K. Brandhorst,  
 S. T. Brown,  E. F. C. Byrd,  A. K. Chakraborty,  C.-L. Cheng,  
 Siu Hung Chien,  D. M. Chipman,  D. L. Crittenden,  H. Dachsel,  
 R. J. Doerksen,  A. D. Dutoi,  L. Fusti-Molnar,  W. A. Goddard III,  
 A. Golubeva-Zadorozhnaya,  S. R. Gwaltney,  G. Hawkins,  A. Heyden,  
 S. Hirata,  G. Kedziora,  F. J. Keil,  C. Kelley,  Jihan Kim,  R. A. King,  
 R. Z. Khaliullin,  P. P. Korambath,  W. Kurlancheek,  A. M. Lee,  M. S. Lee,  
 S. V. Levchenko,  Ching Yeh Lin,  D. Liotard,  R. C. Lochan,  I. Lotan,  
 P. E. Maslen,  N. Nair,  D. P. O'Neill,  D. Neuhauser,  E. Neuscamman,  
 C. M. Oana,  R. Olson,  B. Peters,  R. Peverati,  P. A. Pieniazek,  
 Y. M. Rhee,  J. Ritchie,  M. A. Rohrdanz,  E. Rosta,  N. J. Russ,  
 H. F. Schaefer III,  N. E. Schultz,  N. Shenvi,  A. C. Simmonett,  A. Sodt,  
 D. Stuck,  K. S. Thanthiriwatte,  V. Vanovschi,  Tao Wang,  A. Warshel,  
 C. F. Williams,  Q. Wu,  X. Xu,  W. Zhang

 Please cite Q-Chem as follows:
 Y. Shao et al., Mol. Phys. 113, 184-215 (2015)
 DOI: 10.1080/00268976.2014.952696

 Q-Chem 5.0.2 for Intel X86 EM64T Linux

 Parts of Q-Chem use Armadillo 5.200.1 (Boston Tea Smuggler).
 http://arma.sourceforge.net/

 Q-Chem begins on Wed Mar  2 14:01:48 2022  

Host: 
0

     Scratch files written to ./qcts2.d//
 Dec517 15110_ 26548  26544 5633   
Processing $rem in /home/leeping/opt/qchem/5.0.2-openmp/config/preferences.
 MEM_STATIC 2000
 MEM_TOTAL  8000
 SYMMETRY   OFF
 SYM_IGNORE TRUE 

Checking the input file for inconsistencies... 	...done.

--------------------------------------------------------------
User input:
--------------------------------------------------------------
$molecule
0 2
C        0.7848755629   -0.4822174385   -0.0798482646
C        2.2526821648   -0.7502241617    0.1533838645
C        1.5714196860   -1.7537596532   -0.2914879340
C       -1.7712263058    1.1527702996    0.0157412983
C       -1.1359229008    0.2926919098    1.0641550819
N       -0.0675692106   -0.4077497435    1.0608406024
H        0.4818874335    0.1091611892   -0.9507259987
H        3.1747394959   -0.3180092032    0.5122835730
H        1.4956570306   -2.7907261483   -0.5827359762
H       -2.6988555271    1.6154444477    0.3863710622
H       -1.7107659496    0.2761988387    1.9956366413
C       -1.3829046070    1.4034528303   -1.2084303812
H       -1.0576429443    1.5993756393   -2.2061871774
$end

$rem
method                b3lyp
basis                 6-31+g(d,p)
unrestricted          true
symmetry              off
sym_ignore            true
incdft                false
incfock               0
scf_convergence       8
thresh                14
jobtype               freq
scf_guess             read
scf_algorithm         diis
max_scf_cycles        100
$end

--------------------------------------------------------------
 ----------------------------------------------------------------
             Standard Nuclear Orientation (Angstroms)
    I     Atom           X                Y                Z
 ----------------------------------------------------------------
    1      C       0.7848755629    -0.4822174385    -0.0798482646
    2      C       2.2526821648    -0.7502241617     0.1533838645
    3      C       1.5714196860    -1.7537596532    -0.2914879340
    4      C      -1.7712263058     1.1527702996     0.0157412983
    5      C      -1.1359229008     0.2926919098     1.0641550819
    6      N      -0.0675692106    -0.4077497435     1.0608406024
    7      H       0.4818874335     0.1091611892    -0.9507259987
    8      H       3.1747394959    -0.3180092032     0.5122835730
    9      H       1.4956570306    -2.7907261483    -0.5827359762
   10      H      -2.6988555271     1.6154444477     0.3863710622
   11      H      -1.7107659496     0.2761988387     1.9956366413
   12      C      -1.3829046070     1.4034528303    -1.2084303812
   13      H      -1.0576429443     1.5993756393    -2.2061871774
 ----------------------------------------------------------------
 Nuclear Repulsion Energy =   246.7848604763 hartrees
 There are       25 alpha and       24 beta electrons
 Requested basis set is 6-31+G(d,p)
 There are 53 shells and 163 basis functions

 Total QAlloc Memory Limit   8000 MB
 Mega-Array Size      1956 MB
 MEM_STATIC part      2000 MB

                       Distance Matrix (Angstroms)
             C (  1)   C (  2)   C (  3)   C (  4)   C (  5)   N (  6)
   C (  2)  1.510192
   C (  3)  1.510054  1.291942
   C (  4)  3.035783  4.453333  4.440224
   C (  5)  2.366156  3.660577  3.654509  1.497503
   N (  6)  1.425966  2.514823  2.515317  2.535725  1.277501
   H (  7)  1.095426  2.256838  2.256579  2.664526  2.590510  2.148371
   H (  8)  2.467597  1.079726  2.297403  5.183852  4.388545  3.289610
   H (  9)  2.467249  2.297522  1.079752  5.155760  4.375492  3.289924
   H ( 10)  4.093156  5.492576  5.481449  1.100877  2.156809  3.387018
   H ( 11)  3.333326  4.489584  4.486024  2.166107  1.094703  2.010404
   C ( 12)  3.086863  4.439634  4.420046  1.308523  2.541542  3.187499
   H ( 13)  3.499889  4.695364  4.671355  2.376052  3.522597  3.960084
             H (  7)   H (  8)   H (  9)   H ( 10)   H ( 11)   C ( 12)
   H (  8)  3.094240
   H (  9)  3.093944  3.183193
   H ( 10)  3.764817  6.184918  6.160150
   H ( 11)  3.676504  5.140193  5.131782  2.315089
   C ( 12)  2.284524  5.166857  5.125305  2.078475  3.412366
   H ( 13)  2.483360  5.383262  5.331785  3.068419  4.453391  1.067567

 
 A cutoff of  1.0D-14 yielded   1319 shell pairs
 There are     13045 function pairs
 Smallest overlap matrix eigenvalue = 2.65E-05
 Guess MOs from SCF MO coefficient file
 Reading MOs from coefficient file
 Reading MOs from coefficient file
 An unrestricted hybrid HF-DFT SCF calculation will be
 performed using Pulay DIIS extrapolation
 Exchange:     0.2000 Hartree-Fock + 0.0800 Slater + 0.7200 B88
 Correlation:  0.1900 VWN1RPA + 0.8100 LYP
 Using SG-1 standard quadrature grid
 SCF converges when DIIS error is below 1.0E-08
Using Q-Chem read-in guess as SCF_GUESS READ specified.

 -------------------------------------------------------
 OpenMP BLAS3 based DFT computing Module                
 -------------------------------------------------------
 ---------------------------------------
  Cycle       Energy         DIIS Error
 ---------------------------------------
    1    -286.7863396744      1.17E-09
    2    -286.7863396744      1.87E-09 Convergence criterion met
 ---------------------------------------
 <S^2> = 0.7641
 SCF time:  CPU 5.80 s  wall 8.66 s
 SCF   energy in the final basis set = -286.78633967
 Total energy in the final basis set = -286.78633967
 
 --------------------------------------------------------------
 
                    Orbital Energies (a.u.)
 --------------------------------------------------------------
 
 Alpha MOs
 -- Occupied --
-14.336 -10.238 -10.237 -10.224 -10.220 -10.218 -10.217  -0.937
 -0.870  -0.786  -0.671  -0.603  -0.578  -0.551  -0.518  -0.503
 -0.463  -0.430  -0.385  -0.361  -0.315  -0.288  -0.272  -0.257
 -0.202
 -- Virtual --
 -0.063  -0.012   0.009   0.016   0.020   0.027   0.046   0.048
  0.050   0.062   0.078   0.088   0.089   0.096   0.106   0.108
  0.120   0.126   0.133   0.137   0.153   0.161   0.165   0.181
  0.189   0.191   0.194   0.198   0.210   0.224   0.242   0.246
  0.254   0.263   0.269   0.283   0.297   0.304   0.315   0.365
  0.390   0.405   0.449   0.547   0.630   0.656   0.668   0.684
  0.697   0.705   0.715   0.730   0.737   0.750   0.755   0.761
  0.789   0.838   0.870   0.883   0.896   0.934   0.960   0.967
  0.987   1.015   1.029   1.074   1.121   1.129   1.173   1.188
  1.208   1.252   1.274   1.287   1.324   1.363   1.374   1.405
  1.410   1.518   1.545   1.602   1.636   1.674   1.693   1.723
  1.784   1.815   1.850   1.857   1.925   1.941   2.030   2.067
  2.086   2.087   2.142   2.168   2.181   2.261   2.266   2.285
  2.349   2.359   2.419   2.430   2.451   2.453   2.498   2.552
  2.590   2.605   2.624   2.652   2.673   2.800   2.806   2.858
  2.864   2.922   3.067   3.137   3.186   3.306   3.350   3.443
  3.576   3.658   3.753   4.185   4.301   4.384   4.517   4.700
  4.838   4.882
 
 Beta MOs
 -- Occupied --
-14.336 -10.238 -10.235 -10.223 -10.218 -10.217 -10.209  -0.937
 -0.869  -0.771  -0.661  -0.590  -0.578  -0.545  -0.515  -0.497
 -0.453  -0.423  -0.386  -0.361  -0.312  -0.287  -0.257  -0.252
 -- Virtual --
 -0.071  -0.055  -0.012   0.011   0.018   0.021   0.027   0.047
  0.048   0.052   0.066   0.080   0.088   0.091   0.098   0.107
  0.109   0.122   0.127   0.134   0.138   0.152   0.162   0.166
  0.182   0.191   0.194   0.199   0.199   0.211   0.229   0.243
  0.247   0.256   0.262   0.270   0.285   0.300   0.307   0.319
  0.365   0.393   0.411   0.449   0.554   0.634   0.662   0.685
  0.686   0.699   0.708   0.719   0.736   0.745   0.751   0.762
  0.781   0.790   0.842   0.872   0.891   0.896   0.941   0.964
  0.970   0.991   1.013   1.033   1.081   1.121   1.130   1.175
  1.190   1.212   1.252   1.277   1.290   1.333   1.367   1.375
  1.406   1.412   1.528   1.548   1.604   1.637   1.715   1.727
  1.744   1.789   1.823   1.853   1.881   1.932   1.946   2.032
  2.066   2.085   2.093   2.146   2.174   2.181   2.261   2.268
  2.286   2.351   2.363   2.422   2.432   2.457   2.463   2.502
  2.556   2.594   2.608   2.625   2.652   2.678   2.804   2.813
  2.860   2.864   2.934   3.070   3.137   3.190   3.311   3.352
  3.445   3.583   3.674   3.753   4.185   4.302   4.385   4.526
  4.702   4.855   4.882
 --------------------------------------------------------------
 
          Ground-State Mulliken Net Atomic Charges

     Atom                 Charge (a.u.)    Spin (a.u.)
  --------------------------------------------------------
      1 C                    -0.080650       0.065600
      2 C                    -0.189018      -0.010249
      3 C                    -0.190669      -0.010145
      4 C                    -0.046956      -0.207157
      5 C                    -0.139683       0.087277
      6 N                    -0.095606      -0.022996
      7 H                     0.113688      -0.007985
      8 H                     0.142621      -0.000914
      9 H                     0.142383      -0.000853
     10 H                     0.142220       0.084428
     11 H                     0.117277       0.011925
     12 C                    -0.101765       1.057372
     13 H                     0.186157      -0.046303
  --------------------------------------------------------
  Sum of atomic charges =     0.000000
  Sum of spin   charges =     1.000000

 -----------------------------------------------------------------
                    Cartesian Multipole Moments
 -----------------------------------------------------------------
    Charge (ESU x 10^10)
                 0.0000
    Dipole Moment (Debye)
         X       0.3270      Y       0.4255      Z      -1.5523
       Tot       1.6425
    Quadrupole Moments (Debye-Ang)
        XX     -37.8606     XY      -1.5073     YY     -40.6624
        XZ      -1.4141     YZ       1.3603     ZZ     -41.8502
    Octopole Moments (Debye-Ang^2)
       XXX       8.4745    XXY       4.9462    XYY       3.0912
       YYY      -7.5037    XXZ       7.2717    XYZ       0.1995
       YYZ      -9.4530    XZZ      -5.9668    YZZ      10.4631
       ZZZ     -20.0373
    Hexadecapole Moments (Debye-Ang^3)
      XXXX    -572.9285   XXXY     172.3549   XXYY    -160.1996
      XYYY     163.0430   YYYY    -323.9208   XXXZ      -0.4316
      XXYZ      15.5826   XYYZ      -6.6979   YYYZ      38.0318
      XXZZ    -141.4102   XYZZ      56.8076   YYZZ     -91.9168
      XZZZ      -1.9853   YZZZ      17.3987   ZZZZ    -208.4546
 -----------------------------------------------------------------
 Calculating MO derivatives via CPSCF
   1         3          39      0.309956    0.063786
   2         3          39      0.037158    0.007123
   3         3          39      0.004154    0.000798
   4         3          39      0.000677    0.000121
   5        31          11      0.000051    0.000012
   6        39           3      0.000004    0.000002
   7        42           0      0.000000    0.000000    Roots Converged
 Time for AOints: 18.2 s (CPU) 20.9 s (wall)
 ------------------------------------------------------------------------------
                     AOints        : Timing summary (seconds)
 ------------------------------------------------------------------------------
     job step          cpu (% of tot)      sys (% of tot)     wall (% of tot)
 ------------------------------------------------------------------------------
  cpscf_lag         0.1030E+03 (27.9)   0.4000E-04 (34.8)   0.1077E+03 (27.1)
  iterzp            0.2480E+03 (67.1)   0.7300E-04 (63.5)   0.2689E+03 (67.6)
  make_fx           0.0000E+00 ( 0.0)   0.0000E+00 ( 0.0)   0.0000E+00 ( 0.0)
  AOints            0.1822E+02 ( 4.9)   0.1000E-05 ( 0.9)   0.2090E+02 ( 5.3)
 ------------------------------------------------------------------------------
   Grand Totals     0.3696E+03          0.1150E-03          0.3978E+03
 ------------------------------------------------------------------------------
 Calculating analytic Hessian of the SCF energy
 Polarizability Matrix (a.u.)
            1           2           3
    1 -94.5661498  24.1871312  -0.1301091
    2  24.1871312 -76.8146545   7.0560231
    3  -0.1301091   7.0560231 -75.2566660
 
 Direct stationary perturbation theory relativistic correction:
 
 rels  =       0.069344881767
 relv  =      -0.330509667331
 rel2e =       0.148186304976
 E_rel =      -0.112978480588
 
 Hessian of the SCF Energy
            1           2           3           4           5           6
    1   0.4349340  -0.1566311   0.0087187  -0.1841492   0.0022236  -0.0436146
    2  -0.1566311   0.3696361  -0.1225546   0.0497372  -0.0272794   0.0188695
    3   0.0087187  -0.1225546   0.4723232  -0.0305886   0.0175577  -0.0441076
    4  -0.1841492   0.0497372  -0.0305886   0.7013174   0.3485342   0.2416247
    5   0.0022236  -0.0272794   0.0175577   0.3485342   0.5679827   0.2252762
    6  -0.0436146   0.0188695  -0.0441076   0.2416247   0.2252762   0.2217209
    7  -0.0561772   0.0540693  -0.0045901  -0.2077492  -0.2689895  -0.1177379
    8   0.0978895  -0.1569448  -0.0046827  -0.3032036  -0.4346139  -0.1853716
    9   0.0171050  -0.0119742  -0.0419171  -0.1233551  -0.1713938  -0.1208970
   10   0.0036399  -0.0069356  -0.0054457  -0.0000868   0.0022428   0.0011157
   11  -0.0133904  -0.0016627   0.0004703   0.0004879  -0.0025222   0.0004555
   12   0.0103141  -0.0099904  -0.0030291  -0.0007790   0.0023967   0.0009486
   13  -0.0512028   0.0330156   0.0083581   0.0018964  -0.0058216   0.0018183
   14   0.0227904  -0.0106310  -0.0019617  -0.0029007   0.0047281   0.0009806
   15   0.0323363  -0.0177708  -0.0042531   0.0027587   0.0017246  -0.0013734
   16  -0.0915370  -0.0207524   0.0814316  -0.0284510   0.0255393   0.0309456
   17   0.0018125  -0.0684822  -0.0047823   0.0050960  -0.0084797  -0.0010742
   18   0.0289164   0.0303526  -0.1828628   0.0068748  -0.0180786   0.0037642
   19  -0.0577243   0.0344237  -0.0515660  -0.0104255   0.0216306  -0.0152245
   20   0.0335000  -0.1124651   0.1108495   0.0019275  -0.0018964  -0.0069451
   21  -0.0494797   0.1092383  -0.2112522  -0.0016539   0.0016386  -0.0002924
   22  -0.0052365  -0.0069163  -0.0056646  -0.2743921  -0.1155193  -0.0938913
   23   0.0062888   0.0044177   0.0003517  -0.1093880  -0.0945579  -0.0483618
   24   0.0006520  -0.0040278   0.0045783  -0.0945768  -0.0501166  -0.0669959
   25   0.0023643   0.0098636   0.0022707   0.0032437  -0.0104998  -0.0040619
   26  -0.0052768  -0.0047661  -0.0030598   0.0089180  -0.0038359  -0.0015373
   27   0.0001114  -0.0014739   0.0060493  -0.0004206  -0.0072556   0.0080084
   28   0.0011747   0.0003007  -0.0003041  -0.0001824  -0.0000493  -0.0002309
   29  -0.0000450   0.0007518   0.0015189  -0.0001334   0.0000622  -0.0006120
   30   0.0002003   0.0012528  -0.0017892  -0.0001373  -0.0000631   0.0000970
   31   0.0051253   0.0065487   0.0016270  -0.0003953   0.0006102  -0.0008338
   32   0.0071482   0.0097069   0.0040382   0.0005698   0.0000689  -0.0018107
   33   0.0001453   0.0050372   0.0040051   0.0001319  -0.0002700  -0.0006953
   34  -0.0015782   0.0033791  -0.0045163  -0.0006791   0.0002342  -0.0001761
   35   0.0037109  -0.0025241   0.0020273   0.0004539   0.0003076   0.0002526
   36  -0.0054816   0.0026735   0.0028057  -0.0000537  -0.0015299  -0.0004017
   37   0.0003670  -0.0001025   0.0002693   0.0000529  -0.0001356   0.0002666
   38  -0.0000206   0.0002429   0.0002275  -0.0000987   0.0000359  -0.0001215
   39   0.0000764   0.0003679  -0.0005506   0.0001750   0.0001139   0.0002242
            7           8           9          10          11          12
    1  -0.0561772   0.0978895   0.0171050   0.0036399  -0.0133904   0.0103141
    2   0.0540693  -0.1569448  -0.0119742  -0.0069356  -0.0016627  -0.0099904
    3  -0.0045901  -0.0046827  -0.0419171  -0.0054457   0.0004703  -0.0030291
    4  -0.2077492  -0.3032036  -0.1233551  -0.0000868   0.0004879  -0.0007790
    5  -0.2689895  -0.4346139  -0.1713938   0.0022428  -0.0025222   0.0023967
    6  -0.1177379  -0.1853716  -0.1208970   0.0011157   0.0004555   0.0009486
    7   0.3509053   0.2165240   0.1119350  -0.0019083   0.0027196  -0.0024793
    8   0.2165240   0.9380981   0.2844306  -0.0002491   0.0009739   0.0001239
    9   0.1119350   0.2844306   0.2011261  -0.0013423  -0.0000728  -0.0008452
   10  -0.0019083  -0.0002491  -0.0013423   0.4020497  -0.1172980  -0.1860678
   11   0.0027196   0.0009739  -0.0000728  -0.1172980   0.2368322  -0.1202465
   12  -0.0024793   0.0001239  -0.0008452  -0.1860678  -0.1202465   0.6950737
   13   0.0067126  -0.0007532   0.0031135  -0.0917443   0.0112096   0.0131956
   14  -0.0032054   0.0018531  -0.0014354   0.0324620  -0.0937558   0.0136701
   15   0.0013924  -0.0016210  -0.0032704  -0.0371700   0.0470045  -0.1194298
   16  -0.0336623   0.0037103   0.0039847  -0.0154594   0.0412000  -0.0318850
   17   0.0262060   0.0013408  -0.0221719   0.0337107  -0.0072569   0.0288182
   18   0.0238208  -0.0022852  -0.0004831  -0.0138191   0.0168031   0.0084705
   19  -0.0107927   0.0029717  -0.0043452  -0.0023622   0.0021450  -0.0023406
   20   0.0138719  -0.0111547   0.0172567   0.0010831  -0.0012051   0.0003643
   21   0.0020052  -0.0048616   0.0092654   0.0002229  -0.0013127   0.0023687
   22  -0.0021989   0.0063729  -0.0011473   0.0002618  -0.0004619   0.0003033
   23  -0.0125223   0.0010571  -0.0060422  -0.0002715   0.0003361  -0.0002874
   24  -0.0061275   0.0004710   0.0085500   0.0001421   0.0002086  -0.0002372
   25  -0.0435411  -0.0232186  -0.0075635   0.0004400  -0.0003339   0.0005648
   26  -0.0281062  -0.3390961  -0.0895659  -0.0002555   0.0001578  -0.0000782
   27  -0.0094593  -0.0860071  -0.0532099   0.0000032  -0.0000905  -0.0002094
   28  -0.0000174  -0.0002382   0.0003065  -0.2163006   0.0967726   0.0576751
   29   0.0000123  -0.0003448   0.0001324   0.0904289  -0.0836012  -0.0273425
   30  -0.0000808  -0.0002422   0.0003901   0.0729062  -0.0374991  -0.0609636
   31  -0.0010935  -0.0002070   0.0011406   0.0060883   0.0062628  -0.0120752
   32  -0.0002288  -0.0008028   0.0013477  -0.0038966   0.0027213   0.0181630
   33   0.0000806  -0.0002287   0.0008173   0.0118853   0.0025797  -0.0166613
   34  -0.0005306   0.0004770   0.0000066  -0.0774885  -0.0371698   0.1589604
   35  -0.0003663  -0.0005824  -0.0002903  -0.0380129  -0.0473293   0.0936548
   36   0.0013272   0.0005108   0.0004996   0.1609845   0.0924568  -0.5139803
   37   0.0000533  -0.0000757   0.0001616  -0.0071294   0.0078565  -0.0053863
   38   0.0000155   0.0002166  -0.0002210   0.0069917  -0.0036881   0.0007537
   39  -0.0000863  -0.0002363  -0.0000258  -0.0034152  -0.0007570   0.0084945
           13          14          15          16          17          18
    1  -0.0512028   0.0227904   0.0323363  -0.0915370   0.0018125   0.0289164
    2   0.0330156  -0.0106310  -0.0177708  -0.0207524  -0.0684822   0.0303526
    3   0.0083581  -0.0019617  -0.0042531   0.0814316  -0.0047823  -0.1828628
    4   0.0018964  -0.0029007   0.0027587  -0.0284510   0.0050960   0.0068748
    5  -0.0058216   0.0047281   0.0017246   0.0255393  -0.0084797  -0.0180786
    6   0.0018183   0.0009806  -0.0013734   0.0309456  -0.0010742   0.0037642
    7   0.0067126  -0.0032054   0.0013924  -0.0336623   0.0262060   0.0238208
    8  -0.0007532   0.0018531  -0.0016210   0.0037103   0.0013408  -0.0022852
    9   0.0031135  -0.0014354  -0.0032704   0.0039847  -0.0221719  -0.0004831
   10  -0.0917443   0.0324620  -0.0371700  -0.0154594   0.0337107  -0.0138191
   11   0.0112096  -0.0937558   0.0470045   0.0412000  -0.0072569   0.0168031
   12   0.0131956   0.0136701  -0.1194298  -0.0318850   0.0288182   0.0084705
   13   0.6583243  -0.2848089  -0.1477173  -0.4181205   0.2267528   0.0371350
   14  -0.2848089   0.3458398  -0.0672140   0.2346461  -0.2021147  -0.0019771
   15  -0.1477173  -0.0672140   0.5193505   0.0188853   0.0102145  -0.1024058
   16  -0.4181205   0.2346461   0.0188853   0.6189342  -0.2943208  -0.1199665
   17   0.2267528  -0.2021147   0.0102145  -0.2943208   0.2902267  -0.0077018
   18   0.0371350  -0.0019771  -0.1024058  -0.1199665  -0.0077018   0.2960083
   19   0.0033787  -0.0039618   0.0021459   0.0006756  -0.0073158   0.0209813
   20  -0.0011291   0.0003141  -0.0010421   0.0009854   0.0028889  -0.0004220
   21  -0.0042825   0.0031295  -0.0017623   0.0020359   0.0126280  -0.0280353
   22  -0.0006203   0.0003140   0.0006219   0.0013745  -0.0013443  -0.0013408
   23   0.0007594  -0.0007543  -0.0007256  -0.0021950   0.0007777   0.0020895
   24   0.0004786  -0.0006835   0.0002714   0.0003111   0.0041345   0.0017819
   25  -0.0015738   0.0002787   0.0004572   0.0043562   0.0002261  -0.0017393
   26  -0.0000126   0.0000901  -0.0005797   0.0008159   0.0011610   0.0007646
   27   0.0001261  -0.0002553   0.0003537  -0.0025708  -0.0018222  -0.0015006
   28  -0.0106662   0.0120158   0.0098386  -0.0010572   0.0012996  -0.0044805
   29   0.0238352  -0.0008733  -0.0033098  -0.0002328  -0.0029633   0.0028513
   30  -0.0185441   0.0155579   0.0057606  -0.0007175   0.0002607  -0.0014978
   31  -0.1073668  -0.0040431   0.1139751  -0.0340398   0.0065617   0.0237668
   32  -0.0031689  -0.0437183   0.0135512   0.0145916  -0.0092716  -0.0213228
   33   0.1123263   0.0147112  -0.2491534   0.0047303  -0.0088726   0.0048584
   34   0.0104198  -0.0057768   0.0034898  -0.0031882   0.0016783   0.0003322
   35  -0.0008474  -0.0025206   0.0174396  -0.0036278   0.0024980  -0.0008887
   36  -0.0078371   0.0249852  -0.0431780   0.0132198  -0.0093950   0.0013610
   37   0.0005628   0.0021899  -0.0010140   0.0001750  -0.0003626  -0.0004812
   38   0.0009693   0.0015429   0.0023285  -0.0003597  -0.0003245  -0.0001848
   39   0.0018296   0.0004926  -0.0009099  -0.0004046  -0.0002360   0.0005410
           19          20          21          22          23          24
    1  -0.0577243   0.0335000  -0.0494797  -0.0052365   0.0062888   0.0006520
    2   0.0344237  -0.1124651   0.1092383  -0.0069163   0.0044177  -0.0040278
    3  -0.0515660   0.1108495  -0.2112522  -0.0056646   0.0003517   0.0045783
    4  -0.0104255   0.0019275  -0.0016539  -0.2743921  -0.1093880  -0.0945768
    5   0.0216306  -0.0018964   0.0016386  -0.1155193  -0.0945579  -0.0501166
    6  -0.0152245  -0.0069451  -0.0002924  -0.0938913  -0.0483618  -0.0669959
    7  -0.0107927   0.0138719   0.0020052  -0.0021989  -0.0125223  -0.0061275
    8   0.0029717  -0.0111547  -0.0048616   0.0063729   0.0010571   0.0004710
    9  -0.0043452   0.0172567   0.0092654  -0.0011473  -0.0060422   0.0085500
   10  -0.0023622   0.0010831   0.0002229   0.0002618  -0.0002715   0.0001421
   11   0.0021450  -0.0012051  -0.0013127  -0.0004619   0.0003361   0.0002086
   12  -0.0023406   0.0003643   0.0023687   0.0003033  -0.0002874  -0.0002372
   13   0.0033787  -0.0011291  -0.0042825  -0.0006203   0.0007594   0.0004786
   14  -0.0039618   0.0003141   0.0031295   0.0003140  -0.0007543  -0.0006835
   15   0.0021459  -0.0010421  -0.0017623   0.0006219  -0.0007256   0.0002714
   16   0.0006756   0.0009854   0.0020359   0.0013745  -0.0021950   0.0003111
   17  -0.0073158   0.0028889   0.0126280  -0.0013443   0.0007777   0.0041345
   18   0.0209813  -0.0004220  -0.0280353  -0.0013408   0.0020895   0.0017819
   19   0.0753850  -0.0502267   0.0503347   0.0007079   0.0005487  -0.0012662
   20  -0.0502267   0.1218566  -0.1213071  -0.0002150   0.0015627  -0.0014660
   21   0.0503347  -0.1213071   0.2307219   0.0001483   0.0009411  -0.0010966
   22   0.0007079  -0.0002150   0.0001483   0.2783621   0.1183986   0.1001885
   23   0.0005487   0.0015627   0.0009411   0.1183986   0.0866715   0.0508597
   24  -0.0012662  -0.0014660  -0.0010966   0.1001885   0.0508597   0.0563388
   25   0.0009461   0.0000588   0.0000872   0.0016225  -0.0016769   0.0005796
   26  -0.0006159  -0.0002466  -0.0001206  -0.0008942   0.0006922   0.0009101
   27   0.0013507   0.0023964   0.0004728   0.0009243   0.0008996  -0.0029800
   28   0.0003555   0.0000406   0.0001664  -0.0000150   0.0000994  -0.0000576
   29  -0.0001386   0.0006302  -0.0000351   0.0000053   0.0000960  -0.0000344
   30   0.0006605  -0.0003670   0.0003249   0.0000226   0.0000367  -0.0000555
   31  -0.0001713  -0.0000654   0.0008236   0.0000796  -0.0000343  -0.0001937
   32   0.0004373   0.0002264  -0.0005528   0.0001988  -0.0001560  -0.0003426
   33  -0.0001727   0.0001327   0.0002154   0.0000528  -0.0000264  -0.0001599
   34   0.0012411  -0.0011593   0.0005456   0.0000504   0.0000066  -0.0000711
   35  -0.0009176   0.0001070   0.0000068   0.0001170  -0.0001143   0.0000238
   36  -0.0003533   0.0004471  -0.0011865  -0.0002665   0.0003401  -0.0000213
   37  -0.0012138   0.0013283  -0.0009537   0.0000042  -0.0000133  -0.0000590
   38   0.0010194  -0.0006180   0.0006076  -0.0000554  -0.0000286   0.0000632
   39  -0.0002046   0.0001027   0.0002560   0.0000489  -0.0000750   0.0000261
           25          26          27          28          29          30
    1   0.0023643  -0.0052768   0.0001114   0.0011747  -0.0000450   0.0002003
    2   0.0098636  -0.0047661  -0.0014739   0.0003007   0.0007518   0.0012528
    3   0.0022707  -0.0030598   0.0060493  -0.0003041   0.0015189  -0.0017892
    4   0.0032437   0.0089180  -0.0004206  -0.0001824  -0.0001334  -0.0001373
    5  -0.0104998  -0.0038359  -0.0072556  -0.0000493   0.0000622  -0.0000631
    6  -0.0040619  -0.0015373   0.0080084  -0.0002309  -0.0006120   0.0000970
    7  -0.0435411  -0.0281062  -0.0094593  -0.0000174   0.0000123  -0.0000808
    8  -0.0232186  -0.3390961  -0.0860071  -0.0002382  -0.0003448  -0.0002422
    9  -0.0075635  -0.0895659  -0.0532099   0.0003065   0.0001324   0.0003901
   10   0.0004400  -0.0002555   0.0000032  -0.2163006   0.0904289   0.0729062
   11  -0.0003339   0.0001578  -0.0000905   0.0967726  -0.0836012  -0.0374991
   12   0.0005648  -0.0000782  -0.0002094   0.0576751  -0.0273425  -0.0609636
   13  -0.0015738  -0.0000126   0.0001261  -0.0106662   0.0238352  -0.0185441
   14   0.0002787   0.0000901  -0.0002553   0.0120158  -0.0008733   0.0155579
   15   0.0004572  -0.0005797   0.0003537   0.0098386  -0.0033098   0.0057606
   16   0.0043562   0.0008159  -0.0025708  -0.0010572  -0.0002328  -0.0007175
   17   0.0002261   0.0011610  -0.0018222   0.0012996  -0.0029633   0.0002607
   18  -0.0017393   0.0007646  -0.0015006  -0.0044805   0.0028513  -0.0014978
   19   0.0009461  -0.0006159   0.0013507   0.0003555  -0.0001386   0.0006605
   20   0.0000588  -0.0002466   0.0023964   0.0000406   0.0006302  -0.0003670
   21   0.0000872  -0.0001206   0.0004728   0.0001664  -0.0000351   0.0003249
   22   0.0016225  -0.0008942   0.0009243  -0.0000150   0.0000053   0.0000226
   23  -0.0016769   0.0006922   0.0008996   0.0000994   0.0000960   0.0000367
   24   0.0005796   0.0009101  -0.0029800  -0.0000576  -0.0000344  -0.0000555
   25   0.0323147   0.0254135   0.0098365   0.0000121   0.0000561   0.0000491
   26   0.0254135   0.3459888   0.0931443   0.0000205  -0.0000098   0.0000036
   27   0.0098365   0.0931443   0.0429905   0.0000472   0.0001307   0.0000121
   28   0.0000121   0.0000205   0.0000472   0.2311509  -0.1106512  -0.0804122
   29   0.0000561  -0.0000098   0.0001307  -0.1106512   0.0776133   0.0253529
   30   0.0000491   0.0000036   0.0000121  -0.0804122   0.0253529   0.0819963
   31  -0.0002474  -0.0000306   0.0001648   0.0003230  -0.0011946  -0.0003117
   32  -0.0002436  -0.0000662   0.0002498  -0.0010885  -0.0007340  -0.0006389
   33  -0.0001451  -0.0000021   0.0000831  -0.0007313  -0.0004750   0.0003943
   34   0.0000514   0.0000110  -0.0000125  -0.0040062  -0.0034734   0.0232825
   35   0.0001257  -0.0000546   0.0000915  -0.0013640   0.0074556  -0.0030112
   36  -0.0003963   0.0001714  -0.0000724   0.0181857   0.0004186  -0.0247895
   37   0.0000113   0.0000129  -0.0001011  -0.0007714   0.0015313   0.0030825
   38  -0.0000499  -0.0000145  -0.0000078   0.0028419   0.0019174  -0.0006432
   39   0.0000609  -0.0000506   0.0000024  -0.0000031   0.0014039   0.0001204
           31          32          33          34          35          36
    1   0.0051253   0.0071482   0.0001453  -0.0015782   0.0037109  -0.0054816
    2   0.0065487   0.0097069   0.0050372   0.0033791  -0.0025241   0.0026735
    3   0.0016270   0.0040382   0.0040051  -0.0045163   0.0020273   0.0028057
    4  -0.0003953   0.0005698   0.0001319  -0.0006791   0.0004539  -0.0000537
    5   0.0006102   0.0000689  -0.0002700   0.0002342   0.0003076  -0.0015299
    6  -0.0008338  -0.0018107  -0.0006953  -0.0001761   0.0002526  -0.0004017
    7  -0.0010935  -0.0002288   0.0000806  -0.0005306  -0.0003663   0.0013272
    8  -0.0002070  -0.0008028  -0.0002287   0.0004770  -0.0005824   0.0005108
    9   0.0011406   0.0013477   0.0008173   0.0000066  -0.0002903   0.0004996
   10   0.0060883  -0.0038966   0.0118853  -0.0774885  -0.0380129   0.1609845
   11   0.0062628   0.0027213   0.0025797  -0.0371698  -0.0473293   0.0924568
   12  -0.0120752   0.0181630  -0.0166613   0.1589604   0.0936548  -0.5139803
   13  -0.1073668  -0.0031689   0.1123263   0.0104198  -0.0008474  -0.0078371
   14  -0.0040431  -0.0437183   0.0147112  -0.0057768  -0.0025206   0.0249852
   15   0.1139751   0.0135512  -0.2491534   0.0034898   0.0174396  -0.0431780
   16  -0.0340398   0.0145916   0.0047303  -0.0031882  -0.0036278   0.0132198
   17   0.0065617  -0.0092716  -0.0088726   0.0016783   0.0024980  -0.0093950
   18   0.0237668  -0.0213228   0.0048584   0.0003322  -0.0008887   0.0013610
   19  -0.0001713   0.0004373  -0.0001727   0.0012411  -0.0009176  -0.0003533
   20  -0.0000654   0.0002264   0.0001327  -0.0011593   0.0001070   0.0004471
   21   0.0008236  -0.0005528   0.0002154   0.0005456   0.0000068  -0.0011865
   22   0.0000796   0.0001988   0.0000528   0.0000504   0.0001170  -0.0002665
   23  -0.0000343  -0.0001560  -0.0000264   0.0000066  -0.0001143   0.0003401
   24  -0.0001937  -0.0003426  -0.0001599  -0.0000711   0.0000238  -0.0000213
   25  -0.0002474  -0.0002436  -0.0001451   0.0000514   0.0001257  -0.0003963
   26  -0.0000306  -0.0000662  -0.0000021   0.0000110  -0.0000546   0.0001714
   27   0.0001648   0.0002498   0.0000831  -0.0000125   0.0000915  -0.0000724
   28   0.0003230  -0.0010885  -0.0007313  -0.0040062  -0.0013640   0.0181857
   29  -0.0011946  -0.0007340  -0.0004750  -0.0034734   0.0074556   0.0004186
   30  -0.0003117  -0.0006389   0.0003943   0.0232825  -0.0030112  -0.0247895
   31   0.1311947  -0.0154725  -0.1266505   0.0005061   0.0010428  -0.0011214
   32  -0.0154725   0.0427344  -0.0155430   0.0010656  -0.0004452   0.0026803
   33  -0.1266505  -0.0155430   0.2594930  -0.0012202   0.0027036  -0.0031169
   34   0.0005061   0.0010656  -0.0012202   0.1001987   0.0865707  -0.2991625
   35   0.0010428  -0.0004452   0.0027036   0.0865707   0.0591436  -0.1769137
   36  -0.0011214   0.0026803  -0.0031169  -0.2991625  -0.1769137   0.9504738
   37  -0.0000026   0.0000875  -0.0004327  -0.0249967  -0.0468849   0.1209552
   38   0.0000214  -0.0002637   0.0002535  -0.0458432  -0.0159415   0.0631548
   39  -0.0003115   0.0001806  -0.0000798   0.1185416   0.0649040  -0.3683935
           37          38          39
    1   0.0003670  -0.0000206   0.0000764
    2  -0.0001025   0.0002429   0.0003679
    3   0.0002693   0.0002275  -0.0005506
    4   0.0000529  -0.0000987   0.0001750
    5  -0.0001356   0.0000359   0.0001139
    6   0.0002666  -0.0001215   0.0002242
    7   0.0000533   0.0000155  -0.0000863
    8  -0.0000757   0.0002166  -0.0002363
    9   0.0001616  -0.0002210  -0.0000258
   10  -0.0071294   0.0069917  -0.0034152
   11   0.0078565  -0.0036881  -0.0007570
   12  -0.0053863   0.0007537   0.0084945
   13   0.0005628   0.0009693   0.0018296
   14   0.0021899   0.0015429   0.0004926
   15  -0.0010140   0.0023285  -0.0009099
   16   0.0001750  -0.0003597  -0.0004046
   17  -0.0003626  -0.0003245  -0.0002360
   18  -0.0004812  -0.0001848   0.0005410
   19  -0.0012138   0.0010194  -0.0002046
   20   0.0013283  -0.0006180   0.0001027
   21  -0.0009537   0.0006076   0.0002560
   22   0.0000042  -0.0000554   0.0000489
   23  -0.0000133  -0.0000286  -0.0000750
   24  -0.0000590   0.0000632   0.0000261
   25   0.0000113  -0.0000499   0.0000609
   26   0.0000129  -0.0000145  -0.0000506
   27  -0.0001011  -0.0000078   0.0000024
   28  -0.0007714   0.0028419  -0.0000031
   29   0.0015313   0.0019174   0.0014039
   30   0.0030825  -0.0006432   0.0001204
   31  -0.0000026   0.0000214  -0.0003115
   32   0.0000875  -0.0002637   0.0001806
   33  -0.0004327   0.0002535  -0.0000798
   34  -0.0249967  -0.0458432   0.1185416
   35  -0.0468849  -0.0159415   0.0649040
   36   0.1209552   0.0631548  -0.3683935
   37   0.0328875   0.0345682  -0.1163072
   38   0.0345682   0.0169232  -0.0662106
   39  -0.1163072  -0.0662106   0.3602951
 Gradient time:  CPU 484.27 s  wall 518.38 s
 **********************************************************************
 **                                                                  **
 **                       VIBRATIONAL ANALYSIS                       **
 **                       --------------------                       **
 **                                                                  **
 **        VIBRATIONAL FREQUENCIES (CM**-1) AND NORMAL MODES         **
 **     FORCE CONSTANTS (mDYN/ANGSTROM) AND REDUCED MASSES (AMU)     **
 **                  INFRARED INTENSITIES (KM/MOL)                   **
 **                                                                  **
 **********************************************************************
 

 Mode:                 1                      2                      3
 Frequency:      -701.85                  26.46                  95.70
 Force Cnst:      0.3641                 0.0011                 0.0128
 Red. Mass:       1.2545                 2.6931                 2.3795
 IR Active:          YES                    YES                    YES
 IR Intens:       78.687                  0.419                  0.866
 Raman Active:       YES                    YES                    YES
               X      Y      Z        X      Y      Z        X      Y      Z
 C          0.001 -0.001  0.002   -0.104 -0.158 -0.070   -0.029 -0.043 -0.018
 C          0.001 -0.001 -0.000   -0.039  0.154 -0.120   -0.021  0.062  0.063
 C          0.001 -0.001 -0.000    0.104 -0.069  0.164    0.084  0.030 -0.026
 C          0.026 -0.019  0.003    0.007  0.015  0.007    0.123  0.187  0.078
 C          0.008 -0.007  0.004   -0.001 -0.002 -0.002   -0.005 -0.006 -0.002
 N          0.006 -0.005  0.003   -0.039 -0.059 -0.028   -0.080 -0.121 -0.051
 H          0.017 -0.008 -0.000   -0.266 -0.402 -0.179   -0.023 -0.032 -0.012
 H         -0.000  0.000  0.002   -0.090  0.396 -0.280   -0.079  0.118  0.144
 H         -0.001 -0.001  0.002    0.267 -0.147  0.399    0.186  0.038 -0.081
 H          0.031 -0.021  0.004   -0.037 -0.053 -0.017    0.390  0.589  0.245
 H          0.004 -0.004  0.002    0.032  0.045  0.019   -0.016 -0.022 -0.010
 C         -0.115  0.086 -0.024    0.074  0.124  0.050   -0.075 -0.114 -0.046
 H          0.786 -0.582  0.138    0.141  0.229  0.093   -0.252 -0.382 -0.157
 TransDip   0.210 -0.173  0.080    0.012  0.015  0.007    0.015  0.024  0.010

 Mode:                 4                      5                      6
 Frequency:       168.77                 301.67                 337.07
 Force Cnst:      0.0748                 0.1356                 0.2792
 Red. Mass:       4.4572                 2.5298                 4.1702
 IR Active:          YES                    YES                    YES
 IR Intens:        0.420                  1.851                  5.823
 Raman Active:       YES                    YES                    YES
               X      Y      Z        X      Y      Z        X      Y      Z
 C         -0.136  0.045  0.086   -0.073 -0.108 -0.050   -0.016 -0.089  0.221
 C         -0.096  0.128 -0.143   -0.088  0.001  0.143    0.042  0.004 -0.065
 C         -0.096  0.119 -0.132    0.094  0.003 -0.141    0.042  0.001 -0.072
 C          0.118 -0.060 -0.041   -0.041 -0.058 -0.022    0.100 -0.015 -0.129
 C         -0.043 -0.011  0.094    0.119  0.185  0.079    0.042 -0.010 -0.016
 N         -0.055 -0.033  0.159   -0.022 -0.030 -0.017   -0.005 -0.105  0.253
 H         -0.262  0.085  0.161   -0.011 -0.020 -0.011   -0.152 -0.030  0.302
 H         -0.067  0.160 -0.258   -0.209  0.066  0.372    0.114  0.049 -0.302
 H         -0.063  0.145 -0.230    0.282  0.039 -0.322    0.128  0.061 -0.310
 H          0.095  0.022 -0.207   -0.230 -0.339 -0.144    0.107 -0.078 -0.018
 H         -0.110  0.056  0.052    0.281  0.425  0.183   -0.102  0.136 -0.105
 C          0.310 -0.195 -0.011    0.001 -0.008  0.002   -0.178  0.191 -0.179
 H          0.490 -0.323  0.023    0.056  0.063  0.034   -0.395  0.354 -0.221
 TransDip   0.010  0.001 -0.018    0.024  0.033  0.016    0.004  0.029 -0.072

 Mode:                 7                      8                      9
 Frequency:       446.44                 551.13                 637.83
 Force Cnst:      0.4138                 0.6611                 0.3187
 Red. Mass:       3.5237                 3.6939                 1.3295
 IR Active:          YES                    YES                    YES
 IR Intens:       11.421                  0.493                 60.286
 Raman Active:       YES                    YES                    YES
               X      Y      Z        X      Y      Z        X      Y      Z
 C         -0.075  0.095 -0.112   -0.061 -0.092 -0.039    0.005 -0.009  0.013
 C         -0.163  0.077  0.077   -0.141 -0.008  0.072    0.048  0.010 -0.091
 C         -0.159  0.074  0.071    0.085 -0.080 -0.112    0.046  0.008 -0.092
 C          0.206 -0.127 -0.021   -0.024 -0.037 -0.016   -0.037  0.028 -0.011
 C          0.144 -0.099  0.012   -0.107 -0.161 -0.066   -0.023  0.012  0.008
 N          0.127 -0.076 -0.018    0.171  0.263  0.113   -0.018 -0.013  0.058
 H         -0.118  0.112 -0.080   -0.113 -0.171 -0.075   -0.052  0.012  0.053
 H         -0.290  0.032  0.449   -0.267  0.129  0.226   -0.097 -0.272  0.628
 H         -0.302 -0.011  0.421    0.317 -0.071 -0.213   -0.048 -0.199  0.663
 H          0.215 -0.168  0.066    0.342  0.513  0.214   -0.036  0.036 -0.021
 H          0.128 -0.079 -0.004   -0.043 -0.062 -0.024   -0.045  0.034 -0.004
 C         -0.052  0.063 -0.070    0.032  0.049  0.020    0.004  0.000 -0.005
 H         -0.210  0.179 -0.100   -0.045 -0.063 -0.027    0.017 -0.014 -0.004
 TransDip  -0.059  0.002  0.091   -0.012 -0.017 -0.008   -0.105 -0.030  0.224

 Mode:                10                     11                     12
 Frequency:       646.99                 743.73                 769.31
 Force Cnst:      0.3262                 0.5085                 1.9397
 Red. Mass:       1.3225                 1.5604                 5.5626
 IR Active:          YES                    YES                    YES
 IR Intens:       41.584                 12.974                 16.040
 Raman Active:       YES                    YES                    YES
               X      Y      Z        X      Y      Z        X      Y      Z
 C         -0.000 -0.001 -0.000   -0.034 -0.050 -0.024   -0.018  0.065 -0.109
 C         -0.010 -0.001  0.004    0.106 -0.003  0.020    0.086 -0.067 -0.024
 C          0.005 -0.006 -0.008   -0.040  0.095  0.022    0.105 -0.052 -0.014
 C          0.036  0.055  0.023   -0.070 -0.117 -0.047    0.295 -0.185  0.009
 C         -0.007 -0.010 -0.004   -0.007 -0.005  0.004   -0.235  0.017  0.330
 N          0.010  0.016  0.007   -0.022 -0.026 -0.015   -0.178  0.154 -0.084
 H         -0.010 -0.015 -0.007   -0.048 -0.075 -0.036    0.162 -0.005 -0.214
 H         -0.019  0.007  0.015    0.180 -0.136 -0.009    0.162 -0.217 -0.027
 H          0.019 -0.007 -0.009   -0.189  0.114 -0.001    0.273 -0.083  0.038
 H          0.028  0.043  0.018    0.372  0.551  0.226    0.209 -0.097 -0.261
 H         -0.020 -0.030 -0.012    0.285  0.438  0.192   -0.268 -0.004  0.311
 C         -0.079 -0.119 -0.049    0.013  0.022  0.007   -0.055  0.064 -0.072
 H          0.516  0.773  0.319    0.097  0.156  0.061   -0.203  0.161 -0.105
 TransDip   0.108  0.163  0.067    0.062  0.089  0.041    0.066 -0.081  0.074

 Mode:                13                     14                     15
 Frequency:       832.87                 848.56                 889.37
 Force Cnst:      0.9424                 0.6257                 2.4484
 Red. Mass:       2.3058                 1.4749                 5.2536
 IR Active:          YES                    YES                    YES
 IR Intens:       23.777                  0.242                  0.764
 Raman Active:       YES                    YES                    YES
               X      Y      Z        X      Y      Z        X      Y      Z
 C          0.109  0.161  0.070   -0.012 -0.017 -0.007    0.062  0.046 -0.202
 C         -0.147  0.003 -0.054   -0.013 -0.045  0.137   -0.003 -0.015  0.043
 C          0.049 -0.149 -0.010    0.018  0.053 -0.133   -0.005 -0.016  0.041
 C         -0.063 -0.096 -0.040    0.007  0.010  0.004   -0.222  0.207 -0.145
 C          0.029  0.046  0.021   -0.004 -0.006 -0.003    0.008 -0.151  0.354
 N         -0.042 -0.062 -0.027    0.003  0.004  0.002    0.108 -0.116  0.102
 H          0.270  0.399  0.176   -0.002 -0.003 -0.001   -0.032  0.079 -0.141
 H         -0.229  0.262 -0.165    0.164  0.216 -0.637    0.020  0.055 -0.103
 H          0.262 -0.222  0.183   -0.121 -0.160  0.660   -0.000  0.028 -0.114
 H          0.268  0.402  0.166   -0.026 -0.039 -0.016   -0.251  0.321 -0.357
 H          0.110  0.169  0.073   -0.001 -0.002 -0.001    0.079 -0.241  0.407
 C          0.009  0.014  0.006   -0.000 -0.001 -0.000    0.042  0.043 -0.169
 H          0.061  0.095  0.038   -0.006 -0.010 -0.004    0.103  0.001 -0.174
 TransDip   0.082  0.122  0.052    0.008  0.012  0.005   -0.001 -0.010  0.026

 Mode:                16                     17                     18
 Frequency:       941.54                 962.14                1012.80
 Force Cnst:      0.6127                 0.7659                 0.9339
 Red. Mass:       1.1731                 1.4043                 1.5453
 IR Active:          YES                    YES                    YES
 IR Intens:        2.996                  1.581                 30.869
 Raman Active:       YES                    YES                    YES
               X      Y      Z        X      Y      Z        X      Y      Z
 C         -0.060  0.058 -0.044    0.009  0.012  0.003   -0.035 -0.054 -0.025
 C         -0.028 -0.003  0.016    0.001 -0.002 -0.019    0.116 -0.089 -0.022
 C         -0.017  0.017  0.025   -0.009 -0.010  0.015   -0.132  0.065  0.011
 C         -0.009  0.005  0.003    0.048  0.075  0.031   -0.004 -0.006 -0.002
 C          0.024  0.000 -0.038   -0.084 -0.127 -0.052    0.008  0.014  0.005
 N          0.010 -0.019  0.030    0.004  0.005  0.003    0.005  0.009  0.005
 H         -0.120  0.086 -0.004    0.140  0.210  0.092    0.188  0.276  0.121
 H          0.319 -0.593 -0.158   -0.040  0.071 -0.005   -0.261  0.565  0.126
 H          0.686 -0.052  0.077    0.074 -0.020  0.025    0.616 -0.029  0.106
 H         -0.001 -0.017  0.045   -0.179 -0.266 -0.114    0.021  0.031  0.014
 H          0.007  0.017 -0.050    0.450  0.686  0.291   -0.088 -0.129 -0.057
 C          0.003 -0.006  0.009   -0.004 -0.007 -0.003   -0.000 -0.000  0.001
 H          0.014 -0.013  0.012   -0.034 -0.051 -0.021    0.004  0.007  0.003
 TransDip  -0.031  0.034 -0.031    0.020  0.032  0.013    0.092  0.141  0.059

 Mode:                19                     20                     21
 Frequency:      1033.31                1056.62                1150.31
 Force Cnst:      2.8013                 0.8926                 4.0441
 Red. Mass:       4.4529                 1.3570                 5.1874
 IR Active:          YES                    YES                    YES
 IR Intens:       58.298                  1.411                  3.113
 Raman Active:       YES                    YES                    YES
               X      Y      Z        X      Y      Z        X      Y      Z
 C         -0.114 -0.071  0.347   -0.080 -0.118 -0.049    0.409 -0.273 -0.011
 C         -0.035  0.026 -0.034   -0.017  0.060 -0.013   -0.167  0.193 -0.002
 C         -0.031  0.043 -0.028    0.052 -0.009  0.035   -0.230  0.098 -0.043
 C         -0.037  0.042 -0.038   -0.002 -0.002 -0.002    0.028 -0.018 -0.000
 C          0.062 -0.098  0.133    0.007  0.009  0.005   -0.034  0.005  0.043
 N          0.079  0.079 -0.307    0.015  0.022  0.007   -0.053  0.032  0.006
 H         -0.085 -0.097  0.310    0.472  0.700  0.314    0.472 -0.290 -0.059
 H          0.064 -0.249  0.040    0.134 -0.196 -0.084    0.102 -0.364 -0.060
 H          0.254 -0.025  0.142   -0.253  0.024  0.009    0.357  0.024  0.110
 H         -0.051  0.070 -0.101    0.015  0.023  0.009    0.009  0.036 -0.106
 H          0.392 -0.392  0.327   -0.082 -0.134 -0.053   -0.086  0.039  0.029
 C          0.013  0.022 -0.075   -0.001 -0.001 -0.001   -0.013  0.003  0.014
 H          0.013  0.024 -0.083    0.005  0.010  0.003   -0.033  0.016  0.013
 TransDip   0.041 -0.116  0.211    0.019  0.029  0.015   -0.042  0.033 -0.017

 Mode:                22                     23                     24
 Frequency:      1275.40                1368.28                1427.20
 Force Cnst:      1.0931                 1.2761                 1.4706
 Red. Mass:       1.1406                 1.1569                 1.2254
 IR Active:          YES                    YES                    YES
 IR Intens:       22.895                 32.080                  4.248
 Raman Active:       YES                    YES                    YES
               X      Y      Z        X      Y      Z        X      Y      Z
 C          0.013 -0.005 -0.008   -0.078  0.035  0.041    0.023 -0.002 -0.030
 C          0.001  0.003  0.000   -0.016 -0.010 -0.023    0.007  0.004  0.005
 C         -0.001 -0.002 -0.002    0.009  0.027 -0.007   -0.002 -0.009 -0.001
 C         -0.025  0.031 -0.035   -0.010  0.005  0.005    0.011 -0.016  0.023
 C          0.002 -0.018  0.041    0.008 -0.001 -0.011   -0.026  0.044 -0.063
 N         -0.032  0.024 -0.007    0.006 -0.021  0.038   -0.064  0.017  0.059
 H         -0.000  0.002 -0.003    0.795 -0.322 -0.482   -0.097  0.048  0.037
 H          0.001  0.004  0.002   -0.018 -0.034 -0.006    0.005  0.016  0.004
 H         -0.004 -0.002 -0.001    0.022  0.025  0.019   -0.012 -0.009 -0.007
 H          0.102 -0.436  0.880   -0.006 -0.008  0.030    0.019 -0.033  0.049
 H         -0.068  0.041  0.009    0.092 -0.072  0.034    0.688 -0.602  0.356
 C          0.041 -0.003 -0.058    0.006  0.001 -0.013    0.010  0.008 -0.035
 H          0.058 -0.012 -0.065   -0.004  0.010 -0.018    0.011  0.011 -0.045
 TransDip   0.094 -0.094  0.076   -0.138  0.111 -0.040   -0.030  0.038 -0.045

 Mode:                25                     26                     27
 Frequency:      1621.13                1700.47                1748.39
 Force Cnst:     11.2728                12.2711                 9.4266
 Red. Mass:       7.2802                 7.2027                 5.2340
 IR Active:          YES                    YES                    YES
 IR Intens:       18.370                  5.577                 74.295
 Raman Active:       YES                    YES                    YES
               X      Y      Z        X      Y      Z        X      Y      Z
 C          0.017 -0.021  0.020   -0.014  0.021 -0.027    0.085 -0.048 -0.021
 C         -0.026 -0.007 -0.003    0.067  0.064  0.028   -0.226 -0.326 -0.148
 C         -0.005  0.024  0.011   -0.033 -0.083 -0.037    0.220  0.332  0.144
 C         -0.101 -0.127  0.467   -0.099 -0.052  0.282   -0.011 -0.005  0.029
 C         -0.237  0.171 -0.037    0.401 -0.259 -0.012    0.066 -0.043 -0.002
 N          0.218 -0.126 -0.041   -0.327  0.196  0.046   -0.074  0.043  0.014
 H         -0.066  0.014  0.073    0.029  0.008 -0.063   -0.120  0.025  0.127
 H         -0.015 -0.036 -0.022    0.101  0.065  0.050   -0.488 -0.168 -0.156
 H          0.031  0.032  0.008   -0.027 -0.123 -0.033   -0.023  0.518  0.148
 H         -0.148  0.067  0.077   -0.162  0.231 -0.294   -0.019  0.030 -0.041
 H         -0.235  0.169 -0.039   -0.113  0.207 -0.312    0.007  0.010 -0.035
 C          0.121  0.075 -0.375    0.066  0.043 -0.207    0.006  0.004 -0.020
 H          0.159  0.111 -0.521    0.090  0.066 -0.304    0.009  0.006 -0.030
 TransDip  -0.080  0.083 -0.075    0.054 -0.046  0.027    0.234 -0.143 -0.029

 Mode:                28                     29                     30
 Frequency:      2993.11                3042.47                3090.70
 Force Cnst:      5.7026                 5.9024                 6.1240
 Red. Mass:       1.0804                 1.0822                 1.0881
 IR Active:          YES                    YES                    YES
 IR Intens:       25.653                 57.324                 50.659
 Raman Active:       YES                    YES                    YES
               X      Y      Z        X      Y      Z        X      Y      Z
 C          0.000 -0.001  0.001   -0.021  0.044 -0.066   -0.001 -0.000  0.002
 C         -0.000 -0.000 -0.000    0.000  0.001  0.001    0.000 -0.000 -0.000
 C          0.000  0.000  0.000   -0.001 -0.001 -0.000    0.000  0.000  0.000
 C         -0.068  0.035  0.026   -0.001  0.000  0.000    0.008 -0.004 -0.002
 C          0.003  0.000 -0.006    0.001  0.000 -0.002    0.044  0.002 -0.073
 N          0.001 -0.000 -0.001   -0.001  0.001 -0.001    0.000 -0.000  0.000
 H         -0.003  0.008 -0.013    0.264 -0.533  0.799   -0.006  0.012 -0.019
 H         -0.000  0.000 -0.000    0.010  0.004  0.000    0.000  0.000  0.000
 H         -0.000  0.000 -0.000    0.001 -0.009 -0.005   -0.000 -0.000 -0.000
 H          0.835 -0.418 -0.330    0.011 -0.007 -0.002   -0.089  0.046  0.030
 H         -0.057 -0.000  0.090   -0.011 -0.002  0.022   -0.514 -0.020  0.846
 C         -0.000  0.000  0.000    0.000 -0.000  0.000   -0.000  0.000  0.000
 H         -0.005  0.003  0.001   -0.003  0.004 -0.007    0.001  0.000 -0.002
 TransDip  -0.135  0.063  0.064   -0.092  0.140 -0.176    0.128 -0.005 -0.189

 Mode:                31                     32                     33
 Frequency:      3257.51                3304.80                3446.63
 Force Cnst:      6.7796                 7.3926                 7.8233
 Red. Mass:       1.0844                 1.1488                 1.1178
 IR Active:          YES                    YES                    YES
 IR Intens:        0.483                  0.099                 46.209
 Raman Active:       YES                    YES                    YES
               X      Y      Z        X      Y      Z        X      Y      Z
 C         -0.000 -0.000 -0.000   -0.005  0.004 -0.000    0.000  0.000 -0.001
 C         -0.050 -0.025 -0.020    0.064  0.039  0.027    0.000  0.000  0.000
 C         -0.005 -0.057 -0.016   -0.014 -0.075 -0.023   -0.000 -0.000 -0.000
 C         -0.000 -0.000 -0.000   -0.000  0.000 -0.000   -0.004 -0.003  0.014
 C         -0.000 -0.000 -0.000    0.000  0.000 -0.000    0.001 -0.001  0.000
 N          0.000  0.000  0.000    0.000 -0.000 -0.000   -0.000  0.000  0.000
 H          0.001  0.002  0.001    0.001 -0.004  0.007    0.001 -0.003  0.005
 H          0.597  0.289  0.235   -0.599 -0.285 -0.234    0.000 -0.000  0.000
 H          0.058  0.676  0.192    0.054  0.673  0.190    0.000 -0.000  0.000
 H          0.000  0.000  0.000    0.000 -0.000 -0.000   -0.006  0.002  0.005
 H          0.000  0.000  0.000   -0.000  0.000  0.001   -0.002  0.001  0.001
 C          0.000  0.000  0.000   -0.000  0.000 -0.000    0.030  0.018 -0.093
 H         -0.000 -0.000 -0.000   -0.000 -0.000  0.000   -0.303 -0.182  0.930
 TransDip   0.012  0.017  0.008   -0.007  0.006 -0.003   -0.028 -0.066  0.206

 STANDARD THERMODYNAMIC QUANTITIES AT   298.15 K  AND     1.00 ATM

   This Molecule has  1 Imaginary Frequencies
   Zero point vibrational energy:       59.654 kcal/mol

   Atom    1 Element C  Has Mass   12.00000
   Atom    2 Element C  Has Mass   12.00000
   Atom    3 Element C  Has Mass   12.00000
   Atom    4 Element C  Has Mass   12.00000
   Atom    5 Element C  Has Mass   12.00000
   Atom    6 Element N  Has Mass   14.00307
   Atom    7 Element H  Has Mass    1.00783
   Atom    8 Element H  Has Mass    1.00783
   Atom    9 Element H  Has Mass    1.00783
   Atom   10 Element H  Has Mass    1.00783
   Atom   11 Element H  Has Mass    1.00783
   Atom   12 Element C  Has Mass   12.00000
   Atom   13 Element H  Has Mass    1.00783
   Molecular Mass:    92.050050 amu
   Principal axes and moments of inertia in amu*Bohr^2:
                             1           2           3
    Eigenvalues --      276.50734  1055.81580  1224.35546
          X               0.82513    -0.21737     0.52146
          Y              -0.56322    -0.24423     0.78939
          Z               0.04423     0.94504     0.32394
   Rotational Symmetry Number is   1
   The Molecule is an Asymmetric Top
   Translational Enthalpy:        0.889 kcal/mol
   Rotational Enthalpy:           0.889 kcal/mol
   Vibrational Enthalpy:         62.403 kcal/mol
   gas constant (RT):             0.592 kcal/mol
   Translational Entropy:        39.471  cal/mol.K
   Rotational Entropy:           27.371  cal/mol.K
   Vibrational Entropy:          18.411  cal/mol.K

   Total Enthalpy:               64.773 kcal/mol
   Total Entropy:                85.253  cal/mol.K
Archival summary:
1\1\c8-66\FREQ\ProcedureUnspecified\6-31+G**\166(2)\hpark21\WedMar214:10:402022WedMar214:10:402022\0\\#,FREQ,ProcedureUnspecified,6-31+G**,\\0,2\N\C,1,1.2775\H,2,1.0947,1,115.664\C,1,1.42597,2,122.049,3,-179.892,0\H,4,1.09543,1,116.259,2,0.993639,0\C,2,1.4975,1,131.903,3,-179.964,0\H,6,1.10088,2,111.294,1,-179.569,0\C,6,1.30852,2,129.725,1,0.500635,0\H,8,1.06757,6,179.351,2,9.55277,0\C,4,1.51005,1,117.87,2,-150.106,0\H,10,1.07975,4,144.09,1,72.6472,0\C,10,1.29194,4,64.68,1,-104.43,0\H,12,1.07973,10,151.13,4,176.578,0\\\@

 Total job time:  531.78s(wall), 490.32s(cpu) 
 Wed Mar  2 14:10:40 2022

        *************************************************************
        *                                                           *
        *  Thank you very much for using Q-Chem.  Have a nice day.  *
        *                                                           *
        *************************************************************


