
Running Job 1 of 1 qcts1.in
qchem qcts1.in_24666.0 ./qcts1.d/ 1
/home/leeping/opt/qchem/5.0.2-openmp/exe/qcprog.exe_s qcts1.in_24666.0 ./qcts1.d/
Check license passed

                  Welcome to Q-Chem
     A Quantum Leap Into The Future Of Chemistry


 Q-Chem 5.0, Q-Chem, Inc., Pleasanton, CA (2017)

 Yihan Shao,  Zhengting Gan,  E. Epifanovsky,  A. T. B. Gilbert,  M. Wormit,  
 J. Kussmann,  A. W. Lange,  A. Behn,  Jia Deng,  Xintian Feng,  D. Ghosh,  
 M. Goldey,  P. R. Horn,  L. D. Jacobson,  I. Kaliman,  T. Kus,  A. Landau,  
 Jie Liu,  E. I. Proynov,  R. M. Richard,  R. P. Steele,  E. J. Sundstrom,  
 H. L. Woodcock III,  P. M. Zimmerman,  D. Zuev,  B. Albrecht,  E. Alguire,  
 S. A. Baeppler,  D. Barton,  Z. Benda,  Y. A. Bernard,  E. J. Berquist,  
 K. B. Bravaya,  H. Burton,  D. Casanova,  Chun-Min Chang,  Yunqing Chen,  
 A. Chien,  K. D. Closser,  M. P. Coons,  S. Dasgupta,  A. L. Dempwolff,  
 M. Diedenhofen,  Hainam Do,  R. G. Edgar,  Po-Tung Fang,  S. Fatehi,  
 Qingguo Feng,  J. Fosso-Tande,  Qinghui Ge,  A. Ghysels,  G. Gidofalvi,  
 J. Gomes,  J. Gonthier,  A. Gunina,  M. W. D. Hanson-Heine,  
 P. H. P. Harbach,  A. W. Hauser,  J. E. Herr,  E. G. Hohenstein,  
 Z. C. Holden,  Kerwin Hui,  T.-C. Jagau,  Hyunjun Ji,  B. Kaduk,  
 K. Khistyaev,  Jaehoon Kim,  P. Klunzinger,  K. Koh,  D. Kosenkov,  
 L. Koulias,  T. Kowalczyk,  C. M. Krauter,  A. Kunitsa,  Ka Un Lao,  
 A. Laurent,  K. V. Lawler,  Joonho Lee,  D. Lefrancois,  S. Lehtola,  
 D. S. Levine,  Yi-Pei Li,  You-Sheng Lin,  Fenglai Liu,  E. Livshits,  
 A. Luenser,  P. Manohar,  E. Mansoor,  S. F. Manzer,  Shan-Ping Mao,  
 Yuezhi Mao,  N. Mardirossian,  A. V. Marenich,  T. Markovich,  
 L. A. Martinez-Martinez,  S. A. Maurer,  N. J. Mayhall,  S. C. McKenzie,  
 J.-M. Mewes,  A. F. Morrison,  J. W. Mullinax,  K. Nanda,  
 T. S. Nguyen-Beck,  R. Olivares-Amaya,  J. A. Parkhill,  T. M. Perrine,  
 F. Plasser,  S. Prager,  A. Prociuk,  E. Ramos,  D. R. Rehn,  F. Rob,  
 M. Schneider,  N. Sergueev,  S. M. Sharada,  S. Sharma,  D. W. Small,  
 T. Stauch,  T. Stein,  Yu-Chuan Su,  A. J. W. Thom,  A. Tkatchenko,  
 T. Tsuchimochi,  L. Vogt,  O. Vydrov,  M. A. Watson,  J. Wenzel,  
 M. de Wergifosse,  T. A. Wesolowski,  A. White,  J. Witte,  A. Yamada,  
 Jun Yang,  K. Yao,  S. Yeganeh,  S. R. Yost,  Zhi-Qiang You,  A. Zech,  
 Igor Ying Zhang,  Xing Zhang,  Yan Zhao,  Ying Zhu,  B. R. Brooks,  
 G. K. L. Chan,  C. J. Cramer,  M. S. Gordon,  W. J. Hehre,  A. Klamt,  
 M. W. Schmidt,  C. D. Sherrill,  D. G. Truhlar,  A. Aspuru-Guzik,  R. Baer,  
 A. T. Bell,  N. A. Besley,  Jeng-Da Chai,  R. A. DiStasio Jr.,  A. Dreuw,  
 B. D. Dunietz,  T. R. Furlani,  Chao-Ping Hsu,  Yousung Jung,  Jing Kong,  
 D. S. Lambrecht,  WanZhen Liang,  C. Ochsenfeld,  V. A. Rassolov,  
 L. V. Slipchenko,  J. E. Subotnik,  T. Van Voorhis,  J. M. Herbert,  
 A. I. Krylov,  P. M. W. Gill,  M. Head-Gordon

 Contributors to earlier versions of Q-Chem not listed above: 
 R. D. Adamson,  B. Austin,  J. Baker,  G. J. O. Beran,  K. Brandhorst,  
 S. T. Brown,  E. F. C. Byrd,  A. K. Chakraborty,  C.-L. Cheng,  
 Siu Hung Chien,  D. M. Chipman,  D. L. Crittenden,  H. Dachsel,  
 R. J. Doerksen,  A. D. Dutoi,  L. Fusti-Molnar,  W. A. Goddard III,  
 A. Golubeva-Zadorozhnaya,  S. R. Gwaltney,  G. Hawkins,  A. Heyden,  
 S. Hirata,  G. Kedziora,  F. J. Keil,  C. Kelley,  Jihan Kim,  R. A. King,  
 R. Z. Khaliullin,  P. P. Korambath,  W. Kurlancheek,  A. M. Lee,  M. S. Lee,  
 S. V. Levchenko,  Ching Yeh Lin,  D. Liotard,  R. C. Lochan,  I. Lotan,  
 P. E. Maslen,  N. Nair,  D. P. O'Neill,  D. Neuhauser,  E. Neuscamman,  
 C. M. Oana,  R. Olson,  B. Peters,  R. Peverati,  P. A. Pieniazek,  
 Y. M. Rhee,  J. Ritchie,  M. A. Rohrdanz,  E. Rosta,  N. J. Russ,  
 H. F. Schaefer III,  N. E. Schultz,  N. Shenvi,  A. C. Simmonett,  A. Sodt,  
 D. Stuck,  K. S. Thanthiriwatte,  V. Vanovschi,  Tao Wang,  A. Warshel,  
 C. F. Williams,  Q. Wu,  X. Xu,  W. Zhang

 Please cite Q-Chem as follows:
 Y. Shao et al., Mol. Phys. 113, 184-215 (2015)
 DOI: 10.1080/00268976.2014.952696

 Q-Chem 5.0.2 for Intel X86 EM64T Linux

 Parts of Q-Chem use Armadillo 5.200.1 (Boston Tea Smuggler).
 http://arma.sourceforge.net/

 Q-Chem begins on Wed Mar  2 13:28:47 2022  

Host: 
0

     Scratch files written to ./qcts1.d//
 Dec517 15110_ 26548  26544 5633   
Processing $rem in /home/leeping/opt/qchem/5.0.2-openmp/config/preferences.
 MEM_STATIC 2000
 MEM_TOTAL  8000
 SYMMETRY   OFF
 SYM_IGNORE TRUE 

Checking the input file for inconsistencies... 	...done.

--------------------------------------------------------------
User input:
--------------------------------------------------------------
$molecule
0 2
C        0.4626089712   -0.7358276611   -0.1898015025
C        1.9138763224   -0.5068117572   -0.1542609568
C        1.9059120474   -1.7981251474   -0.1467010573
C       -1.6526157571    1.2960540915    0.0835327819
C       -1.2458117703    0.2537268177    1.0877487062
N       -0.2972473702   -0.6070944013    0.9895285086
H       -0.0524924453   -1.0880450298   -1.0858417219
H        2.5595235709    0.3409121928    0.0737927350
H        2.0424273248   -2.8418838773   -0.3388872675
H       -2.5751091271    1.8320024174    0.3147596440
H       -1.8025865445    0.2592810144    2.0322031526
C       -0.9207312344    1.5882413816   -0.9692106382
H       -0.4013800593    1.9539787650   -1.8278659926
$end

$rem
method                b3lyp
basis                 6-31g(d)
unrestricted          true
symmetry              off
sym_ignore            true
incdft                false
incfock               0
scf_convergence       8
thresh                14
jobtype               sp
scf_guess             core
scf_guess_mix         5
scf_algorithm         diis
max_scf_cycles        100
$end

--------------------------------------------------------------
 ----------------------------------------------------------------
             Standard Nuclear Orientation (Angstroms)
    I     Atom           X                Y                Z
 ----------------------------------------------------------------
    1      C       0.4626089712    -0.7358276611    -0.1898015025
    2      C       1.9138763224    -0.5068117572    -0.1542609568
    3      C       1.9059120474    -1.7981251474    -0.1467010573
    4      C      -1.6526157571     1.2960540915     0.0835327819
    5      C      -1.2458117703     0.2537268177     1.0877487062
    6      N      -0.2972473702    -0.6070944013     0.9895285086
    7      H      -0.0524924453    -1.0880450298    -1.0858417219
    8      H       2.5595235709     0.3409121928     0.0737927350
    9      H       2.0424273248    -2.8418838773    -0.3388872675
   10      H      -2.5751091271     1.8320024174     0.3147596440
   11      H      -1.8025865445     0.2592810144     2.0322031526
   12      C      -0.9207312344     1.5882413816    -0.9692106382
   13      H      -0.4013800593     1.9539787650    -1.8278659926
 ----------------------------------------------------------------
 Nuclear Repulsion Energy =   246.9131030955 hartrees
 There are       25 alpha and       24 beta electrons
 Requested basis set is 6-31G(d)
 There are 40 shells and 117 basis functions

 Total QAlloc Memory Limit   8000 MB
 Mega-Array Size      1956 MB
 MEM_STATIC part      2000 MB

                       Distance Matrix (Angstroms)
             C (  1)   C (  2)   C (  3)   C (  4)   C (  5)   N (  6)
   C (  2)  1.469656
   C (  3)  1.792612  1.291360
   C (  4)  2.945748  4.003341  4.721236
   C (  5)  2.351607  3.479172  3.958197  1.503458
   N (  6)  1.408820  2.491461  2.750179  2.505958  1.284692
   H (  7)  1.091913  2.252172  2.285070  3.100284  2.819372  2.144383
   H (  8)  2.371898  1.089727  2.247511  4.319087  3.939072  3.146177
   H (  9)  2.636954  2.345884  1.070049  5.563660  4.736097  3.497578
   H ( 10)  4.009497  5.083407  5.785354  1.091650  2.203519  3.404873
   H ( 11)  3.325456  4.379454  4.767967  2.212398  1.096368  2.025789
   C ( 12)  2.814677  3.617788  4.487083  1.315027  2.473396  3.007472
   H ( 13)  3.265699  3.770525  4.714679  2.377373  3.479185  3.808891
             H (  7)   H (  8)   H (  9)   H ( 10)   H ( 11)   C ( 12)
   H (  8)  3.195199
   H (  9)  2.832416  3.250828
   H ( 10)  4.105113  5.352183  6.602584
   H ( 11)  3.821037  4.782263  5.479364  2.453539
   C ( 12)  2.816017  3.841336  5.366901  2.108309  3.398866
   H ( 13)  3.150592  3.871077  5.584761  3.054639  4.442467  1.068072

 
 A cutoff of  1.0D-14 yielded    776 shell pairs
 There are      6970 function pairs
 
 -------------------------------------------------------
 OpenMP Integral Computing Module                       
 Release: version 1.0, May 2013, Q-Chem Inc. Pittsburgh 
 -------------------------------------------------------
 Integral Job Info:
 Integral job number is                      11
 Integral operator is                         1
 short-range coefficients                     0
 long-range coefficients              100000000
 Omega coefficients                           0
 if combine SR and LR in K                    0
 Integral screening is                        0
 Integral computing path is                   2
 max size of driver memory is            800000
 size of driver memory is                593474
 size of scratch memory is              2361544
 max col of scratch BK array               1296
 max len of scratch array in speh3          155
 max len of scratch index in speh4           18
 max int batch size is                      520
 min int batch size is                       52
 fixed nKL is                                52
 max L of basis functions is                  2
 order of int derivative is                   0
 number of shells is                         40
 number of basis is                         117
 number of cartesian basis is               117
 number of contracted shell pairs           776
 number of primitive shell pairs           3236
 maxK2 (contraction) of shell pair           36
 max number of K2 of shell pair               1
 max number of CS2 of shell pair             86
 max number of PS2 of shell pair            444
 mem total for path MDJ                  529068
 -------------------------------------------------------
 Smallest overlap matrix eigenvalue = 1.72E-03

 Scale SEOQF with 1.000000e-01/1.000000e-01/1.000000e-01

 Standard Electronic Orientation quadrupole field applied
 Nucleus-field energy     =     0.0000000053 hartrees
 Guess MOs from core Hamiltonian diagonalization
 Mixing HOMO and LUMO in initial guess
 Adding  50% of the LUMO to the HOMO
 An unrestricted hybrid HF-DFT SCF calculation will be
 performed using Pulay DIIS extrapolation
 Exchange:     0.2000 Hartree-Fock + 0.0800 Slater + 0.7200 B88
 Correlation:  0.1900 VWN1RPA + 0.8100 LYP
 Using SG-1 standard quadrature grid
 SCF converges when DIIS error is below 1.0E-08
 using 4 threads for integral computing
 -------------------------------------------------------
 OpenMP Integral computing Module                
 Release: version 1.0, May 2013, Q-Chem Inc. Pittsburgh 
 -------------------------------------------------------
 -------------------------------------------------------
 OpenMP BLAS3 based DFT computing Module                
 Release: version 1.0, May 2013, Q-Chem Inc. Pittsburgh 
 -------------------------------------------------------
 ---------------------------------------
  Cycle       Energy         DIIS Error
 ---------------------------------------
    1    -228.3158961442      1.36E-01
    2    -213.5984896070      1.06E-01
    3    -257.0930759644      8.28E-02
    4    -275.7578061798      7.24E-02
    5    -278.1095346039      5.08E-02
    6    -283.5069838939      3.03E-02
    7    -284.5459044606      2.79E-02
    8    -286.5745922255      8.97E-03
    9    -286.6873421882      4.33E-03
   10    -286.7192946974      1.69E-03
   11    -286.7203281162      1.43E-03
   12    -286.7244380308      6.51E-04
   13    -286.7253887891      2.15E-04
   14    -286.7255306940      8.14E-05
   15    -286.7255514731      2.89E-05
   16    -286.7255580245      6.69E-06
   17    -286.7255614900      2.66E-06
   18    -286.7255634268      1.27E-06
   19    -286.7255645711      3.96E-07
   20    -286.7255650541      1.97E-07
   21    -286.7255653574      8.53E-08
   22    -286.7255654170      2.93E-08
   23    -286.7255654204      1.37E-08
   24    -286.7255654212      4.75E-09 Convergence criterion met
 ---------------------------------------
 <S^2> = 0.7671
 SCF time:  CPU 58.56 s  wall 33.88 s
 SCF   energy in the final basis set = -286.72556542
 Total energy in the final basis set = -286.72556542
 
 --------------------------------------------------------------
 
                    Orbital Energies (a.u.)
 --------------------------------------------------------------
 
 Alpha MOs
 -- Occupied --
-14.324 -10.232 -10.229 -10.211 -10.211 -10.208 -10.204  -0.920
 -0.831  -0.771  -0.663  -0.595  -0.571  -0.536  -0.491  -0.487
 -0.459  -0.429  -0.407  -0.334  -0.293  -0.278  -0.263  -0.223
 -0.175
 -- Virtual --
 -0.044   0.009   0.063   0.090   0.110   0.121   0.133   0.144
  0.172   0.176   0.257   0.261   0.291   0.337   0.377   0.427
  0.491   0.498   0.528   0.542   0.552   0.579   0.585   0.601
  0.621   0.630   0.654   0.656   0.679   0.727   0.741   0.764
  0.794   0.826   0.831   0.862   0.869   0.882   0.895   0.950
  0.980   1.016   1.038   1.047   1.103   1.162   1.174   1.229
  1.375   1.400   1.432   1.480   1.503   1.531   1.542   1.634
  1.704   1.710   1.754   1.778   1.809   1.834   1.902   1.926
  1.965   2.035   2.056   2.125   2.193   2.264   2.290   2.333
  2.350   2.429   2.435   2.503   2.531   2.590   2.644   2.660
  2.746   2.866   2.951   2.982   3.123   3.968   4.066   4.116
  4.206   4.321   4.418   4.467
 
 Beta MOs
 -- Occupied --
-14.325 -10.230 -10.229 -10.211 -10.210 -10.203 -10.197  -0.921
 -0.830  -0.756  -0.654  -0.580  -0.568  -0.530  -0.489  -0.481
 -0.450  -0.425  -0.405  -0.333  -0.291  -0.277  -0.256  -0.193
 -- Virtual --
 -0.053  -0.035   0.011   0.068   0.095   0.122   0.123   0.138
  0.144   0.172   0.179   0.258   0.261   0.295   0.342   0.381
  0.435   0.495   0.509   0.534   0.544   0.559   0.588   0.597
  0.607   0.626   0.632   0.658   0.661   0.689   0.730   0.744
  0.771   0.805   0.828   0.834   0.864   0.872   0.885   0.896
  0.954   0.985   1.017   1.039   1.050   1.107   1.163   1.180
  1.231   1.378   1.409   1.433   1.485   1.505   1.534   1.550
  1.646   1.734   1.743   1.777   1.790   1.821   1.842   1.906
  1.943   1.979   2.037   2.060   2.128   2.195   2.265   2.293
  2.347   2.351   2.430   2.437   2.504   2.533   2.592   2.646
  2.665   2.749   2.874   2.952   2.987   3.128   3.967   4.069
  4.127   4.224   4.323   4.420   4.469
 --------------------------------------------------------------
 
          Ground-State Mulliken Net Atomic Charges

     Atom                 Charge (a.u.)    Spin (a.u.)
  --------------------------------------------------------
      1 C                    -0.046127      -0.030905
      2 C                    -0.141309      -0.006344
      3 C                    -0.142231       0.085780
      4 C                    -0.194332      -0.199827
      5 C                     0.052294       0.077276
      6 N                    -0.339358      -0.036831
      7 H                     0.163328       0.005213
      8 H                     0.138834       0.004734
      9 H                     0.181468      -0.003257
     10 H                     0.145848       0.079186
     11 H                     0.138502       0.010591
     12 C                    -0.147992       1.064780
     13 H                     0.191075      -0.050396
  --------------------------------------------------------
  Sum of atomic charges =    -0.000000
  Sum of spin   charges =     1.000000

 -----------------------------------------------------------------
                    Cartesian Multipole Moments
 -----------------------------------------------------------------
    Charge (ESU x 10^10)
                -0.0000
    Dipole Moment (Debye)
         X      -0.1450      Y       0.7230      Z      -1.4798
       Tot       1.6534
    Quadrupole Moments (Debye-Ang)
        XX     -38.2976     XY      -1.8858     YY     -37.1125
        XZ      -2.1852     YZ       1.4194     ZZ     -40.7127
    Octopole Moments (Debye-Ang^2)
       XXX      -5.8392    XXY       5.0550    XYY       7.2226
       YYY      -5.2714    XXZ       2.0892    XYZ      -0.3968
       YYZ     -11.4899    XZZ      -4.5126    YZZ       9.3635
       ZZZ     -14.4535
    Hexadecapole Moments (Debye-Ang^3)
      XXXX    -518.5753   XXXY     151.7175   XXYY    -132.7485
      XYYY     125.5674   YYYY    -339.0367   XXXZ      22.1983
      XXYZ      16.1104   XYYZ       4.6550   YYYZ      23.8931
      XXZZ    -118.9947   XYZZ      53.2035   YYZZ     -88.4814
      XZZZ      27.1505   YZZZ      17.1378   ZZZZ    -171.4088
 -----------------------------------------------------------------
Archival summary:
1\1\c8-66\SP\ProcedureUnspecified\6-31G*\166(2)\hpark21\WedMar213:29:252022WedMar213:29:252022\0\\#,ProcedureUnspecified,6-31G*,\\0,2\N\C,1,1.28469\H,2,1.09637,1,116.373\C,1,1.40882,2,121.565,3,178.11,0\H,4,1.09191,1,117.515,2,-65.6754,0\C,4,1.46966,1,119.876,2,119.348,0\H,6,1.08973,4,135.345,1,-62.537,0\C,6,1.29136,4,80.6902,1,101.031,0\H,8,1.07005,6,166.795,4,124.329,0\C,2,1.50346,1,127.826,3,177.312,0\H,10,1.09165,2,115.312,1,171.893,0\C,10,1.31503,2,122.559,1,-11.095,0\H,12,1.06807,10,172.011,2,-159.696,0\\\@

 Total job time:  37.77s(wall), 60.35s(cpu) 
 Wed Mar  2 13:29:25 2022

        *************************************************************
        *                                                           *
        *  Thank you very much for using Q-Chem.  Have a nice day.  *
        *                                                           *
        *************************************************************


