13
image # 1 Energy = -286.85058
C 0.03195   -0.53377  -0.14259  
C 1.55769   -0.49840  -0.03512  
C 2.37122   -1.32894  -0.64147  
C -1.35892  1.28813   0.10433   
C -1.34350  0.42437   1.29485   
N -0.57592  -0.60836  1.19706   
H -0.26663  -1.43232  -0.69953  
H 1.94586   0.30206   0.59695   
H 2.29832   -2.18756  -1.29770  
H -1.93653  2.19849   -0.01061  
H -1.91994  0.60833   2.20079   
C -0.52979  0.71300   -0.78545  
H -0.27381  1.05497   -1.78150  
13
image # 2 Energy = -286.84694
C 0.05082   -0.51409  -0.15431  
C 1.58461   -0.50188  -0.04171  
C 2.35956   -1.36224  -0.61683  
C -1.38208  1.26817   0.09739   
C -1.34436  0.41860   1.28970   
N -0.55101  -0.60009  1.18617   
H -0.25505  -1.38791  -0.72673  
H 2.00262   0.30411   0.57920   
H 2.26908   -2.25312  -1.25342  
H -2.01009  2.17547   0.00394   
H -1.91080  0.58939   2.19975   
C -0.54282  0.75147   -0.79733  
H -0.27475  1.09934   -1.77788  
13
image # 3 Energy = -286.84809
C 0.05568   -0.46890  -0.17393  
C 1.60202   -0.48892  -0.04272  
C 2.35982   -1.41806  -0.60253  
C -1.41198  1.25708   0.09875   
C -1.34100  0.40598   1.28394   
N -0.52767  -0.58942  1.17800   
H -0.24118  -1.34534  -0.75484  
H 2.05731   0.30623   0.55769   
H 2.23661   -2.31324  -1.20287  
H -2.08328  2.14992   0.01531   
H -1.90283  0.56935   2.19738   
C -0.53333  0.76380   -0.80067  
H -0.27793  1.14836   -1.77875  
13
image # 4 Energy = -286.84696
C 0.08970   -0.44364  -0.17913  
C 1.62193   -0.48947  -0.05433  
C 2.34290   -1.45745  -0.57641  
C -1.46032  1.27534   0.09005   
C -1.33268  0.38759   1.27663   
N -0.50669  -0.57646  1.16294   
H -0.22929  -1.30207  -0.78682  
H 2.11155   0.30585   0.53191   
H 2.20229   -2.36967  -1.14922  
H -2.13621  2.09768   0.02991   
H -1.89649  0.55108   2.19828   
C -0.54205  0.79618   -0.80456  
H -0.27866  1.19483   -1.77614  
13
image # 5 Energy = -286.84403
C 0.12551   -0.42157  -0.17909  
C 1.64241   -0.47795  -0.05880  
C 2.32422   -1.50772  -0.55479  
C -1.48049  1.26439   0.08283   
C -1.33828  0.38816   1.26689   
N -0.47433  -0.57741  1.14656   
H -0.21779  -1.25842  -0.82165  
H 2.16473   0.30358   0.50143   
H 2.16624   -2.42160  -1.09110  
H -2.20098  2.05761   0.04241   
H -1.88735  0.53053   2.19553   
C -0.56872  0.83877   -0.79919  
H -0.27405  1.24348   -1.78053  
13
image # 6 Energy = -286.84230
C 0.14824   -0.38759  -0.18912  
C 1.67259   -0.48009  -0.07809  
C 2.29971   -1.54130  -0.51625  
C -1.49952  1.24435   0.09476   
C -1.33359  0.37557   1.25032   
N -0.45240  -0.56173  1.13054   
H -0.19830  -1.20567  -0.85393  
H 2.21822   0.30055   0.46123   
H 2.11880   -2.48083  -1.02700  
H -2.27494  2.01631   0.05187   
H -1.87979  0.50465   2.19270   
C -0.56674  0.88173   -0.80919  
H -0.27669  1.29045   -1.77066  
13
image # 7 Energy = -286.83874
C 0.16852   -0.36177  -0.21541  
C 1.69991   -0.47016  -0.10085  
C 2.27224   -1.58811  -0.47465  
C -1.51941  1.23845   0.08731   
C -1.33174  0.35256   1.26052   
N -0.42990  -0.54700  1.11703   
H -0.17586  -1.13844  -0.88125  
H 2.27088   0.30179   0.41485   
H 2.06551   -2.53588  -0.95746  
H -2.33573  1.96375   0.05792   
H -1.86987  0.47263   2.17782   
C -0.56653  0.92666   -0.79900  
H -0.27946  1.33727   -1.76299  
13
image # 8 Energy = -286.83268
C 0.20138   -0.34025  -0.21064  
C 1.72121   -0.46102  -0.11694  
C 2.23377   -1.62596  -0.43733  
C -1.54388  1.23110   0.09539   
C -1.32276  0.34413   1.24032   
N -0.40249  -0.55511  1.10802   
H -0.16829  -1.08946  -0.91988  
H 2.32027   0.31082   0.37802   
H 2.02278   -2.57897  -0.90127  
H -2.38290  1.92224   0.06455   
H -1.86670  0.44716   2.17823   
C -0.57858  0.97109   -0.80737  
H -0.27181  1.37198   -1.76211  
13
image # 9 Energy = -286.82198
C 0.23127   -0.32912  -0.20821  
C 1.74538   -0.44960  -0.12616  
C 2.18567   -1.65340  -0.39913  
C -1.55420  1.22202   0.09587   
C -1.30725  0.32128   1.23018   
N -0.38693  -0.55382  1.09783   
H -0.16301  -1.03465  -0.95634  
H 2.36633   0.32056   0.33659   
H 1.98190   -2.61688  -0.84643  
H -2.42718  1.88501   0.07443   
H -1.85958  0.41979   2.17147   
C -0.60098  1.01256   -0.81035  
H -0.25561  1.40054   -1.76532  
13
image # 10 Energy = -286.81946
C 0.24481   -0.28140  -0.23332  
C 1.76559   -0.44187  -0.15002  
C 2.13151   -1.68084  -0.34078  
C -1.56853  1.21372   0.10588   
C -1.31318  0.30243   1.23087   
N -0.34685  -0.56265  1.07294   
H -0.14967  -0.94800  -0.99422  
H 2.41993   0.33649   0.25858   
H 1.91078   -2.65981  -0.75445  
H -2.46905  1.82581   0.08207   
H -1.85315  0.36371   2.15535   
C -0.57564  1.04227   -0.80320  
H -0.24651  1.43139   -1.74932  
13
image # 11 Energy = -286.78900
C 0.25253   -0.33864  -0.19489  
C 1.77832   -0.42540  -0.13410  
C 2.05588   -1.68500  -0.32049  
C -1.57495  1.21152   0.09945   
C -1.28926  0.27886   1.21746   
N -0.35942  -0.60063  1.07967   
H -0.17366  -0.91860  -1.02566  
H 2.44703   0.38097   0.25809   
H 1.92159   -2.64472  -0.75796  
H -2.47021  1.83642   0.12578   
H -1.83593  0.36218   2.14731   
C -0.62369  1.08527   -0.83737  
H -0.18390  1.39357   -1.79264  
13
image # 12 Energy = -286.75228
C 0.27850   -0.39706  -0.17824  
C 1.78970   -0.40952  -0.11610  
C 1.97932   -1.67796  -0.30618  
C -1.57549  1.21221   0.09016   
C -1.27921  0.26810   1.20361   
N -0.36034  -0.61792  1.07774   
H -0.18574  -0.87928  -1.04844  
H 2.46351   0.40028   0.24300   
H 1.94155   -2.65116  -0.74546  
H -2.47830  1.83023   0.16770   
H -1.82535  0.35650   2.14313   
C -0.67093  1.13190   -0.87827  
H -0.13573  1.36911   -1.79465  
13
image # 13 Energy = -286.77631
C 0.31152   -0.40284  -0.18584  
C 1.80284   -0.40341  -0.14134  
C 1.90078   -1.67961  -0.30544  
C -1.56324  1.20543   0.09180   
C -1.28976  0.25566   1.19668   
N -0.32631  -0.58067  1.05365   
H -0.15401  -0.82156  -1.06732  
H 2.48335   0.41028   0.15485   
H 1.90008   -2.68517  -0.62676  
H -2.48157  1.78572   0.16880   
H -1.85786  0.28319   2.13740   
C -0.62444  1.15253   -0.84872  
H -0.16332  1.41943   -1.76645  
13
image # 14 Energy = -286.72598
C 0.34426   -0.49288  -0.15186  
C 1.82285   -0.39576  -0.12609  
C 1.89494   -1.66698  -0.33049  
C -1.57764  1.20732   0.08800   
C -1.28987  0.27000   1.20792   
N -0.33469  -0.57691  1.08144   
H -0.15874  -0.86915  -1.06024  
H 2.48996   0.41038   0.22220   
H 1.91949   -2.67246  -0.69326  
H -2.48540  1.81847   0.15834   
H -1.86041  0.32506   2.14944   
C -0.67161  1.15795   -0.87716  
H -0.15495  1.42425   -1.80686  
13
image # 15 Energy = -286.71466
C 0.38046   -0.59857  -0.13441  
C 1.83385   -0.38142  -0.11154  
C 1.83210   -1.65703  -0.32373  
C -1.57834  1.20993   0.08785   
C -1.27574  0.26224   1.20175   
N -0.33719  -0.60060  1.08297   
H -0.17219  -0.83700  -1.05280  
H 2.48715   0.42005   0.23331   
H 1.95229   -2.64915  -0.70436  
H -2.47569  1.81404   0.16839   
H -1.84320  0.34533   2.14272   
C -0.75014  1.23993   -0.93508  
H -0.11700  1.37868   -1.78607  
13
image # 16 Energy = -286.72790
C 0.39639   -0.67227  -0.12757  
C 1.84555   -0.38374  -0.08845  
C 1.78593   -1.65810  -0.30499  
C -1.57649  1.20725   0.08513   
C -1.24998  0.26424   1.18006   
N -0.35129  -0.64808  1.10058   
H -0.19250  -0.79220  -1.04109  
H 2.48854   0.41418   0.25470   
H 2.01192   -2.62639  -0.72937  
H -2.49132  1.81306   0.18867   
H -1.79708  0.38283   2.11971   
C -0.85401  1.32440   -1.00786  
H -0.07930  1.33116   -1.74571  
13
image # 17 Energy = -286.74797
C 0.40563   -0.77526  -0.11603  
C 1.85369   -0.38190  -0.06251  
C 1.71250   -1.64408  -0.29795  
C -1.56926  1.21393   0.06835   
C -1.22283  0.25288   1.15364   
N -0.35224  -0.69050  1.10676   
H -0.19717  -0.74466  -1.01819  
H 2.48365   0.42854   0.25285   
H 2.05401   -2.58964  -0.71805  
H -2.47938  1.81436   0.21181   
H -1.76927  0.39547   2.09777   
C -0.91087  1.40195   -1.05433  
H -0.06875  1.28750   -1.72114  
13
image # 18 Energy = -286.74730
C 0.43565   -0.74310  -0.12234  
C 1.89026   -0.41754  -0.06626  
C 1.72936   -1.68413  -0.29411  
C -1.61862  1.21222   0.05747   
C -1.21927  0.27654   1.15283   
N -0.32067  -0.63740  1.10090   
H -0.15795  -0.72193  -1.03220  
H 2.56429   0.36762   0.26276   
H 2.03232   -2.64243  -0.68326  
H -2.55871  1.76137   0.20293   
H -1.76108  0.40748   2.09958   
C -0.97434  1.41372   -1.06855  
H -0.09766  1.38591   -1.69088  
13
image # 19 Energy = -286.75301
C 0.46490   -0.74874  -0.13059  
C 1.92935   -0.43622  -0.06059  
C 1.70587   -1.69463  -0.27945  
C -1.64706  1.20432   0.05116   
C -1.21143  0.28773   1.14087   
N -0.29718  -0.61282  1.09947   
H -0.12689  -0.68028  -1.03959  
H 2.61786   0.32645   0.24774   
H 2.01497   -2.67777  -0.63610  
H -2.60892  1.71664   0.20317   
H -1.75019  0.40717   2.08955   
C -1.02693  1.45404   -1.08125  
H -0.11552  1.44199   -1.67005  
13
image # 20 Energy = -286.75626
C 0.49405   -0.74638  -0.11937  
C 1.96996   -0.46505  -0.06321  
C 1.68380   -1.70760  -0.26534  
C -1.67040  1.19792   0.03386   
C -1.20146  0.29202   1.13419   
N -0.26918  -0.58502  1.08493   
H -0.09708  -0.63873  -1.05779  
H 2.67685   0.29103   0.22974   
H 1.98495   -2.70704  -0.57915  
H -2.65879  1.66787   0.20227   
H -1.74424  0.40413   2.08059   
C -1.07625  1.49141   -1.08183  
H -0.13830  1.50097   -1.65026  
13
image # 21 Energy = -286.75943
C 0.51398   -0.73704  -0.12897  
C 2.00429   -0.49491  -0.06888  
C 1.66802   -1.72562  -0.25206  
C -1.70722  1.18931   0.03793   
C -1.19250  0.29569   1.12371   
N -0.24059  -0.55584  1.07431   
H -0.05743  -0.59802  -1.06372  
H 2.73956   0.25934   0.20951   
H 1.94587   -2.73480  -0.51835  
H -2.70224  1.61463   0.19884   
H -1.74299  0.39857   2.07519   
C -1.09816  1.52825   -1.10174  
H -0.16975  1.56034   -1.62616  
13
image # 22 Energy = -286.76165
C 0.53207   -0.72079  -0.15487  
C 2.03549   -0.51458  -0.07089  
C 1.65685   -1.74535  -0.23891  
C -1.72815  1.18271   0.02199   
C -1.19289  0.30436   1.11030   
N -0.20962  -0.53021  1.06976   
H -0.01022  -0.55417  -1.06173  
H 2.80102   0.22142   0.18215   
H 1.90061   -2.76936  -0.45237  
H -2.74557  1.55793   0.19642   
H -1.73979  0.38963   2.06726   
C -1.14139  1.56035   -1.09119  
H -0.19163  1.61966   -1.60810  
13
image # 23 Energy = -286.76367
C 0.56334   -0.69054  -0.14725  
C 2.06197   -0.52706  -0.07039  
C 1.65866   -1.75996  -0.22606  
C -1.75242  1.16999   0.01636   
C -1.17909  0.29964   1.09489   
N -0.20001  -0.49547  1.06303   
H 0.02493   -0.50544  -1.08298  
H 2.85159   0.17171   0.14711   
H 1.85335   -2.81153  -0.38497  
H -2.78350  1.49933   0.19420   
H -1.73079  0.37920   2.05094   
C -1.17606  1.59802   -1.08688  
H -0.21813  1.67511   -1.58917  
13
image # 24 Energy = -286.76438
C 0.58043   -0.66760  -0.15393  
C 2.07307   -0.58248  -0.07766  
C 1.65964   -1.75277  -0.20789  
C -1.77438  1.16232   0.00725   
C -1.18274  0.30832   1.08358   
N -0.16639  -0.47740  1.05080   
H 0.06621   -0.46285  -1.08734  
H 2.90940   0.13701   0.11805   
H 1.80857   -2.83065  -0.32285  
H -2.81614  1.44443   0.19171   
H -1.72505  0.36896   2.03728   
C -1.20583  1.63041   -1.08206  
H -0.24485  1.72531   -1.57043  
13
image # 25 Energy = -286.76651
C 0.62318   -0.65960  -0.15490  
C 2.11174   -0.57859  -0.07442  
C 1.63408   -1.76895  -0.19221  
C -1.79423  1.14958   0.00122   
C -1.18005  0.30892   1.06804   
N -0.14665  -0.45171  1.04034   
H 0.10340   -0.41010  -1.09797  
H 2.94912   0.08330   0.08029   
H 1.76377   -2.85613  -0.25706  
H -2.84676  1.38769   0.18998   
H -1.71653  0.35745   2.01994   
C -1.23790  1.67033   -1.07775  
H -0.27205  1.77106   -1.55161  
13
image # 26 Energy = -286.76748
C 0.63321   -0.64470  -0.16166  
C 2.13827   -0.60361  -0.07640  
C 1.62067   -1.78480  -0.17128  
C -1.81172  1.14188   -0.01073  
C -1.16799  0.30346   1.04870   
N -0.12868  -0.43696  1.03069   
H 0.14124   -0.35829  -1.09694  
H 2.99298   0.04545   0.04656   
H 1.72314   -2.85928  -0.19618  
H -2.86977  1.33660   0.18978   
H -1.70641  0.34598   2.00152   
C -1.26869  1.70895   -1.07004  
H -0.29625  1.80532   -1.53403  
