
Running Job 1 of 1 optimize.in
qchem optimize.in_5403.0 ./optimize.d/ 1
/home/leeping/opt/qchem/5.0.2-openmp/exe/qcprog.exe_s optimize.in_5403.0 ./optimize.d/
Check license passed

                  Welcome to Q-Chem
     A Quantum Leap Into The Future Of Chemistry


 Q-Chem 5.0, Q-Chem, Inc., Pleasanton, CA (2017)

 Yihan Shao,  Zhengting Gan,  E. Epifanovsky,  A. T. B. Gilbert,  M. Wormit,  
 J. Kussmann,  A. W. Lange,  A. Behn,  Jia Deng,  Xintian Feng,  D. Ghosh,  
 M. Goldey,  P. R. Horn,  L. D. Jacobson,  I. Kaliman,  T. Kus,  A. Landau,  
 Jie Liu,  E. I. Proynov,  R. M. Richard,  R. P. Steele,  E. J. Sundstrom,  
 H. L. Woodcock III,  P. M. Zimmerman,  D. Zuev,  B. Albrecht,  E. Alguire,  
 S. A. Baeppler,  D. Barton,  Z. Benda,  Y. A. Bernard,  E. J. Berquist,  
 K. B. Bravaya,  H. Burton,  D. Casanova,  Chun-Min Chang,  Yunqing Chen,  
 A. Chien,  K. D. Closser,  M. P. Coons,  S. Dasgupta,  A. L. Dempwolff,  
 M. Diedenhofen,  Hainam Do,  R. G. Edgar,  Po-Tung Fang,  S. Fatehi,  
 Qingguo Feng,  J. Fosso-Tande,  Qinghui Ge,  A. Ghysels,  G. Gidofalvi,  
 J. Gomes,  J. Gonthier,  A. Gunina,  M. W. D. Hanson-Heine,  
 P. H. P. Harbach,  A. W. Hauser,  J. E. Herr,  E. G. Hohenstein,  
 Z. C. Holden,  Kerwin Hui,  T.-C. Jagau,  Hyunjun Ji,  B. Kaduk,  
 K. Khistyaev,  Jaehoon Kim,  P. Klunzinger,  K. Koh,  D. Kosenkov,  
 L. Koulias,  T. Kowalczyk,  C. M. Krauter,  A. Kunitsa,  Ka Un Lao,  
 A. Laurent,  K. V. Lawler,  Joonho Lee,  D. Lefrancois,  S. Lehtola,  
 D. S. Levine,  Yi-Pei Li,  You-Sheng Lin,  Fenglai Liu,  E. Livshits,  
 A. Luenser,  P. Manohar,  E. Mansoor,  S. F. Manzer,  Shan-Ping Mao,  
 Yuezhi Mao,  N. Mardirossian,  A. V. Marenich,  T. Markovich,  
 L. A. Martinez-Martinez,  S. A. Maurer,  N. J. Mayhall,  S. C. McKenzie,  
 J.-M. Mewes,  A. F. Morrison,  J. W. Mullinax,  K. Nanda,  
 T. S. Nguyen-Beck,  R. Olivares-Amaya,  J. A. Parkhill,  T. M. Perrine,  
 F. Plasser,  S. Prager,  A. Prociuk,  E. Ramos,  D. R. Rehn,  F. Rob,  
 M. Schneider,  N. Sergueev,  S. M. Sharada,  S. Sharma,  D. W. Small,  
 T. Stauch,  T. Stein,  Yu-Chuan Su,  A. J. W. Thom,  A. Tkatchenko,  
 T. Tsuchimochi,  L. Vogt,  O. Vydrov,  M. A. Watson,  J. Wenzel,  
 M. de Wergifosse,  T. A. Wesolowski,  A. White,  J. Witte,  A. Yamada,  
 Jun Yang,  K. Yao,  S. Yeganeh,  S. R. Yost,  Zhi-Qiang You,  A. Zech,  
 Igor Ying Zhang,  Xing Zhang,  Yan Zhao,  Ying Zhu,  B. R. Brooks,  
 G. K. L. Chan,  C. J. Cramer,  M. S. Gordon,  W. J. Hehre,  A. Klamt,  
 M. W. Schmidt,  C. D. Sherrill,  D. G. Truhlar,  A. Aspuru-Guzik,  R. Baer,  
 A. T. Bell,  N. A. Besley,  Jeng-Da Chai,  R. A. DiStasio Jr.,  A. Dreuw,  
 B. D. Dunietz,  T. R. Furlani,  Chao-Ping Hsu,  Yousung Jung,  Jing Kong,  
 D. S. Lambrecht,  WanZhen Liang,  C. Ochsenfeld,  V. A. Rassolov,  
 L. V. Slipchenko,  J. E. Subotnik,  T. Van Voorhis,  J. M. Herbert,  
 A. I. Krylov,  P. M. W. Gill,  M. Head-Gordon

 Contributors to earlier versions of Q-Chem not listed above: 
 R. D. Adamson,  B. Austin,  J. Baker,  G. J. O. Beran,  K. Brandhorst,  
 S. T. Brown,  E. F. C. Byrd,  A. K. Chakraborty,  C.-L. Cheng,  
 Siu Hung Chien,  D. M. Chipman,  D. L. Crittenden,  H. Dachsel,  
 R. J. Doerksen,  A. D. Dutoi,  L. Fusti-Molnar,  W. A. Goddard III,  
 A. Golubeva-Zadorozhnaya,  S. R. Gwaltney,  G. Hawkins,  A. Heyden,  
 S. Hirata,  G. Kedziora,  F. J. Keil,  C. Kelley,  Jihan Kim,  R. A. King,  
 R. Z. Khaliullin,  P. P. Korambath,  W. Kurlancheek,  A. M. Lee,  M. S. Lee,  
 S. V. Levchenko,  Ching Yeh Lin,  D. Liotard,  R. C. Lochan,  I. Lotan,  
 P. E. Maslen,  N. Nair,  D. P. O'Neill,  D. Neuhauser,  E. Neuscamman,  
 C. M. Oana,  R. Olson,  B. Peters,  R. Peverati,  P. A. Pieniazek,  
 Y. M. Rhee,  J. Ritchie,  M. A. Rohrdanz,  E. Rosta,  N. J. Russ,  
 H. F. Schaefer III,  N. E. Schultz,  N. Shenvi,  A. C. Simmonett,  A. Sodt,  
 D. Stuck,  K. S. Thanthiriwatte,  V. Vanovschi,  Tao Wang,  A. Warshel,  
 C. F. Williams,  Q. Wu,  X. Xu,  W. Zhang

 Please cite Q-Chem as follows:
 Y. Shao et al., Mol. Phys. 113, 184-215 (2015)
 DOI: 10.1080/00268976.2014.952696

 Q-Chem 5.0.2 for Intel X86 EM64T Linux

 Parts of Q-Chem use Armadillo 5.200.1 (Boston Tea Smuggler).
 http://arma.sourceforge.net/

 Q-Chem begins on Wed Mar  2 01:40:33 2022  

Host: 
0

     Scratch files written to ./optimize.d//
 Dec517 15110_ 26548  26544 5633   
Processing $rem in /home/leeping/opt/qchem/5.0.2-openmp/config/preferences.
 MEM_STATIC 2000
 MEM_TOTAL  8000
 SYMMETRY   OFF
 SYM_IGNORE TRUE 

Checking the input file for inconsistencies... 	...done.

--------------------------------------------------------------
User input:
--------------------------------------------------------------
$molecule
0 2
C        1.0984280998    0.1833698482    0.5383745806
C        0.8752620403   -0.9764411698   -0.4447151440
C       -0.4341580857   -0.9841728305   -0.7444337796
C       -1.0770136966    0.1721538520    0.0477733834
C       -0.3961764528    1.4568939510   -0.4667576251
N        0.8526068123    1.4877831580   -0.2047264531
H        2.0458961776    0.2017927456    1.0748897167
H        1.6543758370   -1.6244571172   -0.8307698462
H       -0.9636497254   -1.6338623538   -1.4326992095
H       -2.1641722463    0.1734137747    0.1279384290
H       -0.8990312387    2.2499896698   -1.0175988039
C       -0.2095794365    0.0337633389    1.3033542732
H       -0.3827880851   -0.7402268669    2.0493704784
$end

$rem
method                b3lyp
basis                 6-31g(d)
unrestricted          true
symmetry              off
sym_ignore            true
incdft                false
incfock               0
scf_convergence       8
thresh                14
jobtype               opt
scf_guess             read
scf_algorithm         diis
max_scf_cycles        100
geom_opt_tol_gradient 600
geom_opt_tol_displacement 2400
geom_opt_tol_energy   200
geom_opt_max_cycles   100
$end

--------------------------------------------------------------
 ----------------------------------------------------------------
             Standard Nuclear Orientation (Angstroms)
    I     Atom           X                Y                Z
 ----------------------------------------------------------------
    1      C       1.0984280998     0.1833698482     0.5383745806
    2      C       0.8752620403    -0.9764411698    -0.4447151440
    3      C      -0.4341580857    -0.9841728305    -0.7444337796
    4      C      -1.0770136966     0.1721538520     0.0477733834
    5      C      -0.3961764528     1.4568939510    -0.4667576251
    6      N       0.8526068123     1.4877831580    -0.2047264531
    7      H       2.0458961776     0.2017927456     1.0748897167
    8      H       1.6543758370    -1.6244571172    -0.8307698462
    9      H      -0.9636497254    -1.6338623538    -1.4326992095
   10      H      -2.1641722463     0.1734137747     0.1279384290
   11      H      -0.8990312387     2.2499896698    -1.0175988039
   12      C      -0.2095794365     0.0337633389     1.3033542732
   13      H      -0.3827880851    -0.7402268669     2.0493704784
 ----------------------------------------------------------------
 Nuclear Repulsion Energy =   279.1093680196 hartrees
 There are       25 alpha and       24 beta electrons
 Requested basis set is 6-31G(d)
 There are 40 shells and 117 basis functions

 Total QAlloc Memory Limit   8000 MB
 Mega-Array Size      1956 MB
 MEM_STATIC part      2000 MB
 A cutoff of  1.0D-14 yielded    814 shell pairs
 There are      7086 function pairs
 
 -------------------------------------------------------
 OpenMP Integral Computing Module                       
 Release: version 1.0, May 2013, Q-Chem Inc. Pittsburgh 
 -------------------------------------------------------
 Integral Job Info:
 Integral job number is                      11
 Integral operator is                         1
 short-range coefficients                     0
 long-range coefficients              100000000
 Omega coefficients                           0
 if combine SR and LR in K                    0
 Integral screening is                        0
 Integral computing path is                   2
 max size of driver memory is            800000
 size of driver memory is                593474
 size of scratch memory is              2361544
 max col of scratch BK array               1296
 max len of scratch array in speh3          155
 max len of scratch index in speh4           18
 max int batch size is                      520
 min int batch size is                       52
 fixed nKL is                                52
 max L of basis functions is                  2
 order of int derivative is                   0
 number of shells is                         40
 number of basis is                         117
 number of cartesian basis is               117
 number of contracted shell pairs           814
 number of primitive shell pairs           3589
 maxK2 (contraction) of shell pair           36
 max number of K2 of shell pair               1
 max number of CS2 of shell pair             85
 max number of PS2 of shell pair            390
 mem total for path MDJ                  535308
 -------------------------------------------------------
 Smallest overlap matrix eigenvalue = 1.11E-03

 Scale SEOQF with 1.000000e-01/1.000000e-01/1.000000e-01

 Standard Electronic Orientation quadrupole field applied
 Nucleus-field energy     =     0.0000000022 hartrees
 Guess MOs from SCF MO coefficient file
 Reading MOs from coefficient file
 Reading MOs from coefficient file
 An unrestricted hybrid HF-DFT SCF calculation will be
 performed using Pulay DIIS extrapolation
 Exchange:     0.2000 Hartree-Fock + 0.0800 Slater + 0.7200 B88
 Correlation:  0.1900 VWN1RPA + 0.8100 LYP
 Using SG-1 standard quadrature grid
 SCF converges when DIIS error is below 1.0E-08
Using Q-Chem read-in guess as SCF_GUESS READ specified.

 using 4 threads for integral computing
 -------------------------------------------------------
 OpenMP Integral computing Module                
 Release: version 1.0, May 2013, Q-Chem Inc. Pittsburgh 
 -------------------------------------------------------
 -------------------------------------------------------
 OpenMP BLAS3 based DFT computing Module                
 Release: version 1.0, May 2013, Q-Chem Inc. Pittsburgh 
 -------------------------------------------------------
 ---------------------------------------
  Cycle       Energy         DIIS Error
 ---------------------------------------
    1    -286.8516348652      2.84E-10
    2    -286.8516348652      5.87E-10 Convergence criterion met
 ---------------------------------------
 <S^2> = 0.7537
 SCF time:  CPU 5.28 s  wall 4.01 s
 SCF   energy in the final basis set = -286.85163487
 Total energy in the final basis set = -286.85163487
 
 --------------------------------------------------------------
 
                    Orbital Energies (a.u.)
 --------------------------------------------------------------
 
 Alpha MOs
 -- Occupied --
-14.322 -10.224 -10.220 -10.210 -10.204 -10.201 -10.198  -0.952
 -0.821  -0.726  -0.705  -0.579  -0.573  -0.531  -0.512  -0.472
 -0.418  -0.410  -0.381  -0.373  -0.348  -0.294  -0.271  -0.258
 -0.196
 -- Virtual --
 -0.022   0.029   0.103   0.140   0.150   0.154   0.159   0.163
  0.172   0.210   0.215   0.255   0.288   0.322   0.346   0.366
  0.495   0.510   0.532   0.540   0.570   0.599   0.606   0.622
  0.635   0.641   0.655   0.690   0.700   0.729   0.778   0.791
  0.799   0.817   0.825   0.846   0.858   0.876   0.891   0.940
  0.965   1.005   1.058   1.092   1.201   1.264   1.335   1.339
  1.396   1.406   1.486   1.510   1.563   1.610   1.658   1.725
  1.783   1.796   1.827   1.892   1.954   1.986   2.000   2.048
  2.097   2.138   2.172   2.208   2.234   2.276   2.315   2.335
  2.425   2.476   2.515   2.532   2.548   2.619   2.629   2.645
  2.722   2.835   2.856   2.904   2.939   3.922   4.187   4.267
  4.280   4.396   4.543   4.678
 
 Beta MOs
 -- Occupied --
-14.321 -10.224 -10.221 -10.210 -10.200 -10.196 -10.190  -0.949
 -0.815  -0.725  -0.690  -0.577  -0.561  -0.527  -0.509  -0.463
 -0.414  -0.406  -0.380  -0.369  -0.342  -0.287  -0.261  -0.255
 -- Virtual --
 -0.045  -0.016   0.031   0.105   0.143   0.153   0.158   0.160
  0.166   0.176   0.216   0.223   0.267   0.290   0.324   0.348
  0.369   0.497   0.529   0.540   0.544   0.577   0.603   0.611
  0.624   0.641   0.658   0.662   0.693   0.708   0.742   0.782
  0.792   0.810   0.819   0.827   0.848   0.860   0.879   0.894
  0.942   0.973   1.013   1.060   1.099   1.204   1.265   1.339
  1.344   1.401   1.410   1.489   1.512   1.577   1.619   1.665
  1.728   1.793   1.799   1.838   1.910   1.966   1.998   2.003
  2.054   2.120   2.144   2.179   2.224   2.249   2.281   2.317
  2.338   2.428   2.494   2.517   2.542   2.553   2.630   2.636
  2.648   2.729   2.837   2.859   2.905   2.942   3.923   4.190
  4.269   4.307   4.399   4.549   4.679
 --------------------------------------------------------------
 
          Ground-State Mulliken Net Atomic Charges

     Atom                 Charge (a.u.)    Spin (a.u.)
  --------------------------------------------------------
      1 C                    -0.094221      -0.045091
      2 C                    -0.088002       0.040576
      3 C                    -0.096001       0.079067
      4 C                    -0.246060      -0.043947
      5 C                     0.092373      -0.008697
      6 N                    -0.325421       0.021866
      7 H                     0.139870       0.003047
      8 H                     0.146090       0.000912
      9 H                     0.145593       0.000384
     10 H                     0.133969       0.002865
     11 H                     0.149705      -0.000179
     12 C                    -0.096717       0.975789
     13 H                     0.138822      -0.026592
  --------------------------------------------------------
  Sum of atomic charges =     0.000000
  Sum of spin   charges =     1.000000

 -----------------------------------------------------------------
                    Cartesian Multipole Moments
 -----------------------------------------------------------------
    Charge (ESU x 10^10)
                 0.0000
    Dipole Moment (Debye)
         X      -1.4467      Y      -1.8673      Z      -0.2339
       Tot       2.3737
    Quadrupole Moments (Debye-Ang)
        XX     -38.5182     XY      -4.0771     YY     -42.6332
        XZ       2.0194     YZ      -0.0593     ZZ     -40.3303
    Octopole Moments (Debye-Ang^2)
       XXX     -10.6757    XXY     -11.5150    XYY     -10.9940
       YYY     -24.1634    XXZ       0.3694    XYZ       2.8518
       YYZ      -4.4384    XZZ      -4.0504    YZZ      -9.7248
       ZZZ      -0.9049
    Hexadecapole Moments (Debye-Ang^3)
      XXXX    -216.9652   XXXY      -8.1039   XXYY     -88.6137
      XYYY     -18.0465   YYYY    -294.2914   XXXZ      -3.3683
      XXYZ       2.2866   XYYZ       2.2890   YYYZ      -5.6105
      XXZZ     -65.0341   XYZZ       0.6449   YYZZ     -71.8311
      XZZZ      -3.9903   YZZZ      -9.4608   ZZZZ    -175.9583
 -----------------------------------------------------------------
 Calculating analytic gradient of the SCF energy
 Gradient of SCF Energy
            1           2           3           4           5           6
    1  -0.0001553   0.0002628  -0.0005063  -0.0001456  -0.0003311   0.0004081
    2  -0.0002507  -0.0000230  -0.0002300   0.0000555   0.0001917   0.0000287
    3   0.0003820   0.0001198  -0.0000140   0.0000095  -0.0001117   0.0004492
            7           8           9          10          11          12
    1   0.0000286   0.0000362  -0.0000069  -0.0000577  -0.0000538   0.0005500
    2   0.0002012   0.0001040   0.0000609  -0.0000909  -0.0001046   0.0000679
    3  -0.0000474  -0.0000646   0.0000040  -0.0001180  -0.0001005  -0.0005284
           13
    1  -0.0000290
    2  -0.0000107
    3   0.0000198
 Max gradient component =       5.500E-04
 RMS gradient           =       2.195E-04
 Gradient time:  CPU 7.62 s  wall 2.42 s
 Geometry Optimization Parameters
   NAtoms,    NIC,     NZ,  NCons,   NDum,   NFix, NCnnct, MaxDiis
       13     104       0       0       0       0       0       0


** GEOMETRY OPTIMIZATION IN DELOCALIZED INTERNAL COORDINATES **
   Searching for a Minimum

   Optimization Cycle:   1

                       Coordinates (Angstroms)
     ATOM                X               Y               Z
      1  C         1.0984280998    0.1833698482    0.5383745806
      2  C         0.8752620403   -0.9764411698   -0.4447151440
      3  C        -0.4341580857   -0.9841728305   -0.7444337796
      4  C        -1.0770136966    0.1721538520    0.0477733834
      5  C        -0.3961764528    1.4568939510   -0.4667576251
      6  N         0.8526068123    1.4877831580   -0.2047264531
      7  H         2.0458961776    0.2017927456    1.0748897167
      8  H         1.6543758370   -1.6244571172   -0.8307698462
      9  H        -0.9636497254   -1.6338623538   -1.4326992095
     10  H        -2.1641722463    0.1734137747    0.1279384290
     11  H        -0.8990312387    2.2499896698   -1.0175988039
     12  C        -0.2095794365    0.0337633389    1.3033542732
     13  H        -0.3827880851   -0.7402268669    2.0493704784
   Point Group: c1    Number of degrees of freedom:    33


   Energy is   -286.851634865


 Attempting to Generate Delocalized Internal Coordinates

 33 Hessian modes will be used to form the next step
  Hessian Eigenvalues:
     0.009896    0.010780    0.012024    0.014584    0.016766    0.021801
     0.046722    0.047572    0.055563    0.062894    0.065829    0.081788
     0.108001    0.130925    0.142020    0.159712    0.159864    0.159943
     0.186032    0.253344    0.253829    0.263160    0.268833    0.283903
     0.293775    0.347998    0.349304    0.349455    0.349621    0.354546
     0.354647    0.506635    0.663510

 Minimum Search - Taking Simple RFO Step
 Searching for Lamda that Minimizes Along All modes
 Value Taken    Lamda =  -0.00000832
 Step Taken.  Stepsize is  0.019598

                             Maximum     Tolerance    Cnvgd?
         Gradient           0.000318      0.000600     YES
         Displacement       0.008508      0.002400      NO
         Energy change     *********      0.000002      NO


 New Cartesian Coordinates Obtained by Inverse Iteration

 Displacement from previous Coordinates is:  0.017613
 ----------------------------------------------------------------
             Standard Nuclear Orientation (Angstroms)
    I     Atom           X                Y                Z
 ----------------------------------------------------------------
    1      C       1.0981831883     0.1838051776     0.5371064374
    2      C       0.8756047818    -0.9773581843    -0.4439874646
    3      C      -0.4328718520    -0.9831254907    -0.7459388474
    4      C      -1.0767679060     0.1721434495     0.0474831746
    5      C      -0.3969579242     1.4574478034    -0.4663394837
    6      N       0.8524737182     1.4867560311    -0.2089158521
    7      H       2.0454497646     0.2017145689     1.0739785463
    8      H       1.6543109854    -1.6276890005    -0.8270244399
    9      H      -0.9619359898    -1.6336293167    -1.4338435980
   10      H      -2.1638067325     0.1731932382     0.1282940543
   11      H      -0.9007879346     2.2525830571    -1.0133409475
   12      C      -0.2100642753     0.0342702407     1.3034282578
   13      H      -0.3828298242    -0.7401115743     2.0491001627
 ----------------------------------------------------------------
 Nuclear Repulsion Energy =   279.1165504591 hartrees
 There are       25 alpha and       24 beta electrons
 Applying Cartesian multipole field
    Component          Value
    ---------          -----
     (2,0,0)        1.00000E-11
     (0,2,0)        2.00000E-11
     (0,0,2)       -3.00000E-11
 Nucleus-field energy     =     0.0000000022 hartrees
 Requested basis set is 6-31G(d)
 There are 40 shells and 117 basis functions
 A cutoff of  1.0D-14 yielded    814 shell pairs
 There are      7086 function pairs
 Smallest overlap matrix eigenvalue = 1.11E-03
 Guess MOs from SCF MO coefficient file
 Reading MOs from coefficient file
 Reading MOs from coefficient file
 An unrestricted hybrid HF-DFT SCF calculation will be
 performed using Pulay DIIS extrapolation
 Exchange:     0.2000 Hartree-Fock + 0.0800 Slater + 0.7200 B88
 Correlation:  0.1900 VWN1RPA + 0.8100 LYP
 Using SG-1 standard quadrature grid
 SCF converges when DIIS error is below 1.0E-08
 Geometry optimization detected.  Setting ReadMinima to 0
 Setting SaveMinima to 0
Using Q-Chem read-in guess as SCF_GUESS READ specified.

 using 4 threads for integral computing
 -------------------------------------------------------
 OpenMP Integral computing Module                
 Release: version 1.0, May 2013, Q-Chem Inc. Pittsburgh 
 -------------------------------------------------------
 -------------------------------------------------------
 OpenMP BLAS3 based DFT computing Module                
 Release: version 1.0, May 2013, Q-Chem Inc. Pittsburgh 
 -------------------------------------------------------
 ---------------------------------------
  Cycle       Energy         DIIS Error
 ---------------------------------------
    1    -286.8520119707      1.31E-04
    2    -286.8516352615      1.61E-05
    3    -286.8516354024      1.76E-05
    4    -286.8516359138      3.90E-06
    5    -286.8516359343      1.91E-06
    6    -286.8516359397      8.94E-07
    7    -286.8516359412      3.83E-07
    8    -286.8516359416      7.83E-08
    9    -286.8516359418      3.74E-08
   10    -286.8516359419      1.51E-08
   11    -286.8516359420      9.79E-09 Convergence criterion met
 ---------------------------------------
 <S^2> = 0.7537
 SCF time:  CPU 28.88 s  wall 17.52 s
 SCF   energy in the final basis set = -286.85163594
 Total energy in the final basis set = -286.85163594
 
 --------------------------------------------------------------
 
                    Orbital Energies (a.u.)
 --------------------------------------------------------------
 
 Alpha MOs
 -- Occupied --
-14.322 -10.224 -10.220 -10.210 -10.204 -10.201 -10.197  -0.952
 -0.821  -0.726  -0.705  -0.579  -0.573  -0.531  -0.512  -0.472
 -0.418  -0.410  -0.381  -0.373  -0.348  -0.294  -0.271  -0.258
 -0.196
 -- Virtual --
 -0.021   0.029   0.103   0.140   0.150   0.154   0.159   0.163
  0.172   0.210   0.215   0.255   0.288   0.322   0.346   0.366
  0.495   0.510   0.532   0.540   0.570   0.599   0.606   0.622
  0.635   0.641   0.655   0.690   0.701   0.728   0.778   0.791
  0.799   0.817   0.825   0.846   0.858   0.876   0.891   0.940
  0.965   1.005   1.059   1.092   1.201   1.264   1.334   1.339
  1.395   1.407   1.487   1.510   1.563   1.611   1.659   1.725
  1.784   1.796   1.827   1.892   1.954   1.986   1.999   2.049
  2.097   2.139   2.171   2.208   2.235   2.276   2.315   2.335
  2.425   2.476   2.515   2.532   2.548   2.618   2.629   2.645
  2.722   2.835   2.856   2.904   2.939   3.922   4.187   4.267
  4.279   4.396   4.543   4.678
 
 Beta MOs
 -- Occupied --
-14.321 -10.224 -10.221 -10.210 -10.200 -10.196 -10.190  -0.949
 -0.815  -0.725  -0.690  -0.577  -0.561  -0.527  -0.509  -0.463
 -0.414  -0.406  -0.379  -0.369  -0.342  -0.287  -0.261  -0.255
 -- Virtual --
 -0.045  -0.016   0.031   0.105   0.143   0.153   0.158   0.160
  0.166   0.176   0.216   0.223   0.267   0.290   0.324   0.348
  0.369   0.497   0.529   0.540   0.544   0.577   0.603   0.611
  0.624   0.641   0.658   0.662   0.693   0.708   0.742   0.782
  0.793   0.810   0.819   0.827   0.848   0.860   0.879   0.894
  0.942   0.973   1.013   1.060   1.099   1.204   1.266   1.338
  1.345   1.400   1.411   1.489   1.513   1.578   1.619   1.666
  1.729   1.793   1.799   1.837   1.910   1.966   1.999   2.002
  2.055   2.119   2.144   2.178   2.224   2.250   2.281   2.318
  2.338   2.428   2.493   2.517   2.542   2.553   2.630   2.636
  2.648   2.729   2.837   2.859   2.906   2.942   3.923   4.190
  4.269   4.307   4.399   4.549   4.679
 --------------------------------------------------------------
 
          Ground-State Mulliken Net Atomic Charges

     Atom                 Charge (a.u.)    Spin (a.u.)
  --------------------------------------------------------
      1 C                    -0.094404      -0.044994
      2 C                    -0.087828       0.039930
      3 C                    -0.095910       0.079792
      4 C                    -0.246040      -0.043942
      5 C                     0.092384      -0.008896
      6 N                    -0.325309       0.022035
      7 H                     0.139779       0.003030
      8 H                     0.146114       0.000897
      9 H                     0.145529       0.000319
     10 H                     0.133906       0.002848
     11 H                     0.149653      -0.000169
     12 C                    -0.096779       0.975674
     13 H                     0.138906      -0.026526
  --------------------------------------------------------
  Sum of atomic charges =    -0.000000
  Sum of spin   charges =     1.000000

 -----------------------------------------------------------------
                    Cartesian Multipole Moments
 -----------------------------------------------------------------
    Charge (ESU x 10^10)
                -0.0000
    Dipole Moment (Debye)
         X      -1.4476      Y      -1.8676      Z      -0.2234
       Tot       2.3735
    Quadrupole Moments (Debye-Ang)
        XX     -38.5244     XY      -4.0862     YY     -42.6102
        XZ       2.0226     YZ      -0.0472     ZZ     -40.3425
    Octopole Moments (Debye-Ang^2)
       XXX     -10.6812    XXY     -11.5163    XYY     -10.9821
       YYY     -24.1486    XXZ       0.4159    XYZ       2.8574
       YYZ      -4.3825    XZZ      -4.0643    YZZ      -9.7476
       ZZZ      -0.8025
    Hexadecapole Moments (Debye-Ang^3)
      XXXX    -216.9683   XXXY      -8.0255   XXYY     -88.5676
      XYYY     -17.9906   YYYY    -294.1281   XXXZ      -3.2881
      XXYZ       2.3097   XYYZ       2.3327   YYYZ      -5.4936
      XXZZ     -65.0612   XYZZ       0.6857   YYZZ     -71.8761
      XZZZ      -3.9133   YZZZ      -9.3768   ZZZZ    -175.9733
 -----------------------------------------------------------------
 Calculating analytic gradient of the SCF energy
 Gradient of SCF Energy
            1           2           3           4           5           6
    1  -0.0003041   0.0000356   0.0001508   0.0000492  -0.0000556   0.0000342
    2   0.0000246  -0.0001667   0.0001603  -0.0001282   0.0001896  -0.0000612
    3   0.0001822   0.0001098  -0.0001752   0.0000076   0.0002232  -0.0004211
            7           8           9          10          11          12
    1  -0.0000252   0.0000337   0.0000443   0.0000094  -0.0000324   0.0000996
    2   0.0000042   0.0000061  -0.0000006  -0.0000142   0.0000034  -0.0000123
    3   0.0000062   0.0000145  -0.0000217  -0.0000065   0.0000719   0.0000139
           13
    1  -0.0000396
    2  -0.0000050
    3  -0.0000048
 Max gradient component =       4.211E-04
 RMS gradient           =       1.198E-04
 Gradient time:  CPU 7.73 s  wall 2.56 s
 Geometry Optimization Parameters
   NAtoms,    NIC,     NZ,  NCons,   NDum,   NFix, NCnnct, MaxDiis
       13     104       0       0       0       0       0       0

 Cartesian Hessian Update
 Hessian Updated using BFGS Update


** GEOMETRY OPTIMIZATION IN DELOCALIZED INTERNAL COORDINATES **
   Searching for a Minimum

   Optimization Cycle:   2

                       Coordinates (Angstroms)
     ATOM                X               Y               Z
      1  C         1.0981831883    0.1838051776    0.5371064374
      2  C         0.8756047818   -0.9773581843   -0.4439874646
      3  C        -0.4328718520   -0.9831254907   -0.7459388474
      4  C        -1.0767679060    0.1721434495    0.0474831746
      5  C        -0.3969579242    1.4574478034   -0.4663394837
      6  N         0.8524737182    1.4867560311   -0.2089158521
      7  H         2.0454497646    0.2017145689    1.0739785463
      8  H         1.6543109854   -1.6276890005   -0.8270244399
      9  H        -0.9619359898   -1.6336293167   -1.4338435980
     10  H        -2.1638067325    0.1731932382    0.1282940543
     11  H        -0.9007879346    2.2525830571   -1.0133409475
     12  C        -0.2100642753    0.0342702407    1.3034282578
     13  H        -0.3828298242   -0.7401115743    2.0491001627
   Point Group: c1    Number of degrees of freedom:    33


   Energy is   -286.851635942

 Hessian Updated using BFGS Update

 33 Hessian modes will be used to form the next step
  Hessian Eigenvalues:
     0.009208    0.010630    0.014433    0.016641    0.021409    0.024448
     0.046570    0.049148    0.055230    0.063137    0.065820    0.082155
     0.108520    0.135853    0.142751    0.158150    0.159844    0.160073
     0.186524    0.231178    0.253828    0.261465    0.268956    0.283864
     0.295692    0.347980    0.349341    0.349442    0.349663    0.354478
     0.354681    0.504527    0.657575

 Minimum Search - Taking Simple RFO Step
 Searching for Lamda that Minimizes Along All modes
 Value Taken    Lamda =  -0.00000452
 Step Taken.  Stepsize is  0.013159

                             Maximum     Tolerance    Cnvgd?
         Gradient           0.000180      0.000600     YES
         Displacement       0.005991      0.002400      NO
         Energy change     -0.000001      0.000002     YES


                       Distance Matrix (Angstroms)
             C (  1)   C (  2)   C (  3)   C (  4)   C (  5)   N (  6)
   C (  2)  1.536355
   C (  3)  2.313452  1.342877
   C (  4)  2.229412  2.318331  1.542325
   C (  5)  2.205565  2.747398  2.456799  1.542129
   N (  6)  1.521382  2.475410  2.835634  2.348600  1.276011
   H (  7)  1.088975  2.250105  3.295151  3.286763  3.148778  2.172635
   H (  8)  2.334875  1.084450  2.185948  3.385698  3.722347  3.274869
   H (  9)  3.381095  2.187936  1.084563  2.338446  3.287860  3.811737
   H ( 10)  3.287525  3.299893  2.257763  1.090039  2.263770  3.307129
   H ( 11)  3.267968  3.729914  3.280283  2.341911  1.088713  2.075456
   C ( 12)  1.523523  2.292495  2.298835  1.532182  2.278693  2.350720
   H ( 13)  2.309361  2.802754  2.806030  2.306562  3.340195  3.403462
             H (  7)   H (  8)   H (  9)   H ( 10)   H ( 11)   C ( 12)
   H (  8)  2.667118
   H (  9)  4.324584  2.685705
   H ( 10)  4.314275  4.328260  2.673832
   H ( 11)  4.152503  4.649705  3.909374  2.687454
   C ( 12)  2.273330  3.282809  3.292394  2.284152  3.281072
   H ( 13)  2.781086  3.634533  3.642065  2.774077  4.313125  1.088826

 
 Final energy is   -286.851635941973     


 ******************************
 **  OPTIMIZATION CONVERGED  **
 ******************************

                       Coordinates (Angstroms)
     ATOM                X               Y               Z
      1  C         1.0981831883    0.1838051776    0.5371064374
      2  C         0.8756047818   -0.9773581843   -0.4439874646
      3  C        -0.4328718520   -0.9831254907   -0.7459388474
      4  C        -1.0767679060    0.1721434495    0.0474831746
      5  C        -0.3969579242    1.4574478034   -0.4663394837
      6  N         0.8524737182    1.4867560311   -0.2089158521
      7  H         2.0454497646    0.2017145689    1.0739785463
      8  H         1.6543109854   -1.6276890005   -0.8270244399
      9  H        -0.9619359898   -1.6336293167   -1.4338435980
     10  H        -2.1638067325    0.1731932382    0.1282940543
     11  H        -0.9007879346    2.2525830571   -1.0133409475
     12  C        -0.2100642753    0.0342702407    1.3034282578
     13  H        -0.3828298242   -0.7401115743    2.0491001627

Z-matrix Print:
$molecule
0 2
N 
C  1 1.276011
H  2 1.088713 1 122.528676
C  1 1.521382 2 103.732800 3 -179.219885 0
H  4 1.088975 1 111.601736 2 -163.101992 0
C  4 1.523523 1 101.070833 2 -34.339660 0
H  6 1.088826 4 123.403163 1 -173.233071 0
C  6 1.532182 4 93.703669 1 53.482239 0
H  8 1.090039 6 120.226930 4 -176.948952 0
C  4 1.536355 1 108.104164 2 66.929641 0
H  10 1.084450 4 125.083037 1 110.922169 0
C  10 1.342877 4 106.738109 1 -67.151061 0
H  12 1.084563 10 128.353440 4 177.597962 0
$end

 
 --------------------------------------------------------------
 
                    Orbital Energies (a.u.)
 --------------------------------------------------------------
 
 Alpha MOs
 -- Occupied --
-14.322 -10.224 -10.220 -10.210 -10.204 -10.201 -10.197  -0.952
 -0.821  -0.726  -0.705  -0.579  -0.573  -0.531  -0.512  -0.472
 -0.418  -0.410  -0.381  -0.373  -0.348  -0.294  -0.271  -0.258
 -0.196
 -- Virtual --
 -0.021   0.029   0.103   0.140   0.150   0.154   0.159   0.163
  0.172   0.210   0.215   0.255   0.288   0.322   0.346   0.366
  0.495   0.510   0.532   0.540   0.570   0.599   0.606   0.622
  0.635   0.641   0.655   0.690   0.701   0.728   0.778   0.791
  0.799   0.817   0.825   0.846   0.858   0.876   0.891   0.940
  0.965   1.005   1.059   1.092   1.201   1.264   1.334   1.339
  1.395   1.407   1.487   1.510   1.563   1.611   1.659   1.725
  1.784   1.796   1.827   1.892   1.954   1.986   1.999   2.049
  2.097   2.139   2.171   2.208   2.235   2.276   2.315   2.335
  2.425   2.476   2.515   2.532   2.548   2.618   2.629   2.645
  2.722   2.835   2.856   2.904   2.939   3.922   4.187   4.267
  4.279   4.396   4.543   4.678
 
 Beta MOs
 -- Occupied --
-14.321 -10.224 -10.221 -10.210 -10.200 -10.196 -10.190  -0.949
 -0.815  -0.725  -0.690  -0.577  -0.561  -0.527  -0.509  -0.463
 -0.414  -0.406  -0.379  -0.369  -0.342  -0.287  -0.261  -0.255
 -- Virtual --
 -0.045  -0.016   0.031   0.105   0.143   0.153   0.158   0.160
  0.166   0.176   0.216   0.223   0.267   0.290   0.324   0.348
  0.369   0.497   0.529   0.540   0.544   0.577   0.603   0.611
  0.624   0.641   0.658   0.662   0.693   0.708   0.742   0.782
  0.793   0.810   0.819   0.827   0.848   0.860   0.879   0.894
  0.942   0.973   1.013   1.060   1.099   1.204   1.266   1.338
  1.345   1.400   1.411   1.489   1.513   1.578   1.619   1.666
  1.729   1.793   1.799   1.837   1.910   1.966   1.999   2.002
  2.055   2.119   2.144   2.178   2.224   2.250   2.281   2.318
  2.338   2.428   2.493   2.517   2.542   2.553   2.630   2.636
  2.648   2.729   2.837   2.859   2.906   2.942   3.923   4.190
  4.269   4.307   4.399   4.549   4.679
 --------------------------------------------------------------
 
          Ground-State Mulliken Net Atomic Charges

     Atom                 Charge (a.u.)    Spin (a.u.)
  --------------------------------------------------------
      1 C                    -0.094404      -0.044994
      2 C                    -0.087828       0.039930
      3 C                    -0.095910       0.079792
      4 C                    -0.246040      -0.043942
      5 C                     0.092384      -0.008896
      6 N                    -0.325309       0.022035
      7 H                     0.139779       0.003030
      8 H                     0.146114       0.000897
      9 H                     0.145529       0.000319
     10 H                     0.133906       0.002848
     11 H                     0.149653      -0.000169
     12 C                    -0.096779       0.975674
     13 H                     0.138906      -0.026526
  --------------------------------------------------------
  Sum of atomic charges =    -0.000000
  Sum of spin   charges =     1.000000

 -----------------------------------------------------------------
                    Cartesian Multipole Moments
 -----------------------------------------------------------------
    Charge (ESU x 10^10)
                -0.0000
    Dipole Moment (Debye)
         X      -1.4476      Y      -1.8676      Z      -0.2234
       Tot       2.3735
    Quadrupole Moments (Debye-Ang)
        XX     -38.5244     XY      -4.0862     YY     -42.6102
        XZ       2.0226     YZ      -0.0472     ZZ     -40.3425
    Octopole Moments (Debye-Ang^2)
       XXX     -10.6812    XXY     -11.5163    XYY     -10.9821
       YYY     -24.1486    XXZ       0.4159    XYZ       2.8574
       YYZ      -4.3825    XZZ      -4.0643    YZZ      -9.7476
       ZZZ      -0.8025
    Hexadecapole Moments (Debye-Ang^3)
      XXXX    -216.9683   XXXY      -8.0255   XXYY     -88.5676
      XYYY     -17.9906   YYYY    -294.1281   XXXZ      -3.2881
      XXYZ       2.3097   XYYZ       2.3327   YYYZ      -5.4936
      XXZZ     -65.0612   XYZZ       0.6857   YYZZ     -71.8761
      XZZZ      -3.9133   YZZZ      -9.3768   ZZZZ    -175.9733
 -----------------------------------------------------------------
Archival summary:
1\1\c8-73\OPT\ProcedureUnspecified\6-31G*\166(2)\hpark21\WedMar201:41:072022WedMar201:41:072022\0\\#,OPT,ProcedureUnspecified,6-31G*,\\0,2\N\C,1,1.27601\H,2,1.08871,1,122.529\C,1,1.52138,2,103.733,3,-179.22,0\H,4,1.08897,1,111.602,2,-163.102,0\C,4,1.52352,1,101.071,2,-34.3397,0\H,6,1.08883,4,123.403,1,-173.233,0\C,6,1.53218,4,93.7037,1,53.4822,0\H,8,1.09004,6,120.227,4,-176.949,0\C,4,1.53636,1,108.104,2,66.9296,0\H,10,1.08445,4,125.083,1,110.922,0\C,10,1.34288,4,106.738,1,-67.1511,0\H,12,1.08456,10,128.353,4,177.598,0\\\@

 Total job time:  34.66s(wall), 53.28s(cpu) 
 Wed Mar  2 01:41:07 2022

        *************************************************************
        *                                                           *
        *  Thank you very much for using Q-Chem.  Have a nice day.  *
        *                                                           *
        *************************************************************


