13   
From optimize.out: Frame 1 / 2, Energy=    -286.8516348652
C       -0.0942210000   -0.0450910000    0.0000000000
C       -0.0880020000    0.0405760000   -0.0000000000
C       -0.0960010000    0.0790670000   -0.0000000000
C       -0.2460600000   -0.0439470000    0.0000000000
C        0.0923730000   -0.0086970000   -0.0000000000
N       -0.3254210000    0.0218660000   -0.0000000000
H        0.1398700000    0.0030470000    0.0000000000
H        0.1460900000    0.0009120000   -0.0000000000
H        0.1455930000    0.0003840000   -0.0000000000
H        0.1339690000    0.0028650000    0.0000000000
H        0.1497050000   -0.0001790000   -0.0000000000
C       -0.0967170000    0.9757890000    0.0000000000
H        0.1388220000   -0.0265920000    0.0000000000
