13   
From optimize.out: Frame 1 / 2, Energy=    -286.8549308504
C       -0.0093060000   -0.0147780000   -0.0000000000
C       -0.0837590000    0.0411450000   -0.0000000000
C       -0.1759280000   -0.0163480000   -0.0000000000
C       -0.1943800000   -0.0168400000    0.0000000000
C        0.0886450000    0.0191180000   -0.0000000000
N       -0.3914840000    0.0026430000   -0.0000000000
H        0.1368130000    0.0007760000   -0.0000000000
H        0.1395390000    0.0036080000   -0.0000000000
H        0.1552130000    0.0168230000   -0.0000000000
H        0.1553790000    0.0226050000   -0.0000000000
H        0.1427910000    0.0058810000   -0.0000000000
C       -0.1212270000    0.9584110000    0.0000000000
H        0.1577050000   -0.0230420000    0.0000000000
