13   
From optimize.out: Frame 1 / 3, Energy=    -286.8584556587
C        0.0764150000    0.5968560000   -0.0000000000
C       -0.2203610000   -0.0533900000    0.0000000000
C       -0.0906720000    0.0952290000   -0.0000000000
C       -0.2205420000   -0.0534140000   -0.0000000000
C        0.0763550000    0.5974760000   -0.0000000000
N       -0.3952980000   -0.2054020000   -0.0000000000
H        0.1355250000   -0.0320330000   -0.0000000000
H        0.1420910000    0.0005190000    0.0000000000
H        0.1541920000   -0.0043110000   -0.0000000000
H        0.1420200000    0.0005160000   -0.0000000000
H        0.1356250000   -0.0320730000   -0.0000000000
C       -0.0894840000    0.0943040000    0.0000000000
H        0.1541340000   -0.0042760000    0.0000000000
13   
From optimize.out: Frame 2 / 3, Energy=    -286.8584653799
C        0.0764340000    0.5967880000   -0.0000000000
C       -0.2207150000   -0.0533580000    0.0000000000
C       -0.0903870000    0.0950060000   -0.0000000000
C       -0.2206380000   -0.0533910000   -0.0000000000
C        0.0764610000    0.5973120000   -0.0000000000
N       -0.3952640000   -0.2052940000   -0.0000000000
H        0.1355340000   -0.0320370000   -0.0000000000
H        0.1420720000    0.0005180000    0.0000000000
H        0.1541750000   -0.0043070000   -0.0000000000
H        0.1420600000    0.0005160000   -0.0000000000
H        0.1355570000   -0.0320560000   -0.0000000000
C       -0.0894450000    0.0945920000    0.0000000000
H        0.1541570000   -0.0042880000    0.0000000000
