13   
From optimize.out: Frame 1 / 2, Energy=    -286.8549487882
C        0.0885550000    0.0192770000   -0.0000000000
C       -0.1944240000   -0.0169560000    0.0000000000
C       -0.1757990000   -0.0167320000    0.0000000000
C       -0.0839690000    0.0410310000   -0.0000000000
C       -0.0092060000   -0.0146380000   -0.0000000000
N       -0.3914880000    0.0025050000   -0.0000000000
H        0.1428570000    0.0058680000   -0.0000000000
H        0.1553530000    0.0226330000    0.0000000000
H        0.1551370000    0.0170850000   -0.0000000000
H        0.1395670000    0.0036370000   -0.0000000000
H        0.1367780000    0.0007720000   -0.0000000000
C       -0.1211550000    0.9587580000    0.0000000000
H        0.1577930000   -0.0232410000    0.0000000000
