
Running Job 1 of 1 optimize.in
qchem optimize.in_36787.0 ./optimize.d/ 1
/home/leeping/opt/qchem/5.0.2-openmp/exe/qcprog.exe_s optimize.in_36787.0 ./optimize.d/
Check license passed

                  Welcome to Q-Chem
     A Quantum Leap Into The Future Of Chemistry


 Q-Chem 5.0, Q-Chem, Inc., Pleasanton, CA (2017)

 Yihan Shao,  Zhengting Gan,  E. Epifanovsky,  A. T. B. Gilbert,  M. Wormit,  
 J. Kussmann,  A. W. Lange,  A. Behn,  Jia Deng,  Xintian Feng,  D. Ghosh,  
 M. Goldey,  P. R. Horn,  L. D. Jacobson,  I. Kaliman,  T. Kus,  A. Landau,  
 Jie Liu,  E. I. Proynov,  R. M. Richard,  R. P. Steele,  E. J. Sundstrom,  
 H. L. Woodcock III,  P. M. Zimmerman,  D. Zuev,  B. Albrecht,  E. Alguire,  
 S. A. Baeppler,  D. Barton,  Z. Benda,  Y. A. Bernard,  E. J. Berquist,  
 K. B. Bravaya,  H. Burton,  D. Casanova,  Chun-Min Chang,  Yunqing Chen,  
 A. Chien,  K. D. Closser,  M. P. Coons,  S. Dasgupta,  A. L. Dempwolff,  
 M. Diedenhofen,  Hainam Do,  R. G. Edgar,  Po-Tung Fang,  S. Fatehi,  
 Qingguo Feng,  J. Fosso-Tande,  Qinghui Ge,  A. Ghysels,  G. Gidofalvi,  
 J. Gomes,  J. Gonthier,  A. Gunina,  M. W. D. Hanson-Heine,  
 P. H. P. Harbach,  A. W. Hauser,  J. E. Herr,  E. G. Hohenstein,  
 Z. C. Holden,  Kerwin Hui,  T.-C. Jagau,  Hyunjun Ji,  B. Kaduk,  
 K. Khistyaev,  Jaehoon Kim,  P. Klunzinger,  K. Koh,  D. Kosenkov,  
 L. Koulias,  T. Kowalczyk,  C. M. Krauter,  A. Kunitsa,  Ka Un Lao,  
 A. Laurent,  K. V. Lawler,  Joonho Lee,  D. Lefrancois,  S. Lehtola,  
 D. S. Levine,  Yi-Pei Li,  You-Sheng Lin,  Fenglai Liu,  E. Livshits,  
 A. Luenser,  P. Manohar,  E. Mansoor,  S. F. Manzer,  Shan-Ping Mao,  
 Yuezhi Mao,  N. Mardirossian,  A. V. Marenich,  T. Markovich,  
 L. A. Martinez-Martinez,  S. A. Maurer,  N. J. Mayhall,  S. C. McKenzie,  
 J.-M. Mewes,  A. F. Morrison,  J. W. Mullinax,  K. Nanda,  
 T. S. Nguyen-Beck,  R. Olivares-Amaya,  J. A. Parkhill,  T. M. Perrine,  
 F. Plasser,  S. Prager,  A. Prociuk,  E. Ramos,  D. R. Rehn,  F. Rob,  
 M. Schneider,  N. Sergueev,  S. M. Sharada,  S. Sharma,  D. W. Small,  
 T. Stauch,  T. Stein,  Yu-Chuan Su,  A. J. W. Thom,  A. Tkatchenko,  
 T. Tsuchimochi,  L. Vogt,  O. Vydrov,  M. A. Watson,  J. Wenzel,  
 M. de Wergifosse,  T. A. Wesolowski,  A. White,  J. Witte,  A. Yamada,  
 Jun Yang,  K. Yao,  S. Yeganeh,  S. R. Yost,  Zhi-Qiang You,  A. Zech,  
 Igor Ying Zhang,  Xing Zhang,  Yan Zhao,  Ying Zhu,  B. R. Brooks,  
 G. K. L. Chan,  C. J. Cramer,  M. S. Gordon,  W. J. Hehre,  A. Klamt,  
 M. W. Schmidt,  C. D. Sherrill,  D. G. Truhlar,  A. Aspuru-Guzik,  R. Baer,  
 A. T. Bell,  N. A. Besley,  Jeng-Da Chai,  R. A. DiStasio Jr.,  A. Dreuw,  
 B. D. Dunietz,  T. R. Furlani,  Chao-Ping Hsu,  Yousung Jung,  Jing Kong,  
 D. S. Lambrecht,  WanZhen Liang,  C. Ochsenfeld,  V. A. Rassolov,  
 L. V. Slipchenko,  J. E. Subotnik,  T. Van Voorhis,  J. M. Herbert,  
 A. I. Krylov,  P. M. W. Gill,  M. Head-Gordon

 Contributors to earlier versions of Q-Chem not listed above: 
 R. D. Adamson,  B. Austin,  J. Baker,  G. J. O. Beran,  K. Brandhorst,  
 S. T. Brown,  E. F. C. Byrd,  A. K. Chakraborty,  C.-L. Cheng,  
 Siu Hung Chien,  D. M. Chipman,  D. L. Crittenden,  H. Dachsel,  
 R. J. Doerksen,  A. D. Dutoi,  L. Fusti-Molnar,  W. A. Goddard III,  
 A. Golubeva-Zadorozhnaya,  S. R. Gwaltney,  G. Hawkins,  A. Heyden,  
 S. Hirata,  G. Kedziora,  F. J. Keil,  C. Kelley,  Jihan Kim,  R. A. King,  
 R. Z. Khaliullin,  P. P. Korambath,  W. Kurlancheek,  A. M. Lee,  M. S. Lee,  
 S. V. Levchenko,  Ching Yeh Lin,  D. Liotard,  R. C. Lochan,  I. Lotan,  
 P. E. Maslen,  N. Nair,  D. P. O'Neill,  D. Neuhauser,  E. Neuscamman,  
 C. M. Oana,  R. Olson,  B. Peters,  R. Peverati,  P. A. Pieniazek,  
 Y. M. Rhee,  J. Ritchie,  M. A. Rohrdanz,  E. Rosta,  N. J. Russ,  
 H. F. Schaefer III,  N. E. Schultz,  N. Shenvi,  A. C. Simmonett,  A. Sodt,  
 D. Stuck,  K. S. Thanthiriwatte,  V. Vanovschi,  Tao Wang,  A. Warshel,  
 C. F. Williams,  Q. Wu,  X. Xu,  W. Zhang

 Please cite Q-Chem as follows:
 Y. Shao et al., Mol. Phys. 113, 184-215 (2015)
 DOI: 10.1080/00268976.2014.952696

 Q-Chem 5.0.2 for Intel X86 EM64T Linux

 Parts of Q-Chem use Armadillo 5.200.1 (Boston Tea Smuggler).
 http://arma.sourceforge.net/

 Q-Chem begins on Tue Mar  1 12:39:52 2022  

Host: 
0

     Scratch files written to ./optimize.d//
 Dec517 15110_ 26548  26544 5633   
Processing $rem in /home/leeping/opt/qchem/5.0.2-openmp/config/preferences.
 MEM_STATIC 2000
 MEM_TOTAL  8000
 SYMMETRY   OFF
 SYM_IGNORE TRUE 

Checking the input file for inconsistencies... 	...done.

--------------------------------------------------------------
User input:
--------------------------------------------------------------
$molecule
0 2
C        1.2327470944    0.1822936509   -1.1952922431
C        0.4762600568   -1.1590477055   -1.0849940370
C       -0.7895922046   -0.5982468002   -2.2575363973
C       -1.1250215908    0.0047550621   -0.4459442803
C       -0.6586032874    0.9035437792   -1.9145655914
N        0.8912296832    1.3390975700   -1.5478749731
H        2.1682170976    0.1990744937   -0.5831309846
H        1.2350823709   -1.9464056127   -1.1810565186
H       -1.1369605806   -1.5920103737   -2.1268015344
H       -1.9980921963    0.3070872651    0.1239860989
H       -1.3597692314    1.5993594466   -2.4385751045
C       -0.1267920611   -0.7790707121    0.2355090379
H        0.2102924680   -0.5718049088    1.2860010558
$end

$rem
method                b3lyp
basis                 6-31g(d)
unrestricted          true
symmetry              off
sym_ignore            true
incdft                false
incfock               0
scf_convergence       8
thresh                14
jobtype               opt
scf_guess             read
scf_algorithm         diis
max_scf_cycles        100
geom_opt_tol_gradient 600
geom_opt_tol_displacement 2400
geom_opt_tol_energy   200
geom_opt_max_cycles   100
$end

--------------------------------------------------------------
 ----------------------------------------------------------------
             Standard Nuclear Orientation (Angstroms)
    I     Atom           X                Y                Z
 ----------------------------------------------------------------
    1      C       1.2327470944     0.1822936509    -1.1952922431
    2      C       0.4762600568    -1.1590477055    -1.0849940370
    3      C      -0.7895922046    -0.5982468002    -2.2575363973
    4      C      -1.1250215908     0.0047550621    -0.4459442803
    5      C      -0.6586032874     0.9035437792    -1.9145655914
    6      N       0.8912296832     1.3390975700    -1.5478749731
    7      H       2.1682170976     0.1990744937    -0.5831309846
    8      H       1.2350823709    -1.9464056127    -1.1810565186
    9      H      -1.1369605806    -1.5920103737    -2.1268015344
   10      H      -1.9980921963     0.3070872651     0.1239860989
   11      H      -1.3597692314     1.5993594466    -2.4385751045
   12      C      -0.1267920611    -0.7790707121     0.2355090379
   13      H       0.2102924680    -0.5718049088     1.2860010558
 ----------------------------------------------------------------
 Nuclear Repulsion Energy =   271.7333601027 hartrees
 There are       25 alpha and       24 beta electrons
 Requested basis set is 6-31G(d)
 There are 40 shells and 117 basis functions

 Total QAlloc Memory Limit   8000 MB
 Mega-Array Size      1956 MB
 MEM_STATIC part      2000 MB
 A cutoff of  1.0D-14 yielded    811 shell pairs
 There are      7083 function pairs
 
 -------------------------------------------------------
 OpenMP Integral Computing Module                       
 Release: version 1.0, May 2013, Q-Chem Inc. Pittsburgh 
 -------------------------------------------------------
 Integral Job Info:
 Integral job number is                      11
 Integral operator is                         1
 short-range coefficients                     0
 long-range coefficients              100000000
 Omega coefficients                           0
 if combine SR and LR in K                    0
 Integral screening is                        0
 Integral computing path is                   2
 max size of driver memory is            800000
 size of driver memory is                593474
 size of scratch memory is              2361544
 max col of scratch BK array               1296
 max len of scratch array in speh3          155
 max len of scratch index in speh4           18
 max int batch size is                      520
 min int batch size is                       52
 fixed nKL is                                52
 max L of basis functions is                  2
 order of int derivative is                   0
 number of shells is                         40
 number of basis is                         117
 number of cartesian basis is               117
 number of contracted shell pairs           811
 number of primitive shell pairs           3581
 maxK2 (contraction) of shell pair           36
 max number of K2 of shell pair               1
 max number of CS2 of shell pair             84
 max number of PS2 of shell pair            420
 mem total for path MDJ                  535308
 -------------------------------------------------------
 Smallest overlap matrix eigenvalue = 3.03E-03

 Scale SEOQF with 1.000000e-01/1.000000e-01/1.000000e-01

 Standard Electronic Orientation quadrupole field applied
 Nucleus-field energy     =    -0.0000000063 hartrees
 Guess MOs from SCF MO coefficient file
 Reading MOs from coefficient file
 Reading MOs from coefficient file
 An unrestricted hybrid HF-DFT SCF calculation will be
 performed using Pulay DIIS extrapolation
 Exchange:     0.2000 Hartree-Fock + 0.0800 Slater + 0.7200 B88
 Correlation:  0.1900 VWN1RPA + 0.8100 LYP
 Using SG-1 standard quadrature grid
 SCF converges when DIIS error is below 1.0E-08
Using Q-Chem read-in guess as SCF_GUESS READ specified.

 using 4 threads for integral computing
 -------------------------------------------------------
 OpenMP Integral computing Module                
 Release: version 1.0, May 2013, Q-Chem Inc. Pittsburgh 
 -------------------------------------------------------
 -------------------------------------------------------
 OpenMP BLAS3 based DFT computing Module                
 Release: version 1.0, May 2013, Q-Chem Inc. Pittsburgh 
 -------------------------------------------------------
 ---------------------------------------
  Cycle       Energy         DIIS Error
 ---------------------------------------
    1    -286.6499640914      1.57E-09
    2    -286.6499640914      3.04E-09 Convergence criterion met
 ---------------------------------------
 <S^2> = 0.7891
 SCF time:  CPU 5.34 s  wall 3.76 s
 SCF   energy in the final basis set = -286.64996409
 Total energy in the final basis set = -286.64996409
 
 --------------------------------------------------------------
 
                    Orbital Energies (a.u.)
 --------------------------------------------------------------
 
 Alpha MOs
 -- Occupied --
-14.336 -10.277 -10.244 -10.228 -10.228 -10.222 -10.216  -0.936
 -0.832  -0.743  -0.678  -0.601  -0.557  -0.526  -0.513  -0.466
 -0.430  -0.408  -0.368  -0.354  -0.320  -0.292  -0.286  -0.239
 -0.177
 -- Virtual --
 -0.020   0.020   0.037   0.077   0.087   0.109   0.115   0.146
  0.154   0.168   0.194   0.242   0.246   0.273   0.298   0.373
  0.487   0.506   0.519   0.527   0.567   0.574   0.593   0.612
  0.621   0.632   0.658   0.693   0.703   0.721   0.773   0.786
  0.794   0.808   0.820   0.839   0.851   0.867   0.904   0.919
  0.940   0.976   1.036   1.141   1.162   1.220   1.275   1.310
  1.373   1.422   1.447   1.497   1.511   1.528   1.617   1.656
  1.684   1.721   1.765   1.826   1.866   1.882   1.920   2.002
  2.031   2.082   2.162   2.185   2.237   2.245   2.261   2.324
  2.375   2.391   2.430   2.446   2.483   2.517   2.563   2.609
  2.660   2.705   2.759   2.858   2.945   3.840   4.168   4.239
  4.253   4.414   4.419   4.531
 
 Beta MOs
 -- Occupied --
-14.335 -10.274 -10.239 -10.232 -10.229 -10.221 -10.207  -0.933
 -0.827  -0.734  -0.672  -0.593  -0.551  -0.519  -0.511  -0.461
 -0.425  -0.396  -0.365  -0.348  -0.309  -0.281  -0.280  -0.230
 -- Virtual --
 -0.083  -0.009   0.032   0.049   0.084   0.098   0.114   0.121
  0.149   0.157   0.170   0.196   0.246   0.250   0.278   0.309
  0.376   0.500   0.510   0.524   0.541   0.568   0.577   0.600
  0.622   0.626   0.643   0.663   0.697   0.712   0.725   0.775
  0.792   0.797   0.812   0.821   0.842   0.853   0.872   0.907
  0.924   0.944   0.979   1.039   1.147   1.170   1.225   1.281
  1.317   1.379   1.429   1.454   1.506   1.520   1.536   1.622
  1.662   1.691   1.726   1.773   1.827   1.878   1.889   1.925
  2.011   2.042   2.092   2.176   2.195   2.247   2.258   2.266
  2.334   2.379   2.403   2.433   2.452   2.488   2.525   2.568
  2.614   2.667   2.713   2.763   2.861   2.947   3.843   4.179
  4.244   4.260   4.421   4.426   4.534
 --------------------------------------------------------------
 
          Ground-State Mulliken Net Atomic Charges

     Atom                 Charge (a.u.)    Spin (a.u.)
  --------------------------------------------------------
      1 C                     0.087797       0.074760
      2 C                    -0.291559      -0.067973
      3 C                    -0.138100       0.370392
      4 C                    -0.193858      -0.249776
      5 C                    -0.095965       0.209029
      6 N                    -0.304052       0.042397
      7 H                     0.122785       0.001171
      8 H                     0.153208       0.014665
      9 H                     0.235861      -0.021305
     10 H                     0.143796       0.014427
     11 H                     0.174663      -0.005715
     12 C                    -0.059246       0.634538
     13 H                     0.164670      -0.016611
  --------------------------------------------------------
  Sum of atomic charges =    -0.000000
  Sum of spin   charges =     1.000000

 -----------------------------------------------------------------
                    Cartesian Multipole Moments
 -----------------------------------------------------------------
    Charge (ESU x 10^10)
                 0.0000
    Dipole Moment (Debye)
         X      -0.9887      Y      -1.8452      Z       0.8704
       Tot       2.2671
    Quadrupole Moments (Debye-Ang)
        XX     -40.2942     XY      -4.2812     YY     -43.1369
        XZ       3.1938     YZ       2.3649     ZZ     -42.1318
    Octopole Moments (Debye-Ang^2)
       XXX       3.5322    XXY       0.6545    XYY      -4.4131
       YYY      -3.8105    XXZ      48.0852    XYZ       6.4973
       YYZ      45.3768    XZZ      -5.7915    YZZ       0.9103
       ZZZ     149.9310
    Hexadecapole Moments (Debye-Ang^3)
      XXXX    -251.4988   XXXY     -16.2901   XXYY     -81.3513
      XYYY     -20.3545   YYYY    -245.2108   XXXZ      -7.9495
      XXYZ      10.2173   XYYZ      11.5875   YYYZ      39.3061
      XXZZ    -135.5129   XYZZ     -17.6197   YYZZ    -126.6333
      XZZZ       5.0165   YZZZ      16.3651   ZZZZ    -574.3380
 -----------------------------------------------------------------
 Calculating analytic gradient of the SCF energy
 Gradient of SCF Energy
            1           2           3           4           5           6
    1  -0.0934243  -0.0505614  -0.0517123   0.0140630  -0.0023359   0.0873992
    2   0.0220382  -0.0660825  -0.0006172  -0.0299513   0.0390396   0.0187586
    3  -0.0407188   0.0191788  -0.1009396   0.0100183  -0.0389463   0.0389258
            7           8           9          10          11          12
    1   0.0003218   0.0131321   0.0427770   0.0123729  -0.0131504   0.0376730
    2   0.0065405   0.0076928   0.0056083  -0.0070185   0.0089659  -0.0203374
    3   0.0139167   0.0078498   0.0283573   0.0154822  -0.0164755   0.0419102
           13
    1   0.0034453
    2   0.0153629
    3   0.0214410
 Max gradient component =       1.009E-01
 RMS gradient           =       3.695E-02
 Gradient time:  CPU 8.03 s  wall 3.17 s
 Geometry Optimization Parameters
   NAtoms,    NIC,     NZ,  NCons,   NDum,   NFix, NCnnct, MaxDiis
       13     128       0       0       0       0       0       0


** GEOMETRY OPTIMIZATION IN DELOCALIZED INTERNAL COORDINATES **
   Searching for a Minimum

   Optimization Cycle:   1

                       Coordinates (Angstroms)
     ATOM                X               Y               Z
      1  C         1.2327470944    0.1822936509   -1.1952922431
      2  C         0.4762600568   -1.1590477055   -1.0849940370
      3  C        -0.7895922046   -0.5982468002   -2.2575363973
      4  C        -1.1250215908    0.0047550621   -0.4459442803
      5  C        -0.6586032874    0.9035437792   -1.9145655914
      6  N         0.8912296832    1.3390975700   -1.5478749731
      7  H         2.1682170976    0.1990744937   -0.5831309846
      8  H         1.2350823709   -1.9464056127   -1.1810565186
      9  H        -1.1369605806   -1.5920103737   -2.1268015344
     10  H        -1.9980921963    0.3070872651    0.1239860989
     11  H        -1.3597692314    1.5993594466   -2.4385751045
     12  C        -0.1267920611   -0.7790707121    0.2355090379
     13  H         0.2102924680   -0.5718049088    1.2860010558
   Point Group: c1    Number of degrees of freedom:    33


   Energy is   -286.649964091


 Attempting to Generate Delocalized Internal Coordinates

 33 Hessian modes will be used to form the next step
  Hessian Eigenvalues:
     0.008957    0.010818    0.012156    0.013304    0.015038    0.019335
     0.023925    0.024902    0.043051    0.060954    0.065174    0.075858
     0.081994    0.084406    0.099342    0.114406    0.129604    0.135705
     0.148550    0.156462    0.171601    0.213008    0.219672    0.265059
     0.285413    0.313066    0.317467    0.317582    0.339364    0.343826
     0.353288    0.384159    0.707748

 Minimum Search - Taking Simple RFO Step
 Searching for Lamda that Minimizes Along All modes
 Value Taken    Lamda =  -0.09942462
 Calculated Step too Large.  Step scaled by  0.450167
 Step Taken.  Stepsize is  0.300000

                             Maximum     Tolerance    Cnvgd?
         Gradient           0.069851      0.000600      NO
         Displacement       0.113957      0.002400      NO
         Energy change     *********      0.000002      NO


 New Cartesian Coordinates Obtained by Inverse Iteration

 Displacement from previous Coordinates is:  0.318741
 ----------------------------------------------------------------
             Standard Nuclear Orientation (Angstroms)
    I     Atom           X                Y                Z
 ----------------------------------------------------------------
    1      C       1.2881550564     0.1802698265    -1.1911965933
    2      C       0.5023170820    -1.1364702029    -1.0881479361
    3      C      -0.7875762496    -0.5999475923    -2.2189616689
    4      C      -1.1523963522     0.0198441959    -0.4509839802
    5      C      -0.6602850862     0.8815851423    -1.8770163647
    6      N       0.8692064574     1.3147756757    -1.5502710872
    7      H       2.2393947191     0.2039598135    -0.6128302184
    8      H       1.2492634571    -1.9306932425    -1.2014397342
    9      H      -1.1524599704    -1.5970093749    -2.0980888303
   10      H      -2.0447956417     0.3307231573     0.0873228230
   11      H      -1.3495940201     1.5739813355    -2.3951350076
   12      C      -0.1555918741    -0.7675013371     0.2117637743
   13      H       0.1733600409    -0.5848922423     1.2547093518
 ----------------------------------------------------------------
 Nuclear Repulsion Energy =   273.0555475447 hartrees
 There are       25 alpha and       24 beta electrons
 Applying Cartesian multipole field
    Component          Value
    ---------          -----
     (2,0,0)        1.00000E-11
     (0,2,0)        2.00000E-11
     (0,0,2)       -3.00000E-11
 Nucleus-field energy     =    -0.0000000061 hartrees
 Requested basis set is 6-31G(d)
 There are 40 shells and 117 basis functions
 A cutoff of  1.0D-14 yielded    811 shell pairs
 There are      7083 function pairs
 Smallest overlap matrix eigenvalue = 2.60E-03
 Guess MOs from SCF MO coefficient file
 Reading MOs from coefficient file
 Reading MOs from coefficient file
 An unrestricted hybrid HF-DFT SCF calculation will be
 performed using Pulay DIIS extrapolation
 Exchange:     0.2000 Hartree-Fock + 0.0800 Slater + 0.7200 B88
 Correlation:  0.1900 VWN1RPA + 0.8100 LYP
 Using SG-1 standard quadrature grid
 SCF converges when DIIS error is below 1.0E-08
 Geometry optimization detected.  Setting ReadMinima to 0
 Setting SaveMinima to 0
Using Q-Chem read-in guess as SCF_GUESS READ specified.

 using 4 threads for integral computing
 -------------------------------------------------------
 OpenMP Integral computing Module                
 Release: version 1.0, May 2013, Q-Chem Inc. Pittsburgh 
 -------------------------------------------------------
 -------------------------------------------------------
 OpenMP BLAS3 based DFT computing Module                
 Release: version 1.0, May 2013, Q-Chem Inc. Pittsburgh 
 -------------------------------------------------------
 ---------------------------------------
  Cycle       Energy         DIIS Error
 ---------------------------------------
    1    -286.7393088078      2.53E-03
    2    -286.6886129413      1.01E-03
    3    -286.6877457171      1.30E-03
    4    -286.6904869013      2.42E-04
    5    -286.6905779973      7.86E-05
    6    -286.6905882267      3.73E-05
    7    -286.6905915709      7.46E-06
    8    -286.6905919043      6.11E-06
    9    -286.6905920829      1.77E-06
   10    -286.6905921467      9.23E-07
   11    -286.6905921758      3.66E-07
   12    -286.6905921854      1.53E-07
   13    -286.6905921881      9.64E-08
   14    -286.6905921889      5.03E-08
   15    -286.6905921892      1.08E-08
   16    -286.6905921892      4.71E-09 Convergence criterion met
 ---------------------------------------
 <S^2> = 0.7841
 SCF time:  CPU 42.17 s  wall 26.31 s
 SCF   energy in the final basis set = -286.69059219
 Total energy in the final basis set = -286.69059219
 
 --------------------------------------------------------------
 
                    Orbital Energies (a.u.)
 --------------------------------------------------------------
 
 Alpha MOs
 -- Occupied --
-14.332 -10.271 -10.241 -10.226 -10.223 -10.221 -10.212  -0.937
 -0.830  -0.746  -0.678  -0.599  -0.562  -0.526  -0.513  -0.464
 -0.430  -0.409  -0.379  -0.357  -0.317  -0.290  -0.287  -0.245
 -0.174
 -- Virtual --
 -0.013   0.020   0.044   0.088   0.103   0.116   0.123   0.148
  0.154   0.169   0.197   0.245   0.255   0.284   0.307   0.367
  0.489   0.507   0.520   0.529   0.565   0.573   0.591   0.613
  0.620   0.631   0.660   0.692   0.703   0.718   0.774   0.789
  0.796   0.810   0.818   0.839   0.857   0.866   0.907   0.915
  0.938   0.976   1.038   1.152   1.166   1.233   1.268   1.306
  1.374   1.435   1.453   1.506   1.525   1.536   1.630   1.648
  1.687   1.747   1.793   1.819   1.874   1.891   1.926   2.015
  2.030   2.077   2.170   2.205   2.226   2.259   2.278   2.325
  2.367   2.404   2.437   2.483   2.506   2.530   2.557   2.612
  2.671   2.720   2.774   2.884   2.921   3.849   4.175   4.240
  4.251   4.410   4.444   4.550
 
 Beta MOs
 -- Occupied --
-14.331 -10.268 -10.235 -10.229 -10.224 -10.220 -10.203  -0.933
 -0.825  -0.737  -0.672  -0.592  -0.557  -0.519  -0.511  -0.459
 -0.424  -0.398  -0.377  -0.350  -0.305  -0.285  -0.277  -0.234
 -- Virtual --
 -0.079  -0.001   0.034   0.052   0.094   0.111   0.122   0.130
  0.151   0.159   0.172   0.200   0.250   0.259   0.289   0.318
  0.369   0.503   0.511   0.525   0.543   0.567   0.577   0.597
  0.624   0.625   0.641   0.665   0.695   0.710   0.724   0.777
  0.794   0.800   0.814   0.821   0.842   0.859   0.871   0.910
  0.919   0.942   0.979   1.041   1.159   1.173   1.237   1.276
  1.311   1.379   1.441   1.462   1.514   1.535   1.544   1.636
  1.652   1.692   1.753   1.799   1.823   1.881   1.904   1.931
  2.022   2.041   2.088   2.185   2.214   2.242   2.265   2.283
  2.333   2.374   2.415   2.443   2.486   2.514   2.539   2.562
  2.617   2.677   2.728   2.779   2.887   2.923   3.852   4.185
  4.242   4.262   4.416   4.450   4.552
 --------------------------------------------------------------
 
          Ground-State Mulliken Net Atomic Charges

     Atom                 Charge (a.u.)    Spin (a.u.)
  --------------------------------------------------------
      1 C                     0.080705       0.069201
      2 C                    -0.293095      -0.069715
      3 C                    -0.133458       0.370462
      4 C                    -0.192025      -0.230087
      5 C                    -0.088126       0.171755
      6 N                    -0.309733       0.047115
      7 H                     0.130593       0.002060
      8 H                     0.150672       0.017050
      9 H                     0.230557      -0.020924
     10 H                     0.146308       0.014373
     11 H                     0.173258      -0.002770
     12 C                    -0.053498       0.647498
     13 H                     0.157842      -0.016018
  --------------------------------------------------------
  Sum of atomic charges =     0.000000
  Sum of spin   charges =     1.000000

 -----------------------------------------------------------------
                    Cartesian Multipole Moments
 -----------------------------------------------------------------
    Charge (ESU x 10^10)
                 0.0000
    Dipole Moment (Debye)
         X      -0.9554      Y      -1.8279      Z       0.8519
       Tot       2.2315
    Quadrupole Moments (Debye-Ang)
        XX     -39.4965     XY      -4.2513     YY     -43.2112
        XZ       3.0343     YZ       2.5094     ZZ     -42.3904
    Octopole Moments (Debye-Ang^2)
       XXX       3.9829    XXY       0.7599    XYY      -4.4258
       YYY      -3.7024    XXZ      47.2278    XYZ       6.3723
       YYZ      45.4587    XZZ      -5.4496    YZZ       0.4669
       ZZZ     149.5226
    Hexadecapole Moments (Debye-Ang^3)
      XXXX    -254.2244   XXXY     -15.5826   XXYY     -81.5285
      XYYY     -19.3193   YYYY    -239.9665   XXXZ      -6.2760
      XXYZ       9.9992   XYYZ      11.8033   YYYZ      38.0767
      XXZZ    -134.4690   XYZZ     -16.9333   YYZZ    -124.5371
      XZZZ       5.7698   YZZZ      16.0117   ZZZZ    -563.8782
 -----------------------------------------------------------------
 Calculating analytic gradient of the SCF energy
 Gradient of SCF Energy
            1           2           3           4           5           6
    1  -0.0648370  -0.0395604  -0.0542643   0.0066962  -0.0089871   0.0758732
    2   0.0134167  -0.0618779   0.0135179  -0.0294414   0.0346376   0.0160537
    3  -0.0290049   0.0173377  -0.0956711   0.0187666  -0.0402052   0.0316786
            7           8           9          10          11          12
    1   0.0016962   0.0145619   0.0393872   0.0083006  -0.0094509   0.0288569
    2   0.0044199   0.0102072  -0.0006585  -0.0044242   0.0038243  -0.0133242
    3   0.0131079   0.0041734   0.0286112   0.0134877  -0.0127849   0.0373530
           13
    1   0.0017273
    2   0.0136491
    3   0.0131500
 Max gradient component =       9.567E-02
 RMS gradient           =       3.226E-02
 Gradient time:  CPU 7.59 s  wall 3.04 s
 Geometry Optimization Parameters
   NAtoms,    NIC,     NZ,  NCons,   NDum,   NFix, NCnnct, MaxDiis
       13     128       0       0       0       0       0       0

 Cartesian Hessian Update
 Hessian Updated using BFGS Update


** GEOMETRY OPTIMIZATION IN DELOCALIZED INTERNAL COORDINATES **
   Searching for a Minimum

   Optimization Cycle:   2

                       Coordinates (Angstroms)
     ATOM                X               Y               Z
      1  C         1.2881550564    0.1802698265   -1.1911965933
      2  C         0.5023170820   -1.1364702029   -1.0881479361
      3  C        -0.7875762496   -0.5999475923   -2.2189616689
      4  C        -1.1523963522    0.0198441959   -0.4509839802
      5  C        -0.6602850862    0.8815851423   -1.8770163647
      6  N         0.8692064574    1.3147756757   -1.5502710872
      7  H         2.2393947191    0.2039598135   -0.6128302184
      8  H         1.2492634571   -1.9306932425   -1.2014397342
      9  H        -1.1524599704   -1.5970093749   -2.0980888303
     10  H        -2.0447956417    0.3307231573    0.0873228230
     11  H        -1.3495940201    1.5739813355   -2.3951350076
     12  C        -0.1555918741   -0.7675013371    0.2117637743
     13  H         0.1733600409   -0.5848922423    1.2547093518
   Point Group: c1    Number of degrees of freedom:    33


   Energy is   -286.690592189

 Hessian Updated using BFGS Update

 33 Hessian modes will be used to form the next step
  Hessian Eigenvalues:
     0.008787    0.010865    0.012205    0.013304    0.014967    0.019324
     0.023131    0.024301    0.042945    0.059676    0.063683    0.075974
     0.077430    0.083215    0.088887    0.105621    0.114884    0.130133
     0.151666    0.156419    0.189549    0.204595    0.245679    0.267400
     0.287098    0.315230    0.316404    0.328046    0.339385    0.344377
     0.354693    0.388014    0.708419

 Minimum Search - Taking Simple RFO Step
 Searching for Lamda that Minimizes Along All modes
 Value Taken    Lamda =  -0.09320581
 Calculated Step too Large.  Step scaled by  0.389163
 Step Taken.  Stepsize is  0.300000

                             Maximum     Tolerance    Cnvgd?
         Gradient           0.047495      0.000600      NO
         Displacement       0.094980      0.002400      NO
         Energy change     -0.040628      0.000002      NO


 New Cartesian Coordinates Obtained by Inverse Iteration

 Displacement from previous Coordinates is:  0.286148
 ----------------------------------------------------------------
             Standard Nuclear Orientation (Angstroms)
    I     Atom           X                Y                Z
 ----------------------------------------------------------------
    1      C       1.3204223930     0.1827763768    -1.1902843271
    2      C       0.5177561010    -1.1169694496    -1.0916763172
    3      C      -0.7736540786    -0.6072437609    -2.1781403375
    4      C      -1.1638879765     0.0369170860    -0.4637113293
    5      C      -0.6505648288     0.8575702491    -1.8354655728
    6      N       0.8314352353     1.2940787130    -1.5506983643
    7      H       2.2799201194     0.2233805237    -0.6424120799
    8      H       1.2468768674    -1.9236132898    -1.2184619561
    9      H      -1.1590560524    -1.6029464116    -2.0652701233
   10      H      -2.0714148037     0.3603418830     0.0410037256
   11      H      -1.3274420130     1.5514972003    -2.3481579022
   12      C      -0.1792723172    -0.7606155600     0.1873874205
   13      H       0.1478789727    -0.6065484054     1.2256116918
 ----------------------------------------------------------------
 Nuclear Repulsion Energy =   275.7274758505 hartrees
 There are       25 alpha and       24 beta electrons
 Applying Cartesian multipole field
    Component          Value
    ---------          -----
     (2,0,0)        1.00000E-11
     (0,2,0)        2.00000E-11
     (0,0,2)       -3.00000E-11
 Nucleus-field energy     =    -0.0000000059 hartrees
 Requested basis set is 6-31G(d)
 There are 40 shells and 117 basis functions
 A cutoff of  1.0D-14 yielded    811 shell pairs
 There are      7083 function pairs
 Smallest overlap matrix eigenvalue = 2.17E-03
 Guess MOs from SCF MO coefficient file
 Reading MOs from coefficient file
 Reading MOs from coefficient file
 An unrestricted hybrid HF-DFT SCF calculation will be
 performed using Pulay DIIS extrapolation
 Exchange:     0.2000 Hartree-Fock + 0.0800 Slater + 0.7200 B88
 Correlation:  0.1900 VWN1RPA + 0.8100 LYP
 Using SG-1 standard quadrature grid
 SCF converges when DIIS error is below 1.0E-08
 Geometry optimization detected.  Setting ReadMinima to 0
 Setting SaveMinima to 0
Using Q-Chem read-in guess as SCF_GUESS READ specified.

 using 4 threads for integral computing
 -------------------------------------------------------
 OpenMP Integral computing Module                
 Release: version 1.0, May 2013, Q-Chem Inc. Pittsburgh 
 -------------------------------------------------------
 -------------------------------------------------------
 OpenMP BLAS3 based DFT computing Module                
 Release: version 1.0, May 2013, Q-Chem Inc. Pittsburgh 
 -------------------------------------------------------
 ---------------------------------------
  Cycle       Energy         DIIS Error
 ---------------------------------------
    1    -286.7818170226      2.66E-03
    2    -286.7220649912      9.31E-04
    3    -286.7211538802      1.21E-03
    4    -286.7236742614      1.35E-04
    5    -286.7237049845      4.16E-05
    6    -286.7237088170      1.10E-05
    7    -286.7237093799      5.95E-06
    8    -286.7237095946      1.76E-06
    9    -286.7237096525      1.54E-06
   10    -286.7237096860      3.83E-07
   11    -286.7237096971      2.81E-07
   12    -286.7237097002      1.37E-07
   13    -286.7237097014      1.17E-07
   14    -286.7237097019      3.61E-08
   15    -286.7237097020      8.81E-09 Convergence criterion met
 ---------------------------------------
 <S^2> = 0.7796
 SCF time:  CPU 39.53 s  wall 20.59 s
 SCF   energy in the final basis set = -286.72370970
 Total energy in the final basis set = -286.72370970
 
 --------------------------------------------------------------
 
                    Orbital Energies (a.u.)
 --------------------------------------------------------------
 
 Alpha MOs
 -- Occupied --
-14.328 -10.264 -10.236 -10.222 -10.219 -10.219 -10.209  -0.944
 -0.833  -0.749  -0.679  -0.599  -0.570  -0.526  -0.517  -0.464
 -0.431  -0.413  -0.389  -0.359  -0.315  -0.295  -0.283  -0.248
 -0.173
 -- Virtual --
 -0.005   0.017   0.057   0.097   0.115   0.127   0.133   0.151
  0.160   0.175   0.203   0.250   0.264   0.294   0.317   0.365
  0.492   0.506   0.522   0.533   0.565   0.575   0.590   0.613
  0.618   0.633   0.664   0.690   0.703   0.719   0.775   0.790
  0.801   0.812   0.816   0.839   0.859   0.867   0.910   0.919
  0.938   0.976   1.039   1.165   1.167   1.241   1.266   1.310
  1.373   1.439   1.467   1.511   1.546   1.551   1.645   1.660
  1.703   1.782   1.813   1.834   1.875   1.918   1.936   2.022
  2.044   2.080   2.186   2.210   2.233   2.272   2.306   2.327
  2.377   2.428   2.440   2.523   2.532   2.554   2.564   2.617
  2.681   2.746   2.794   2.904   2.915   3.870   4.186   4.244
  4.254   4.412   4.476   4.578
 
 Beta MOs
 -- Occupied --
-14.327 -10.262 -10.231 -10.225 -10.220 -10.218 -10.199  -0.940
 -0.827  -0.741  -0.672  -0.592  -0.565  -0.518  -0.514  -0.458
 -0.425  -0.402  -0.386  -0.353  -0.303  -0.290  -0.273  -0.237
 -- Virtual --
 -0.077   0.008   0.033   0.063   0.103   0.118   0.135   0.140
  0.152   0.164   0.179   0.207   0.255   0.268   0.299   0.327
  0.368   0.507   0.509   0.527   0.547   0.567   0.578   0.596
  0.622   0.626   0.641   0.669   0.692   0.711   0.725   0.779
  0.795   0.805   0.815   0.821   0.841   0.862   0.872   0.914
  0.923   0.942   0.978   1.043   1.172   1.175   1.245   1.274
  1.315   1.378   1.444   1.475   1.518   1.557   1.561   1.652
  1.665   1.706   1.787   1.815   1.846   1.880   1.931   1.941
  2.028   2.055   2.091   2.201   2.219   2.250   2.277   2.310
  2.334   2.384   2.437   2.448   2.528   2.539   2.560   2.571
  2.622   2.686   2.755   2.799   2.907   2.917   3.872   4.196
  4.245   4.268   4.418   4.482   4.581
 --------------------------------------------------------------
 
          Ground-State Mulliken Net Atomic Charges

     Atom                 Charge (a.u.)    Spin (a.u.)
  --------------------------------------------------------
      1 C                     0.076425       0.068890
      2 C                    -0.294238      -0.070273
      3 C                    -0.128583       0.366002
      4 C                    -0.187669      -0.210504
      5 C                    -0.076940       0.135117
      6 N                    -0.314870       0.048615
      7 H                     0.134926       0.002431
      8 H                     0.148225       0.018954
      9 H                     0.224175      -0.020166
     10 H                     0.147758       0.014477
     11 H                     0.169839      -0.000046
     12 C                    -0.051062       0.661192
     13 H                     0.152014      -0.014690
  --------------------------------------------------------
  Sum of atomic charges =     0.000000
  Sum of spin   charges =     1.000000

 -----------------------------------------------------------------
                    Cartesian Multipole Moments
 -----------------------------------------------------------------
    Charge (ESU x 10^10)
                 0.0000
    Dipole Moment (Debye)
         X      -0.9097      Y      -1.8078      Z       0.8530
       Tot       2.1962
    Quadrupole Moments (Debye-Ang)
        XX     -38.9259     XY      -4.1381     YY     -43.1720
        XZ       2.8207     YZ       2.6172     ZZ     -42.6573
    Octopole Moments (Debye-Ang^2)
       XXX       4.3967    XXY       1.0108    XYY      -4.2998
       YYY      -3.5738    XXZ      46.5242    XYZ       6.0914
       YYZ      45.5376    XZZ      -4.8052    YZZ       0.0880
       ZZZ     149.1990
    Hexadecapole Moments (Debye-Ang^3)
      XXXX    -252.0075   XXXY     -14.4885   XXYY     -80.7943
      XYYY     -18.2004   YYYY    -235.4789   XXXZ      -4.9661
      XXYZ       9.5700   XYYZ      11.6293   YYYZ      36.6576
      XXZZ    -132.5973   XYZZ     -15.9614   YYZZ    -122.5960
      XZZZ       5.7151   YZZZ      15.4724   ZZZZ    -552.8611
 -----------------------------------------------------------------
 Calculating analytic gradient of the SCF energy
 Gradient of SCF Energy
            1           2           3           4           5           6
    1  -0.0460624  -0.0334895  -0.0537504   0.0055168  -0.0079201   0.0610263
    2   0.0064691  -0.0549495   0.0260779  -0.0288329   0.0238655   0.0138483
    3  -0.0205907   0.0171959  -0.0877393   0.0218756  -0.0349074   0.0253057
            7           8           9          10          11          12
    1   0.0000732   0.0147920   0.0376993   0.0062247  -0.0053241   0.0200004
    2   0.0035457   0.0113399  -0.0047195  -0.0020298   0.0006360  -0.0074700
    3   0.0111104   0.0017444   0.0294813   0.0108081  -0.0094323   0.0282201
           13
    1   0.0012138
    2   0.0122192
    3   0.0069281
 Max gradient component =       8.774E-02
 RMS gradient           =       2.800E-02
 Gradient time:  CPU 8.12 s  wall 3.17 s
 Geometry Optimization Parameters
   NAtoms,    NIC,     NZ,  NCons,   NDum,   NFix, NCnnct, MaxDiis
       13     128       0       0       0       0       0       0

 Cartesian Hessian Update
 Hessian Updated using BFGS Update


** GEOMETRY OPTIMIZATION IN DELOCALIZED INTERNAL COORDINATES **
   Searching for a Minimum

   Optimization Cycle:   3

                       Coordinates (Angstroms)
     ATOM                X               Y               Z
      1  C         1.3204223930    0.1827763768   -1.1902843271
      2  C         0.5177561010   -1.1169694496   -1.0916763172
      3  C        -0.7736540786   -0.6072437609   -2.1781403375
      4  C        -1.1638879765    0.0369170860   -0.4637113293
      5  C        -0.6505648288    0.8575702491   -1.8354655728
      6  N         0.8314352353    1.2940787130   -1.5506983643
      7  H         2.2799201194    0.2233805237   -0.6424120799
      8  H         1.2468768674   -1.9236132898   -1.2184619561
      9  H        -1.1590560524   -1.6029464116   -2.0652701233
     10  H        -2.0714148037    0.3603418830    0.0410037256
     11  H        -1.3274420130    1.5514972003   -2.3481579022
     12  C        -0.1792723172   -0.7606155600    0.1873874205
     13  H         0.1478789727   -0.6065484054    1.2256116918
   Point Group: c1    Number of degrees of freedom:    33


   Energy is   -286.723709702

 Hessian Updated using BFGS Update

 33 Hessian modes will be used to form the next step
  Hessian Eigenvalues:
     0.008607    0.010851    0.012207    0.013305    0.014988    0.019353
     0.023342    0.024571    0.043105    0.060447    0.063434    0.076209
     0.078787    0.083520    0.088915    0.105878    0.114927    0.130287
     0.152239    0.156437    0.186413    0.202448    0.258200    0.266503
     0.287054    0.315456    0.317495    0.330616    0.339392    0.352926
     0.363471    0.392684    0.707442

 Minimum Search - Taking Simple RFO Step
 Searching for Lamda that Minimizes Along All modes
 Value Taken    Lamda =  -0.07183650
 Calculated Step too Large.  Step scaled by  0.397027
 Step Taken.  Stepsize is  0.300000

                             Maximum     Tolerance    Cnvgd?
         Gradient           0.037101      0.000600      NO
         Displacement       0.108882      0.002400      NO
         Energy change     -0.033118      0.000002      NO


 New Cartesian Coordinates Obtained by Inverse Iteration

 Displacement from previous Coordinates is:  0.270530
 ----------------------------------------------------------------
             Standard Nuclear Orientation (Angstroms)
    I     Atom           X                Y                Z
 ----------------------------------------------------------------
    1      C       1.3486106438     0.1899807427    -1.1923957588
    2      C       0.5319195528    -1.0979226943    -1.0929238194
    3      C      -0.7563268192    -0.6191811601    -2.1389885186
    4      C      -1.1723129507     0.0530435455    -0.4780213314
    5      C      -0.6394032409     0.8392204249    -1.7963232788
    6      N       0.7950415695     1.2771434265    -1.5510496473
    7      H       2.3190863831     0.2480951018    -0.6778874993
    8      H       1.2381156187    -1.9217352913    -1.2307259188
    9      H      -1.1687088684    -1.6088486757    -2.0352378978
   10      H      -2.0948483622     0.3858132999    -0.0078374691
   11      H      -1.3064896269     1.5360900183    -2.3080360534
   12      C      -0.1991960941    -0.7573069140     0.1700501915
   13      H       0.1235098131    -0.6357666694     1.2091015295
 ----------------------------------------------------------------
 Nuclear Repulsion Energy =   278.0877011654 hartrees
 There are       25 alpha and       24 beta electrons
 Applying Cartesian multipole field
    Component          Value
    ---------          -----
     (2,0,0)        1.00000E-11
     (0,2,0)        2.00000E-11
     (0,0,2)       -3.00000E-11
 Nucleus-field energy     =    -0.0000000057 hartrees
 Requested basis set is 6-31G(d)
 There are 40 shells and 117 basis functions
 A cutoff of  1.0D-14 yielded    811 shell pairs
 There are      7083 function pairs
 Smallest overlap matrix eigenvalue = 1.85E-03
 Guess MOs from SCF MO coefficient file
 Reading MOs from coefficient file
 Reading MOs from coefficient file
 An unrestricted hybrid HF-DFT SCF calculation will be
 performed using Pulay DIIS extrapolation
 Exchange:     0.2000 Hartree-Fock + 0.0800 Slater + 0.7200 B88
 Correlation:  0.1900 VWN1RPA + 0.8100 LYP
 Using SG-1 standard quadrature grid
 SCF converges when DIIS error is below 1.0E-08
 Geometry optimization detected.  Setting ReadMinima to 0
 Setting SaveMinima to 0
Using Q-Chem read-in guess as SCF_GUESS READ specified.

 using 4 threads for integral computing
 -------------------------------------------------------
 OpenMP Integral computing Module                
 Release: version 1.0, May 2013, Q-Chem Inc. Pittsburgh 
 -------------------------------------------------------
 -------------------------------------------------------
 OpenMP BLAS3 based DFT computing Module                
 Release: version 1.0, May 2013, Q-Chem Inc. Pittsburgh 
 -------------------------------------------------------
 ---------------------------------------
  Cycle       Energy         DIIS Error
 ---------------------------------------
    1    -286.7987508878      2.65E-03
    2    -286.7480432562      8.22E-04
    3    -286.7472782198      1.08E-03
    4    -286.7492838576      1.34E-04
    5    -286.7493101415      6.81E-05
    6    -286.7493180947      2.30E-05
    7    -286.7493192405      7.04E-06
    8    -286.7493195610      3.13E-06
    9    -286.7493196364      1.29E-06
   10    -286.7493196748      1.01E-06
   11    -286.7493196905      3.06E-07
   12    -286.7493196961      1.24E-07
   13    -286.7493196976      8.14E-08
   14    -286.7493196979      2.96E-08
   15    -286.7493196980      7.10E-09 Convergence criterion met
 ---------------------------------------
 <S^2> = 0.7763
 SCF time:  CPU 39.57 s  wall 21.82 s
 SCF   energy in the final basis set = -286.74931970
 Total energy in the final basis set = -286.74931970
 
 --------------------------------------------------------------
 
                    Orbital Energies (a.u.)
 --------------------------------------------------------------
 
 Alpha MOs
 -- Occupied --
-14.324 -10.258 -10.232 -10.219 -10.219 -10.215 -10.206  -0.952
 -0.836  -0.751  -0.679  -0.598  -0.577  -0.525  -0.520  -0.463
 -0.432  -0.415  -0.396  -0.360  -0.313  -0.300  -0.280  -0.251
 -0.173
 -- Virtual --
  0.002   0.014   0.072   0.104   0.118   0.137   0.144   0.151
  0.164   0.186   0.209   0.252   0.273   0.300   0.325   0.367
  0.495   0.504   0.524   0.539   0.565   0.575   0.590   0.613
  0.616   0.634   0.670   0.684   0.704   0.720   0.775   0.793
  0.802   0.810   0.820   0.837   0.857   0.869   0.910   0.926
  0.941   0.975   1.039   1.165   1.174   1.243   1.269   1.315
  1.372   1.443   1.473   1.510   1.557   1.582   1.654   1.681
  1.733   1.794   1.829   1.861   1.878   1.943   1.948   2.029
  2.049   2.086   2.196   2.205   2.249   2.275   2.321   2.338
  2.391   2.446   2.451   2.536   2.543   2.570   2.598   2.624
  2.685   2.769   2.811   2.902   2.934   3.895   4.196   4.244
  4.259   4.415   4.502   4.608
 
 Beta MOs
 -- Occupied --
-14.323 -10.256 -10.227 -10.222 -10.218 -10.216 -10.197  -0.948
 -0.830  -0.744  -0.670  -0.593  -0.572  -0.518  -0.517  -0.457
 -0.426  -0.406  -0.393  -0.354  -0.305  -0.291  -0.270  -0.239
 -- Virtual --
 -0.075   0.015   0.030   0.076   0.109   0.121   0.146   0.148
  0.153   0.167   0.192   0.213   0.258   0.277   0.306   0.334
  0.369   0.506   0.510   0.529   0.553   0.567   0.579   0.596
  0.622   0.624   0.642   0.674   0.687   0.711   0.727   0.782
  0.796   0.805   0.812   0.825   0.840   0.860   0.873   0.915
  0.929   0.945   0.977   1.043   1.172   1.181   1.250   1.275
  1.319   1.377   1.448   1.480   1.518   1.567   1.591   1.662
  1.686   1.735   1.796   1.835   1.871   1.884   1.951   1.960
  2.036   2.061   2.095   2.208   2.217   2.264   2.281   2.325
  2.345   2.399   2.453   2.459   2.542   2.550   2.577   2.604
  2.628   2.691   2.776   2.816   2.904   2.936   3.897   4.206
  4.246   4.273   4.421   4.507   4.611
 --------------------------------------------------------------
 
          Ground-State Mulliken Net Atomic Charges

     Atom                 Charge (a.u.)    Spin (a.u.)
  --------------------------------------------------------
      1 C                     0.074720       0.068584
      2 C                    -0.292530      -0.070761
      3 C                    -0.126677       0.358455
      4 C                    -0.181282      -0.194878
      5 C                    -0.064108       0.104322
      6 N                    -0.319188       0.047568
      7 H                     0.138396       0.002668
      8 H                     0.145501       0.020338
      9 H                     0.216756      -0.019012
     10 H                     0.148885       0.014161
     11 H                     0.166174       0.002354
     12 C                    -0.053442       0.679181
     13 H                     0.146796      -0.012979
  --------------------------------------------------------
  Sum of atomic charges =     0.000000
  Sum of spin   charges =     1.000000

 -----------------------------------------------------------------
                    Cartesian Multipole Moments
 -----------------------------------------------------------------
    Charge (ESU x 10^10)
                -0.0000
    Dipole Moment (Debye)
         X      -0.8581      Y      -1.7729      Z       0.8596
       Tot       2.1491
    Quadrupole Moments (Debye-Ang)
        XX     -38.4074     XY      -3.9807     YY     -43.1233
        XZ       2.6131     YZ       2.6693     ZZ     -42.9154
    Octopole Moments (Debye-Ang^2)
       XXX       4.7069    XXY       1.2904    XYY      -4.2040
       YYY      -3.4580    XXZ      45.7822    XYZ       5.7638
       YYZ      45.5997    XZZ      -4.2365    YZZ      -0.2285
       ZZZ     148.9418
    Hexadecapole Moments (Debye-Ang^3)
      XXXX    -249.4095   XXXY     -13.3695   XXYY     -80.1793
      XYYY     -17.3248   YYYY    -232.3411   XXXZ      -3.6990
      XXYZ       9.1971   XYYZ      11.5331   YYYZ      35.6089
      XXZZ    -130.7628   XYZZ     -15.0156   YYZZ    -121.0503
      XZZZ       5.8898   YZZZ      15.2212   ZZZZ    -543.2296
 -----------------------------------------------------------------
 Calculating analytic gradient of the SCF energy
 Gradient of SCF Energy
            1           2           3           4           5           6
    1  -0.0294159  -0.0288005  -0.0519587   0.0038349  -0.0018388   0.0420177
    2   0.0016165  -0.0469659   0.0328875  -0.0249789   0.0136562   0.0107571
    3  -0.0138959   0.0162721  -0.0795677   0.0191877  -0.0243547   0.0185334
            7           8           9          10          11          12
    1  -0.0008324   0.0144113   0.0357859   0.0047928  -0.0024360   0.0129826
    2   0.0027542   0.0113599  -0.0075034   0.0002317  -0.0003330  -0.0043291
    3   0.0094770  -0.0001993   0.0300404   0.0082544  -0.0070644   0.0197686
           13
    1   0.0014570
    2   0.0108471
    3   0.0035484
 Max gradient component =       7.957E-02
 RMS gradient           =       2.376E-02
 Gradient time:  CPU 7.60 s  wall 2.57 s
 Geometry Optimization Parameters
   NAtoms,    NIC,     NZ,  NCons,   NDum,   NFix, NCnnct, MaxDiis
       13     128       0       0       0       0       0       0

 Cartesian Hessian Update
 Hessian Updated using BFGS Update


** GEOMETRY OPTIMIZATION IN DELOCALIZED INTERNAL COORDINATES **
   Searching for a Minimum

   Optimization Cycle:   4

                       Coordinates (Angstroms)
     ATOM                X               Y               Z
      1  C         1.3486106438    0.1899807427   -1.1923957588
      2  C         0.5319195528   -1.0979226943   -1.0929238194
      3  C        -0.7563268192   -0.6191811601   -2.1389885186
      4  C        -1.1723129507    0.0530435455   -0.4780213314
      5  C        -0.6394032409    0.8392204249   -1.7963232788
      6  N         0.7950415695    1.2771434265   -1.5510496473
      7  H         2.3190863831    0.2480951018   -0.6778874993
      8  H         1.2381156187   -1.9217352913   -1.2307259188
      9  H        -1.1687088684   -1.6088486757   -2.0352378978
     10  H        -2.0948483622    0.3858132999   -0.0078374691
     11  H        -1.3064896269    1.5360900183   -2.3080360534
     12  C        -0.1991960941   -0.7573069140    0.1700501915
     13  H         0.1235098131   -0.6357666694    1.2091015295
   Point Group: c1    Number of degrees of freedom:    33


   Energy is   -286.749319698

 Hessian Updated using BFGS Update

 33 Hessian modes will be used to form the next step
  Hessian Eigenvalues:
     0.008482    0.010841    0.012212    0.013305    0.015031    0.019354
     0.023339    0.024879    0.043151    0.060837    0.063954    0.076328
     0.083159    0.085378    0.091255    0.108189    0.115076    0.131738
     0.152530    0.156436    0.190377    0.201628    0.263741    0.266662
     0.287045    0.315435    0.317556    0.330189    0.339383    0.353344
     0.370288    0.396329    0.707812

 Minimum Search - Taking Simple RFO Step
 Searching for Lamda that Minimizes Along All modes
 Value Taken    Lamda =  -0.05117107
 Calculated Step too Large.  Step scaled by  0.406256
 Step Taken.  Stepsize is  0.300000

                             Maximum     Tolerance    Cnvgd?
         Gradient           0.026003      0.000600      NO
         Displacement       0.154249      0.002400      NO
         Energy change     -0.025610      0.000002      NO


 New Cartesian Coordinates Obtained by Inverse Iteration

 Displacement from previous Coordinates is:  0.246939
 ----------------------------------------------------------------
             Standard Nuclear Orientation (Angstroms)
    I     Atom           X                Y                Z
 ----------------------------------------------------------------
    1      C       1.3741799712     0.2016627123    -1.1971946543
    2      C       0.5467848812    -1.0779562399    -1.0913393292
    3      C      -0.7362660716    -0.6329122632    -2.1019620594
    4      C      -1.1786117061     0.0659084495    -0.4895687492
    5      C      -0.6295728858     0.8272038831    -1.7636644610
    6      N       0.7703337701     1.2677662706    -1.5521493352
    7      H       2.3571412863     0.2742496111    -0.7183268200
    8      H       1.2241220312    -1.9237725643    -1.2360512094
    9      H      -1.1849100867    -1.6107627484    -2.0093297300
   10      H      -2.1166064828     0.4015482057    -0.0533645978
   11      H      -1.2898607289     1.5239114722    -2.2792017059
   12      C      -0.2156388348    -0.7568548393     0.1596040451
   13      H       0.0979024755    -0.6713667948     1.2022731347
 ----------------------------------------------------------------
 Nuclear Repulsion Energy =   279.8007932783 hartrees
 There are       25 alpha and       24 beta electrons
 Applying Cartesian multipole field
    Component          Value
    ---------          -----
     (2,0,0)        1.00000E-11
     (0,2,0)        2.00000E-11
     (0,0,2)       -3.00000E-11
 Nucleus-field energy     =    -0.0000000055 hartrees
 Requested basis set is 6-31G(d)
 There are 40 shells and 117 basis functions
 A cutoff of  1.0D-14 yielded    813 shell pairs
 There are      7085 function pairs
 Smallest overlap matrix eigenvalue = 1.63E-03
 Guess MOs from SCF MO coefficient file
 Reading MOs from coefficient file
 Reading MOs from coefficient file
 An unrestricted hybrid HF-DFT SCF calculation will be
 performed using Pulay DIIS extrapolation
 Exchange:     0.2000 Hartree-Fock + 0.0800 Slater + 0.7200 B88
 Correlation:  0.1900 VWN1RPA + 0.8100 LYP
 Using SG-1 standard quadrature grid
 SCF converges when DIIS error is below 1.0E-08
 Geometry optimization detected.  Setting ReadMinima to 0
 Setting SaveMinima to 0
Using Q-Chem read-in guess as SCF_GUESS READ specified.

 using 4 threads for integral computing
 -------------------------------------------------------
 OpenMP Integral computing Module                
 Release: version 1.0, May 2013, Q-Chem Inc. Pittsburgh 
 -------------------------------------------------------
 -------------------------------------------------------
 OpenMP BLAS3 based DFT computing Module                
 Release: version 1.0, May 2013, Q-Chem Inc. Pittsburgh 
 -------------------------------------------------------
 ---------------------------------------
  Cycle       Energy         DIIS Error
 ---------------------------------------
    1    -286.8069802178      2.26E-03
    2    -286.7670718669      6.50E-04
    3    -286.7666490854      8.36E-04
    4    -286.7678480135      1.20E-04
    5    -286.7678689077      6.16E-05
    6    -286.7678755022      1.72E-05
    7    -286.7678762047      6.01E-06
    8    -286.7678764187      2.01E-06
    9    -286.7678764627      8.64E-07
   10    -286.7678764839      5.89E-07
   11    -286.7678764901      2.70E-07
   12    -286.7678764927      1.03E-07
   13    -286.7678764935      6.35E-08
   14    -286.7678764937      1.99E-08
   15    -286.7678764937      4.85E-09 Convergence criterion met
 ---------------------------------------
 <S^2> = 0.7738
 SCF time:  CPU 39.65 s  wall 26.41 s
 SCF   energy in the final basis set = -286.76787649
 Total energy in the final basis set = -286.76787649
 
 --------------------------------------------------------------
 
                    Orbital Energies (a.u.)
 --------------------------------------------------------------
 
 Alpha MOs
 -- Occupied --
-14.322 -10.252 -10.229 -10.220 -10.217 -10.212 -10.205  -0.959
 -0.840  -0.751  -0.678  -0.598  -0.583  -0.526  -0.521  -0.462
 -0.433  -0.417  -0.401  -0.361  -0.316  -0.301  -0.278  -0.253
 -0.172
 -- Virtual --
  0.005   0.013   0.085   0.110   0.120   0.142   0.151   0.154
  0.164   0.197   0.212   0.254   0.282   0.303   0.330   0.371
  0.497   0.503   0.525   0.545   0.565   0.575   0.590   0.611
  0.617   0.635   0.674   0.680   0.706   0.721   0.774   0.795
  0.797   0.809   0.825   0.837   0.855   0.870   0.909   0.930
  0.949   0.974   1.039   1.161   1.176   1.246   1.273   1.320
  1.373   1.448   1.472   1.507   1.567   1.605   1.667   1.697
  1.759   1.796   1.840   1.868   1.893   1.953   1.976   2.030
  2.052   2.098   2.198   2.201   2.266   2.269   2.327   2.353
  2.406   2.453   2.466   2.532   2.558   2.585   2.614   2.639
  2.687   2.784   2.824   2.904   2.948   3.917   4.202   4.241
  4.264   4.418   4.518   4.635
 
 Beta MOs
 -- Occupied --
-14.321 -10.251 -10.223 -10.219 -10.218 -10.213 -10.195  -0.955
 -0.834  -0.745  -0.668  -0.593  -0.578  -0.521  -0.516  -0.456
 -0.428  -0.408  -0.398  -0.355  -0.311  -0.290  -0.268  -0.241
 -- Virtual --
 -0.072   0.022   0.026   0.088   0.114   0.124   0.150   0.153
  0.157   0.167   0.204   0.216   0.259   0.286   0.309   0.339
  0.374   0.504   0.513   0.531   0.559   0.567   0.579   0.598
  0.621   0.623   0.643   0.678   0.682   0.713   0.729   0.783
  0.798   0.801   0.811   0.831   0.839   0.857   0.874   0.915
  0.933   0.952   0.977   1.043   1.167   1.184   1.255   1.277
  1.324   1.378   1.454   1.479   1.515   1.577   1.615   1.673
  1.704   1.761   1.799   1.846   1.874   1.902   1.961   1.989
  2.042   2.059   2.106   2.207   2.216   2.276   2.279   2.331
  2.359   2.414   2.460   2.474   2.537   2.565   2.593   2.618
  2.643   2.692   2.790   2.830   2.906   2.950   3.919   4.213
  4.243   4.279   4.423   4.522   4.638
 --------------------------------------------------------------
 
          Ground-State Mulliken Net Atomic Charges

     Atom                 Charge (a.u.)    Spin (a.u.)
  --------------------------------------------------------
      1 C                     0.076327       0.066696
      2 C                    -0.287793      -0.070737
      3 C                    -0.126934       0.351643
      4 C                    -0.173714      -0.182723
      5 C                    -0.052953       0.081364
      6 N                    -0.323096       0.044196
      7 H                     0.141050       0.002812
      8 H                     0.142805       0.021175
      9 H                     0.208964      -0.017841
     10 H                     0.149732       0.013597
     11 H                     0.162850       0.004296
     12 C                    -0.059615       0.696403
     13 H                     0.142375      -0.010880
  --------------------------------------------------------
  Sum of atomic charges =    -0.000000
  Sum of spin   charges =     1.000000

 -----------------------------------------------------------------
                    Cartesian Multipole Moments
 -----------------------------------------------------------------
    Charge (ESU x 10^10)
                -0.0000
    Dipole Moment (Debye)
         X      -0.8248      Y      -1.7386      Z       0.8584
       Tot       2.1071
    Quadrupole Moments (Debye-Ang)
        XX     -37.9366     XY      -3.8024     YY     -43.1006
        XZ       2.4557     YZ       2.6813     ZZ     -43.1226
    Octopole Moments (Debye-Ang^2)
       XXX       4.6699    XXY       1.4781    XYY      -4.2175
       YYY      -3.5268    XXZ      45.0002    XYZ       5.4385
       YYZ      45.6765    XZZ      -3.9208    YZZ      -0.5245
       ZZZ     148.6330
    Hexadecapole Moments (Debye-Ang^3)
      XXXX    -247.3862   XXXY     -12.5255   XXYY     -79.9137
      XYYY     -17.0211   YYYY    -230.6217   XXXZ      -2.0951
      XXYZ       9.0599   XYYZ      11.7194   YYYZ      35.2907
      XXZZ    -129.0901   XYZZ     -14.2775   YYZZ    -119.9786
      XZZZ       6.8257   YZZZ      15.5294   ZZZZ    -535.0415
 -----------------------------------------------------------------
 Calculating analytic gradient of the SCF energy
 Gradient of SCF Energy
            1           2           3           4           5           6
    1  -0.0161038  -0.0244668  -0.0488040   0.0020062   0.0054077   0.0245431
    2  -0.0003243  -0.0381719   0.0343687  -0.0198448   0.0060873   0.0072600
    3  -0.0092807   0.0147494  -0.0713304   0.0132674  -0.0119186   0.0126281
            7           8           9          10          11          12
    1  -0.0014059   0.0132000   0.0328295   0.0037950  -0.0003288   0.0074681
    2   0.0021337   0.0103005  -0.0096028   0.0020410  -0.0004733  -0.0032066
    3   0.0080124  -0.0016265   0.0301203   0.0060304  -0.0053493   0.0131524
           13
    1   0.0018596
    2   0.0094326
    3   0.0015451
 Max gradient component =       7.133E-02
 RMS gradient           =       2.007E-02
 Gradient time:  CPU 7.84 s  wall 5.52 s
 Geometry Optimization Parameters
   NAtoms,    NIC,     NZ,  NCons,   NDum,   NFix, NCnnct, MaxDiis
       13     128       0       0       0       0       0       0

 Cartesian Hessian Update
 Hessian Updated using BFGS Update


** GEOMETRY OPTIMIZATION IN DELOCALIZED INTERNAL COORDINATES **
   Searching for a Minimum

   Optimization Cycle:   5

                       Coordinates (Angstroms)
     ATOM                X               Y               Z
      1  C         1.3741799712    0.2016627123   -1.1971946543
      2  C         0.5467848812   -1.0779562399   -1.0913393292
      3  C        -0.7362660716   -0.6329122632   -2.1019620594
      4  C        -1.1786117061    0.0659084495   -0.4895687492
      5  C        -0.6295728858    0.8272038831   -1.7636644610
      6  N         0.7703337701    1.2677662706   -1.5521493352
      7  H         2.3571412863    0.2742496111   -0.7183268200
      8  H         1.2241220312   -1.9237725643   -1.2360512094
      9  H        -1.1849100867   -1.6107627484   -2.0093297300
     10  H        -2.1166064828    0.4015482057   -0.0533645978
     11  H        -1.2898607289    1.5239114722   -2.2792017059
     12  C        -0.2156388348   -0.7568548393    0.1596040451
     13  H         0.0979024755   -0.6713667948    1.2022731347
   Point Group: c1    Number of degrees of freedom:    33


   Energy is   -286.767876494

 Hessian Updated using BFGS Update

 33 Hessian modes will be used to form the next step
  Hessian Eigenvalues:
     0.008126    0.010830    0.012216    0.013305    0.015032    0.019354
     0.023285    0.025082    0.043120    0.060383    0.064002    0.076341
     0.082986    0.087917    0.096309    0.110821    0.115535    0.136409
     0.152790    0.156434    0.196682    0.204327    0.266117    0.268986
     0.287092    0.315422    0.317594    0.329837    0.339378    0.353466
     0.373825    0.400188    0.708390

 Minimum Search - Taking Simple RFO Step
 Searching for Lamda that Minimizes Along All modes
 Value Taken    Lamda =  -0.03717672
 Calculated Step too Large.  Step scaled by  0.392027
 Step Taken.  Stepsize is  0.300000

                             Maximum     Tolerance    Cnvgd?
         Gradient           0.020966      0.000600      NO
         Displacement       0.199825      0.002400      NO
         Energy change     -0.018557      0.000002      NO


 New Cartesian Coordinates Obtained by Inverse Iteration

 Displacement from previous Coordinates is:  0.212818
 ----------------------------------------------------------------
             Standard Nuclear Orientation (Angstroms)
    I     Atom           X                Y                Z
 ----------------------------------------------------------------
    1      C       1.3962514678     0.2145077544    -1.2028156929
    2      C       0.5626106892    -1.0590970342    -1.0868790399
    3      C      -0.7137418859    -0.6450450121    -2.0695982807
    4      C      -1.1829418284     0.0743301850    -0.4959238582
    5      C      -0.6235149185     0.8204111422    -1.7404605368
    6      N       0.7583096880     1.2655346121    -1.5540774789
    7      H       2.3917861626     0.2969045623    -0.7589153647
    8      H       1.2084139484    -1.9285479931    -1.2333147478
    9      H      -1.2080976386    -1.6039920645    -1.9925245390
   10      H      -2.1360248623     0.4057537449    -0.0903884337
   11      H      -1.2805359915     1.5127850464    -2.2633923617
   12      C      -0.2272024117    -0.7575211635     0.1554234243
   13      H       0.0736851995    -0.7073986253     1.2025914382
 ----------------------------------------------------------------
 Nuclear Repulsion Energy =   280.7823390414 hartrees
 There are       25 alpha and       24 beta electrons
 Applying Cartesian multipole field
    Component          Value
    ---------          -----
     (2,0,0)        1.00000E-11
     (0,2,0)        2.00000E-11
     (0,0,2)       -3.00000E-11
 Nucleus-field energy     =    -0.0000000054 hartrees
 Requested basis set is 6-31G(d)
 There are 40 shells and 117 basis functions
 A cutoff of  1.0D-14 yielded    813 shell pairs
 There are      7085 function pairs
 Smallest overlap matrix eigenvalue = 1.50E-03
 Guess MOs from SCF MO coefficient file
 Reading MOs from coefficient file
 Reading MOs from coefficient file
 An unrestricted hybrid HF-DFT SCF calculation will be
 performed using Pulay DIIS extrapolation
 Exchange:     0.2000 Hartree-Fock + 0.0800 Slater + 0.7200 B88
 Correlation:  0.1900 VWN1RPA + 0.8100 LYP
 Using SG-1 standard quadrature grid
 SCF converges when DIIS error is below 1.0E-08
 Geometry optimization detected.  Setting ReadMinima to 0
 Setting SaveMinima to 0
Using Q-Chem read-in guess as SCF_GUESS READ specified.

 using 4 threads for integral computing
 -------------------------------------------------------
 OpenMP Integral computing Module                
 Release: version 1.0, May 2013, Q-Chem Inc. Pittsburgh 
 -------------------------------------------------------
 -------------------------------------------------------
 OpenMP BLAS3 based DFT computing Module                
 Release: version 1.0, May 2013, Q-Chem Inc. Pittsburgh 
 -------------------------------------------------------
 ---------------------------------------
  Cycle       Energy         DIIS Error
 ---------------------------------------
    1    -286.8079565324      1.67E-03
    2    -286.7807420159      4.68E-04
    3    -286.7805739091      5.82E-04
    4    -286.7811547197      8.39E-05
    5    -286.7811656283      4.09E-05
    6    -286.7811689587      1.28E-05
    7    -286.7811693497      5.20E-06
    8    -286.7811694575      1.85E-06
    9    -286.7811694756      1.04E-06
   10    -286.7811694847      3.76E-07
   11    -286.7811694876      1.76E-07
   12    -286.7811694887      5.81E-08
   13    -286.7811694890      4.32E-08
   14    -286.7811694891      1.21E-08
   15    -286.7811694891      3.17E-09 Convergence criterion met
 ---------------------------------------
 <S^2> = 0.7722
 SCF time:  CPU 39.80 s  wall 25.23 s
 SCF   energy in the final basis set = -286.78116949
 Total energy in the final basis set = -286.78116949
 
 --------------------------------------------------------------
 
                    Orbital Energies (a.u.)
 --------------------------------------------------------------
 
 Alpha MOs
 -- Occupied --
-14.321 -10.249 -10.226 -10.220 -10.215 -10.210 -10.203  -0.963
 -0.843  -0.751  -0.676  -0.599  -0.586  -0.527  -0.520  -0.462
 -0.434  -0.417  -0.403  -0.360  -0.321  -0.300  -0.276  -0.256
 -0.171
 -- Virtual --
  0.004   0.016   0.094   0.113   0.124   0.145   0.151   0.159
  0.164   0.204   0.211   0.256   0.289   0.305   0.333   0.374
  0.499   0.503   0.525   0.549   0.565   0.575   0.590   0.609
  0.620   0.637   0.675   0.677   0.707   0.721   0.773   0.790
  0.799   0.809   0.830   0.837   0.853   0.870   0.908   0.932
  0.959   0.973   1.039   1.158   1.170   1.250   1.276   1.325
  1.375   1.454   1.470   1.504   1.576   1.612   1.685   1.705
  1.770   1.802   1.840   1.875   1.903   1.958   1.999   2.024
  2.054   2.111   2.197   2.197   2.263   2.280   2.328   2.362
  2.415   2.459   2.475   2.524   2.569   2.594   2.620   2.651
  2.686   2.792   2.833   2.907   2.955   3.932   4.206   4.237
  4.270   4.421   4.525   4.652
 
 Beta MOs
 -- Occupied --
-14.320 -10.247 -10.220 -10.219 -10.218 -10.211 -10.193  -0.959
 -0.837  -0.745  -0.666  -0.594  -0.580  -0.523  -0.514  -0.455
 -0.429  -0.408  -0.400  -0.355  -0.318  -0.289  -0.266  -0.242
 -- Virtual --
 -0.069   0.022   0.027   0.097   0.117   0.129   0.151   0.155
  0.161   0.167   0.211   0.215   0.261   0.292   0.310   0.342
  0.377   0.503   0.515   0.531   0.562   0.567   0.580   0.600
  0.620   0.624   0.644   0.679   0.679   0.713   0.730   0.782
  0.794   0.802   0.811   0.836   0.839   0.856   0.874   0.914
  0.934   0.961   0.976   1.043   1.164   1.179   1.260   1.279
  1.329   1.380   1.460   1.477   1.511   1.586   1.622   1.691
  1.713   1.771   1.807   1.846   1.881   1.912   1.967   2.011
  2.040   2.058   2.120   2.204   2.213   2.270   2.291   2.334
  2.368   2.425   2.467   2.482   2.530   2.575   2.602   2.624
  2.655   2.692   2.798   2.839   2.910   2.957   3.934   4.217
  4.239   4.284   4.426   4.529   4.655
 --------------------------------------------------------------
 
          Ground-State Mulliken Net Atomic Charges

     Atom                 Charge (a.u.)    Spin (a.u.)
  --------------------------------------------------------
      1 C                     0.079965       0.062900
      2 C                    -0.281403      -0.069980
      3 C                    -0.127471       0.347556
      4 C                    -0.166775      -0.174506
      5 C                    -0.045110       0.066093
      6 N                    -0.327187       0.040496
      7 H                     0.142936       0.002891
      8 H                     0.140753       0.021521
      9 H                     0.201633      -0.016928
     10 H                     0.150268       0.013083
     11 H                     0.160430       0.005740
     12 C                    -0.067092       0.709920
     13 H                     0.139052      -0.008784
  --------------------------------------------------------
  Sum of atomic charges =     0.000000
  Sum of spin   charges =     1.000000

 -----------------------------------------------------------------
                    Cartesian Multipole Moments
 -----------------------------------------------------------------
    Charge (ESU x 10^10)
                -0.0000
    Dipole Moment (Debye)
         X      -0.8248      Y      -1.7185      Z       0.8398
       Tot       2.0830
    Quadrupole Moments (Debye-Ang)
        XX     -37.5268     XY      -3.6437     YY     -43.1274
        XZ       2.3923     YZ       2.6752     ZZ     -43.2301
    Octopole Moments (Debye-Ang^2)
       XXX       4.2411    XXY       1.5272    XYY      -4.3490
       YYY      -3.7669    XXZ      44.2091    XYZ       5.1686
       YYZ      45.7755    XZZ      -3.9621    YZZ      -0.8109
       ZZZ     148.1453
    Hexadecapole Moments (Debye-Ang^3)
      XXXX    -246.1242   XXXY     -11.9219   XXYY     -79.9509
      XYYY     -17.1887   YYYY    -230.0051   XXXZ      -0.1787
      XXYZ       9.1917   XYYZ      12.1916   YYYZ      35.6339
      XXZZ    -127.6107   XYZZ     -13.7649   YYZZ    -119.3366
      XZZZ       8.6223   YZZZ      16.3732   ZZZZ    -528.2867
 -----------------------------------------------------------------
 Calculating analytic gradient of the SCF energy
 Gradient of SCF Energy
            1           2           3           4           5           6
    1  -0.0066907  -0.0199476  -0.0439412   0.0001999   0.0092967   0.0130917
    2  -0.0009017  -0.0295171   0.0325316  -0.0156956   0.0017207   0.0049050
    3  -0.0063088   0.0129168  -0.0633832   0.0074391  -0.0019662   0.0084338
            7           8           9          10          11          12
    1  -0.0016119   0.0113183   0.0286776   0.0030816   0.0008972   0.0034326
    2   0.0016347   0.0085532  -0.0109933   0.0033018  -0.0004158  -0.0032291
    3   0.0067975  -0.0024900   0.0296310   0.0042673  -0.0043044   0.0085090
           13
    1   0.0021958
    2   0.0081057
    3   0.0004580
 Max gradient component =       6.338E-02
 RMS gradient           =       1.717E-02
 Gradient time:  CPU 7.62 s  wall 2.65 s
 Geometry Optimization Parameters
   NAtoms,    NIC,     NZ,  NCons,   NDum,   NFix, NCnnct, MaxDiis
       13     128       0       0       0       0       0       0

 Cartesian Hessian Update
 Hessian Updated using BFGS Update


** GEOMETRY OPTIMIZATION IN DELOCALIZED INTERNAL COORDINATES **
   Searching for a Minimum

   Optimization Cycle:   6

                       Coordinates (Angstroms)
     ATOM                X               Y               Z
      1  C         1.3962514678    0.2145077544   -1.2028156929
      2  C         0.5626106892   -1.0590970342   -1.0868790399
      3  C        -0.7137418859   -0.6450450121   -2.0695982807
      4  C        -1.1829418284    0.0743301850   -0.4959238582
      5  C        -0.6235149185    0.8204111422   -1.7404605368
      6  N         0.7583096880    1.2655346121   -1.5540774789
      7  H         2.3917861626    0.2969045623   -0.7589153647
      8  H         1.2084139484   -1.9285479931   -1.2333147478
      9  H        -1.2080976386   -1.6039920645   -1.9925245390
     10  H        -2.1360248623    0.4057537449   -0.0903884337
     11  H        -1.2805359915    1.5127850464   -2.2633923617
     12  C        -0.2272024117   -0.7575211635    0.1554234243
     13  H         0.0736851995   -0.7073986253    1.2025914382
   Point Group: c1    Number of degrees of freedom:    33


   Energy is   -286.781169489

 Hessian Updated using BFGS Update

 33 Hessian modes will be used to form the next step
  Hessian Eigenvalues:
     0.007228    0.010829    0.012227    0.013303    0.014978    0.019349
     0.023526    0.025558    0.043082    0.059153    0.064086    0.076451
     0.082834    0.088635    0.100852    0.112742    0.115876    0.143109
     0.153103    0.156421    0.197985    0.210959    0.266782    0.276730
     0.287271    0.315454    0.317655    0.329914    0.339376    0.353522
     0.376188    0.406493    0.709677

 Minimum Search - Taking Simple RFO Step
 Searching for Lamda that Minimizes Along All modes
 Value Taken    Lamda =  -0.02987015
 Calculated Step too Large.  Step scaled by  0.368800
 Step Taken.  Stepsize is  0.300000

                             Maximum     Tolerance    Cnvgd?
         Gradient           0.021251      0.000600      NO
         Displacement       0.230056      0.002400      NO
         Energy change     -0.013293      0.000002      NO


 New Cartesian Coordinates Obtained by Inverse Iteration

 Displacement from previous Coordinates is:  0.184637
 ----------------------------------------------------------------
             Standard Nuclear Orientation (Angstroms)
    I     Atom           X                Y                Z
 ----------------------------------------------------------------
    1      C       1.4133136091     0.2256832891    -1.2081755807
    2      C       0.5783298873    -1.0439191376    -1.0801704048
    3      C      -0.6888840250    -0.6549607934    -2.0419633491
    4      C      -1.1849271357     0.0792971929    -0.4976605959
    5      C      -0.6203554129     0.8157687293    -1.7248550564
    6      N       0.7519670211     1.2662356505    -1.5565179733
    7      H       2.4200730687     0.3154918213    -0.7964356391
    8      H       1.1950917341    -1.9343350089    -1.2244415913
    9      H      -1.2368748132    -1.5871730959    -1.9877664367
   10      H      -2.1517765495     0.4026418299    -0.1191266670
   11      H      -1.2763302841     1.5012435479    -2.2563671612
   12      C      -0.2339151662    -0.7582885958     0.1560871910
   13      H       0.0532856850    -0.7390602747     1.2071177929
 ----------------------------------------------------------------
 Nuclear Repulsion Energy =   281.3580507959 hartrees
 There are       25 alpha and       24 beta electrons
 Applying Cartesian multipole field
    Component          Value
    ---------          -----
     (2,0,0)        1.00000E-11
     (0,2,0)        2.00000E-11
     (0,0,2)       -3.00000E-11
 Nucleus-field energy     =    -0.0000000053 hartrees
 Requested basis set is 6-31G(d)
 There are 40 shells and 117 basis functions
 A cutoff of  1.0D-14 yielded    812 shell pairs
 There are      7084 function pairs
 Smallest overlap matrix eigenvalue = 1.44E-03
 Guess MOs from SCF MO coefficient file
 Reading MOs from coefficient file
 Reading MOs from coefficient file
 An unrestricted hybrid HF-DFT SCF calculation will be
 performed using Pulay DIIS extrapolation
 Exchange:     0.2000 Hartree-Fock + 0.0800 Slater + 0.7200 B88
 Correlation:  0.1900 VWN1RPA + 0.8100 LYP
 Using SG-1 standard quadrature grid
 SCF converges when DIIS error is below 1.0E-08
 Geometry optimization detected.  Setting ReadMinima to 0
 Setting SaveMinima to 0
Using Q-Chem read-in guess as SCF_GUESS READ specified.

 using 4 threads for integral computing
 -------------------------------------------------------
 OpenMP Integral computing Module                
 Release: version 1.0, May 2013, Q-Chem Inc. Pittsburgh 
 -------------------------------------------------------
 -------------------------------------------------------
 OpenMP BLAS3 based DFT computing Module                
 Release: version 1.0, May 2013, Q-Chem Inc. Pittsburgh 
 -------------------------------------------------------
 ---------------------------------------
  Cycle       Energy         DIIS Error
 ---------------------------------------
    1    -286.8101662979      1.30E-03
    2    -286.7911749351      3.71E-04
    3    -286.7910419634      4.76E-04
    4    -286.7914351591      8.73E-05
    5    -286.7914478023      2.89E-05
    6    -286.7914495492      7.88E-06
    7    -286.7914497271      3.97E-06
    8    -286.7914497809      9.26E-07
    9    -286.7914497871      6.00E-07
   10    -286.7914497891      2.84E-07
   11    -286.7914497897      1.06E-07
   12    -286.7914497899      3.21E-08
   13    -286.7914497900      2.46E-08
   14    -286.7914497900      7.62E-09 Convergence criterion met
 ---------------------------------------
 <S^2> = 0.7712
 SCF time:  CPU 37.15 s  wall 23.08 s
 SCF   energy in the final basis set = -286.79144979
 Total energy in the final basis set = -286.79144979
 
 --------------------------------------------------------------
 
                    Orbital Energies (a.u.)
 --------------------------------------------------------------
 
 Alpha MOs
 -- Occupied --
-14.320 -10.245 -10.223 -10.221 -10.215 -10.209 -10.202  -0.965
 -0.844  -0.751  -0.675  -0.600  -0.587  -0.529  -0.519  -0.462
 -0.435  -0.417  -0.404  -0.360  -0.328  -0.298  -0.274  -0.258
 -0.169
 -- Virtual --
  0.004   0.019   0.101   0.115   0.128   0.148   0.151   0.161
  0.164   0.207   0.211   0.258   0.293   0.305   0.335   0.376
[...]
     0.093321    0.095157    0.114794    0.124440    0.149506    0.155502
     0.161811    0.201735    0.235332    0.263607    0.285793    0.298419
     0.313802    0.317650    0.318313    0.339426    0.351834    0.368420
     0.400981    0.480656    0.735695

 Minimum Search - Taking Simple RFO Step
 Searching for Lamda that Minimizes Along All modes
 Value Taken    Lamda =   0.00000000
 Step Taken.  Stepsize is  0.007799

                             Maximum     Tolerance    Cnvgd?
         Gradient           0.000138      0.000600     YES
         Displacement       0.005727      0.002400      NO
         Energy change     -0.000003      0.000002      NO


 New Cartesian Coordinates Obtained by Inverse Iteration

 Displacement from previous Coordinates is:  0.004515
 ----------------------------------------------------------------
             Standard Nuclear Orientation (Angstroms)
    I     Atom           X                Y                Z
 ----------------------------------------------------------------
    1      C       1.4478373689     0.2225472694    -1.2399569092
    2      C       0.6064770101    -1.0221618714    -0.9842136825
    3      C      -0.7093717353    -0.6794864141    -1.7715399559
    4      C      -1.2338885947    -0.0269615968    -0.4782862480
    5      C      -0.6068130893     0.8006660775    -1.6911441289
    6      N       0.7586008230     1.2492615823    -1.5831831134
    7      H       2.5128917822     0.2940183922    -1.0249296655
    8      H       1.0954474482    -1.9946231071    -1.0741744293
    9      H      -1.2335445326    -1.2869850107    -2.5032140392
   10      H      -2.2483307816     0.2101684126    -0.1732265226
   11      H      -1.3086149724     1.4504319345    -2.2039208682
   12      C      -0.1892824447    -0.7016573297     0.2799590753
   13      H       0.1275893369    -0.6265931842     1.3175550157
 ----------------------------------------------------------------
 Nuclear Repulsion Energy =   282.1828073147 hartrees
 There are       25 alpha and       24 beta electrons
 Applying Cartesian multipole field
    Component          Value
    ---------          -----
     (2,0,0)        1.00000E-11
     (0,2,0)        2.00000E-11
     (0,0,2)       -3.00000E-11
 Nucleus-field energy     =    -0.0000000049 hartrees
 Requested basis set is 6-31G(d)
 There are 40 shells and 117 basis functions
 A cutoff of  1.0D-14 yielded    812 shell pairs
 There are      7084 function pairs
 Smallest overlap matrix eigenvalue = 1.65E-03
 Guess MOs from SCF MO coefficient file
 Reading MOs from coefficient file
 Reading MOs from coefficient file
 An unrestricted hybrid HF-DFT SCF calculation will be
 performed using Pulay DIIS extrapolation
 Exchange:     0.2000 Hartree-Fock + 0.0800 Slater + 0.7200 B88
 Correlation:  0.1900 VWN1RPA + 0.8100 LYP
 Using SG-1 standard quadrature grid
 SCF converges when DIIS error is below 1.0E-08
 Geometry optimization detected.  Setting ReadMinima to 0
 Setting SaveMinima to 0
Using Q-Chem read-in guess as SCF_GUESS READ specified.

 using 4 threads for integral computing
 -------------------------------------------------------
 OpenMP Integral computing Module                
 Release: version 1.0, May 2013, Q-Chem Inc. Pittsburgh 
 -------------------------------------------------------
 -------------------------------------------------------
 OpenMP BLAS3 based DFT computing Module                
 Release: version 1.0, May 2013, Q-Chem Inc. Pittsburgh 
 -------------------------------------------------------
 ---------------------------------------
  Cycle       Energy         DIIS Error
 ---------------------------------------
    1    -286.8381431403      2.22E-05
    2    -286.8383804617      4.29E-06
    3    -286.8383804543      5.62E-06
    4    -286.8383805141      7.17E-07
    5    -286.8383805156      2.19E-07
    6    -286.8383805158      1.70E-07
    7    -286.8383805159      6.69E-08
    8    -286.8383805159      1.94E-08
    9    -286.8383805159      4.54E-09 Convergence criterion met
 ---------------------------------------
 <S^2> = 0.7566
 SCF time:  CPU 23.91 s  wall 17.38 s
 SCF   energy in the final basis set = -286.83838052
 Total energy in the final basis set = -286.83838052
 
 --------------------------------------------------------------
 
                    Orbital Energies (a.u.)
 --------------------------------------------------------------
 
 Alpha MOs
 -- Occupied --
-14.320 -10.224 -10.220 -10.210 -10.209 -10.208 -10.206  -0.968
 -0.856  -0.749  -0.664  -0.606  -0.571  -0.535  -0.517  -0.467
 -0.439  -0.405  -0.400  -0.356  -0.336  -0.298  -0.273  -0.256
 -0.182
 -- Virtual --
  0.004   0.100   0.114   0.128   0.150   0.150   0.153   0.163
  0.177   0.200   0.221   0.262   0.280   0.296   0.348   0.391
  0.494   0.513   0.524   0.543   0.558   0.573   0.601   0.604
  0.605   0.659   0.675   0.677   0.720   0.741   0.770   0.777
  0.805   0.807   0.822   0.842   0.855   0.877   0.889   0.936
  0.954   0.973   1.043   1.096   1.206   1.237   1.327   1.390
  1.446   1.475   1.504   1.517   1.587   1.632   1.672   1.713
  1.743   1.828   1.873   1.881   1.932   1.954   1.988   2.026
  2.060   2.167   2.207   2.218   2.232   2.253   2.363   2.380
  2.456   2.490   2.502   2.542   2.590   2.626   2.664   2.676
  2.718   2.808   2.841   2.914   2.963   3.959   4.194   4.239
  4.362   4.433   4.508   4.641
 
 Beta MOs
 -- Occupied --
-14.319 -10.222 -10.219 -10.211 -10.209 -10.207 -10.193  -0.964
 -0.850  -0.741  -0.652  -0.601  -0.567  -0.528  -0.511  -0.461
 -0.434  -0.402  -0.393  -0.348  -0.332  -0.291  -0.262  -0.251
 -- Virtual --
 -0.062   0.019   0.102   0.118   0.134   0.151   0.156   0.157
  0.165   0.181   0.204   0.227   0.267   0.284   0.298   0.360
  0.394   0.497   0.518   0.532   0.553   0.561   0.578   0.607
  0.610   0.622   0.669   0.679   0.683   0.729   0.745   0.775
  0.787   0.808   0.809   0.824   0.844   0.858   0.882   0.892
  0.940   0.958   0.976   1.047   1.108   1.208   1.243   1.334
  1.392   1.449   1.481   1.514   1.525   1.593   1.640   1.677
  1.716   1.751   1.835   1.878   1.894   1.940   1.970   1.994
  2.035   2.068   2.172   2.222   2.226   2.242   2.270   2.368
  2.390   2.463   2.497   2.511   2.546   2.594   2.633   2.666
  2.684   2.725   2.813   2.846   2.917   2.965   3.961   4.208
  4.245   4.369   4.438   4.511   4.644
 --------------------------------------------------------------
 
          Ground-State Mulliken Net Atomic Charges

     Atom                 Charge (a.u.)    Spin (a.u.)
  --------------------------------------------------------
      1 C                     0.088794       0.047339
      2 C                    -0.258709      -0.065724
      3 C                    -0.107944       0.077836
      4 C                    -0.163918      -0.095981
      5 C                    -0.018868       0.097246
      6 N                    -0.342250       0.038884
      7 H                     0.143023       0.001360
      8 H                     0.142888       0.022671
      9 H                     0.148102      -0.000769
     10 H                     0.147268       0.005288
     11 H                     0.151400       0.002845
     12 C                    -0.066033       0.888268
     13 H                     0.136247      -0.019262
  --------------------------------------------------------
  Sum of atomic charges =    -0.000000
  Sum of spin   charges =     1.000000

 -----------------------------------------------------------------
                    Cartesian Multipole Moments
 -----------------------------------------------------------------
    Charge (ESU x 10^10)
                 0.0000
    Dipole Moment (Debye)
         X      -0.7655      Y      -1.8804      Z       0.2788
       Tot       2.0493
    Quadrupole Moments (Debye-Ang)
        XX     -36.8318     XY      -3.4644     YY     -43.8321
        XZ       2.9134     YZ       3.4315     ZZ     -40.4931
    Octopole Moments (Debye-Ang^2)
       XXX       2.3358    XXY       1.7487    XYY      -3.3643
       YYY      -2.2858    XXZ      39.1728    XYZ       4.3394
       YYZ      44.7328    XZZ      -7.4461    YZZ      -4.4856
       ZZZ     130.2759
    Hexadecapole Moments (Debye-Ang^3)
      XXXX    -249.1416   XXXY     -12.0263   XXYY     -82.8748
      XYYY     -21.7285   YYYY    -221.7711   XXXZ       5.4722
      XXYZ      10.5468   XYYZ      12.9174   YYYZ      38.9409
      XXZZ    -117.8407   XYZZ     -10.2783   YYZZ    -113.5171
      XZZZ      26.9715   YZZZ      36.1117   ZZZZ    -458.3473
 -----------------------------------------------------------------
 Calculating analytic gradient of the SCF energy
 Gradient of SCF Energy
            1           2           3           4           5           6
    1   0.0000736   0.0000273   0.0000133   0.0000072  -0.0000488  -0.0000464
    2  -0.0000233  -0.0000344   0.0001211  -0.0000602  -0.0000151   0.0000163
    3  -0.0000176   0.0000032  -0.0000105   0.0001292  -0.0000344  -0.0000076
            7           8           9          10          11          12
    1   0.0000067  -0.0000042  -0.0000259  -0.0000008  -0.0000127  -0.0000090
    2  -0.0000079   0.0000014   0.0000015   0.0000043   0.0000228   0.0000219
    3  -0.0000170  -0.0000343  -0.0000038  -0.0000213   0.0000491  -0.0000127
           13
    1   0.0000199
    2  -0.0000485
    3  -0.0000222
 Max gradient component =       1.292E-04
 RMS gradient           =       3.910E-05
 Gradient time:  CPU 7.53 s  wall 2.34 s
 Geometry Optimization Parameters
   NAtoms,    NIC,     NZ,  NCons,   NDum,   NFix, NCnnct, MaxDiis
       13     128       0       0       0       0       0       0

 Cartesian Hessian Update
 Hessian Updated using BFGS Update


** GEOMETRY OPTIMIZATION IN DELOCALIZED INTERNAL COORDINATES **
   Searching for a Minimum

   Optimization Cycle:  27

                       Coordinates (Angstroms)
     ATOM                X               Y               Z
      1  C         1.4478373689    0.2225472694   -1.2399569092
      2  C         0.6064770101   -1.0221618714   -0.9842136825
      3  C        -0.7093717353   -0.6794864141   -1.7715399559
      4  C        -1.2338885947   -0.0269615968   -0.4782862480
      5  C        -0.6068130893    0.8006660775   -1.6911441289
      6  N         0.7586008230    1.2492615823   -1.5831831134
      7  H         2.5128917822    0.2940183922   -1.0249296655
      8  H         1.0954474482   -1.9946231071   -1.0741744293
      9  H        -1.2335445326   -1.2869850107   -2.5032140392
     10  H        -2.2483307816    0.2101684126   -0.1732265226
     11  H        -1.3086149724    1.4504319345   -2.2039208682
     12  C        -0.1892824447   -0.7016573297    0.2799590753
     13  H         0.1275893369   -0.6265931842    1.3175550157
   Point Group: c1    Number of degrees of freedom:    33


   Energy is   -286.838380516

 Hessian Updated using BFGS Update

 33 Hessian modes will be used to form the next step
  Hessian Eigenvalues:
     0.003336    0.010033    0.013786    0.017894    0.021170    0.027006
     0.031779    0.040419    0.054360    0.059211    0.074342    0.077351
     0.092659    0.095145    0.113700    0.124489    0.143989    0.155392
     0.162635    0.201851    0.237061    0.276734    0.284057    0.298639
     0.313847    0.318277    0.320367    0.339431    0.351863    0.366864
     0.394184    0.480832    0.729648

 Minimum Search - Taking Simple RFO Step
 Searching for Lamda that Minimizes Along All modes
 Value Taken    Lamda =   0.00000000
 Step Taken.  Stepsize is  0.002887

                             Maximum     Tolerance    Cnvgd?
         Gradient           0.000058      0.000600     YES
         Displacement       0.001703      0.002400     YES
         Energy change     -0.000000      0.000002     YES


                       Distance Matrix (Angstroms)
             C (  1)   C (  2)   C (  3)   C (  4)   C (  5)   N (  6)
   C (  2)  1.524005
   C (  3)  2.397873  1.571231
   C (  4)  2.798937  2.152518  1.540588
   C (  5)  2.181600  2.300984  1.485878  1.596626
   N (  6)  1.283352  2.353990  2.431150  2.611428  1.441266
   H (  7)  1.088892  2.316982  3.447915  3.800028  3.230030  2.074048
   H (  8)  2.251112  1.092184  2.339503  3.106860  3.330463  3.300810
   H (  9)  3.326307  2.400661  1.085891  2.384951  2.326056  3.353751
   H ( 10)  3.847041  3.213451  2.390499  1.085534  2.312432  3.479846
   H ( 11)  3.167800  3.356931  2.254462  2.272904  1.085201  2.167756
   C ( 12)  2.417532  1.527773  2.116514  1.456486  2.513276  2.859347
   H ( 13)  3.000827  2.384103  3.200908  2.332000  3.410086  3.511593
             H (  7)   H (  8)   H (  9)   H ( 10)   H ( 11)   C ( 12)
   H (  8)  2.692481
   H (  9)  4.326740  2.822607
   H ( 10)  4.837527  4.105322  2.949593
   H ( 11)  4.163079  4.350201  2.754753  2.558327
   C ( 12)  3.161621  2.270676  3.029710  2.297060  3.471895
   H ( 13)  3.467626  2.920381  4.109389  2.927046  4.333302  1.087496

 
 Final energy is   -286.838380515943     


 ******************************
 **  OPTIMIZATION CONVERGED  **
 ******************************

                       Coordinates (Angstroms)
     ATOM                X               Y               Z
      1  C         1.4478373689    0.2225472694   -1.2399569092
      2  C         0.6064770101   -1.0221618714   -0.9842136825
      3  C        -0.7093717353   -0.6794864141   -1.7715399559
      4  C        -1.2338885947   -0.0269615968   -0.4782862480
      5  C        -0.6068130893    0.8006660775   -1.6911441289
      6  N         0.7586008230    1.2492615823   -1.5831831134
      7  H         2.5128917822    0.2940183922   -1.0249296655
      8  H         1.0954474482   -1.9946231071   -1.0741744293
      9  H        -1.2335445326   -1.2869850107   -2.5032140392
     10  H        -2.2483307816    0.2101684126   -0.1732265226
     11  H        -1.3086149724    1.4504319345   -2.2039208682
     12  C        -0.1892824447   -0.7016573297    0.2799590753
     13  H         0.1275893369   -0.6265931842    1.3175550157

Z-matrix Print:
$molecule
0 2
N 
C  1 1.283352
H  2 1.088892 1 121.708963
C  1 1.441266 2 106.249429 3 -176.023934 0
H  4 1.085201 1 117.496844 2 -165.243643 0
C  4 1.485878 1 112.302360 2 -16.514635 0
H  6 1.085891 4 128.834030 1 -128.023872 0
C  2 1.524005 1 113.690344 3 172.097593 0
H  8 1.092184 2 117.789348 1 156.587019 0
C  8 1.527773 2 104.777760 1 -68.204946 0
H  10 1.087496 8 130.708120 2 -72.247618 0
C  10 1.456486 8 92.290845 2 85.253475 0
H  12 1.085534 10 128.691787 8 161.623365 0
$end

 
 --------------------------------------------------------------
 
                    Orbital Energies (a.u.)
 --------------------------------------------------------------
 
 Alpha MOs
 -- Occupied --
-14.320 -10.224 -10.220 -10.210 -10.209 -10.208 -10.206  -0.968
 -0.856  -0.749  -0.664  -0.606  -0.571  -0.535  -0.517  -0.467
 -0.439  -0.405  -0.400  -0.356  -0.336  -0.298  -0.273  -0.256
 -0.182
 -- Virtual --
  0.004   0.100   0.114   0.128   0.150   0.150   0.153   0.163
  0.177   0.200   0.221   0.262   0.280   0.296   0.348   0.391
  0.494   0.513   0.524   0.543   0.558   0.573   0.601   0.604
  0.605   0.659   0.675   0.677   0.720   0.741   0.770   0.777
  0.805   0.807   0.822   0.842   0.855   0.877   0.889   0.936
  0.954   0.973   1.043   1.096   1.206   1.237   1.327   1.390
  1.446   1.475   1.504   1.517   1.587   1.632   1.672   1.713
  1.743   1.828   1.873   1.881   1.932   1.954   1.988   2.026
  2.060   2.167   2.207   2.218   2.232   2.253   2.363   2.380
  2.456   2.490   2.502   2.542   2.590   2.626   2.664   2.676
  2.718   2.808   2.841   2.914   2.963   3.959   4.194   4.239
  4.362   4.433   4.508   4.641
 
 Beta MOs
 -- Occupied --
-14.319 -10.222 -10.219 -10.211 -10.209 -10.207 -10.193  -0.964
 -0.850  -0.741  -0.652  -0.601  -0.567  -0.528  -0.511  -0.461
 -0.434  -0.402  -0.393  -0.348  -0.332  -0.291  -0.262  -0.251
 -- Virtual --
 -0.062   0.019   0.102   0.118   0.134   0.151   0.156   0.157
  0.165   0.181   0.204   0.227   0.267   0.284   0.298   0.360
  0.394   0.497   0.518   0.532   0.553   0.561   0.578   0.607
  0.610   0.622   0.669   0.679   0.683   0.729   0.745   0.775
  0.787   0.808   0.809   0.824   0.844   0.858   0.882   0.892
  0.940   0.958   0.976   1.047   1.108   1.208   1.243   1.334
  1.392   1.449   1.481   1.514   1.525   1.593   1.640   1.677
  1.716   1.751   1.835   1.878   1.894   1.940   1.970   1.994
  2.035   2.068   2.172   2.222   2.226   2.242   2.270   2.368
  2.390   2.463   2.497   2.511   2.546   2.594   2.633   2.666
  2.684   2.725   2.813   2.846   2.917   2.965   3.961   4.208
  4.245   4.369   4.438   4.511   4.644
 --------------------------------------------------------------
 
          Ground-State Mulliken Net Atomic Charges

     Atom                 Charge (a.u.)    Spin (a.u.)
  --------------------------------------------------------
      1 C                     0.088794       0.047339
      2 C                    -0.258709      -0.065724
      3 C                    -0.107944       0.077836
      4 C                    -0.163918      -0.095981
      5 C                    -0.018868       0.097246
      6 N                    -0.342250       0.038884
      7 H                     0.143023       0.001360
      8 H                     0.142888       0.022671
      9 H                     0.148102      -0.000769
     10 H                     0.147268       0.005288
     11 H                     0.151400       0.002845
     12 C                    -0.066033       0.888268
     13 H                     0.136247      -0.019262
  --------------------------------------------------------
  Sum of atomic charges =    -0.000000
  Sum of spin   charges =     1.000000

 -----------------------------------------------------------------
                    Cartesian Multipole Moments
 -----------------------------------------------------------------
    Charge (ESU x 10^10)
                 0.0000
    Dipole Moment (Debye)
         X      -0.7655      Y      -1.8804      Z       0.2788
       Tot       2.0493
    Quadrupole Moments (Debye-Ang)
        XX     -36.8318     XY      -3.4644     YY     -43.8321
        XZ       2.9134     YZ       3.4315     ZZ     -40.4931
    Octopole Moments (Debye-Ang^2)
       XXX       2.3358    XXY       1.7487    XYY      -3.3643
       YYY      -2.2858    XXZ      39.1728    XYZ       4.3394
       YYZ      44.7328    XZZ      -7.4461    YZZ      -4.4856
       ZZZ     130.2759
    Hexadecapole Moments (Debye-Ang^3)
      XXXX    -249.1416   XXXY     -12.0263   XXYY     -82.8748
      XYYY     -21.7285   YYYY    -221.7711   XXXZ       5.4722
      XXYZ      10.5468   XYYZ      12.9174   YYYZ      38.9409
      XXZZ    -117.8407   XYZZ     -10.2783   YYZZ    -113.5171
      XZZZ      26.9715   YZZZ      36.1117   ZZZZ    -458.3473
 -----------------------------------------------------------------
Archival summary:
1\1\c8-66\OPT\ProcedureUnspecified\6-31G*\166(2)\hpark21\TueMar112:52:572022TueMar112:52:572022\0\\#,OPT,ProcedureUnspecified,6-31G*,\\0,2\N\C,1,1.28335\H,2,1.08889,1,121.709\C,1,1.44127,2,106.249,3,-176.024,0\H,4,1.0852,1,117.497,2,-165.244,0\C,4,1.48588,1,112.302,2,-16.5146,0\H,6,1.08589,4,128.834,1,-128.024,0\C,2,1.52401,1,113.69,3,172.098,0\H,8,1.09218,2,117.789,1,156.587,0\C,8,1.52777,2,104.778,1,-68.2049,0\H,10,1.0875,8,130.708,2,-72.2476,0\C,10,1.45649,8,92.2908,2,85.2535,0\H,12,1.08553,10,128.692,8,161.623,0\\\@

 Total job time:  785.89s(wall), 1181.24s(cpu) 
 Tue Mar  1 12:52:58 2022

        *************************************************************
        *                                                           *
        *  Thank you very much for using Q-Chem.  Have a nice day.  *
        *                                                           *
        *************************************************************


