13   
From optimize.out: Frame 1 / 27, Energy=    -286.6499640914
C        0.0877970000    0.0747600000   -0.0000000000
C       -0.2915590000   -0.0679730000   -0.0000000000
C       -0.1381000000    0.3703920000   -0.0000000000
C       -0.1938580000   -0.2497760000   -0.0000000000
C       -0.0959650000    0.2090290000   -0.0000000000
N       -0.3040520000    0.0423970000   -0.0000000000
H        0.1227850000    0.0011710000   -0.0000000000
H        0.1532080000    0.0146650000   -0.0000000000
H        0.2358610000   -0.0213050000   -0.0000000000
H        0.1437960000    0.0144270000    0.0000000000
H        0.1746630000   -0.0057150000   -0.0000000000
C       -0.0592460000    0.6345380000    0.0000000000
H        0.1646700000   -0.0166110000    0.0000000000
13   
From optimize.out: Frame 2 / 27, Energy=    -286.6905921892
C        0.0807050000    0.0692010000   -0.0000000000
C       -0.2930950000   -0.0697150000   -0.0000000000
C       -0.1334580000    0.3704620000   -0.0000000000
C       -0.1920250000   -0.2300870000   -0.0000000000
C       -0.0881260000    0.1717550000   -0.0000000000
N       -0.3097330000    0.0471150000   -0.0000000000
H        0.1305930000    0.0020600000   -0.0000000000
H        0.1506720000    0.0170500000   -0.0000000000
H        0.2305570000   -0.0209240000   -0.0000000000
H        0.1463080000    0.0143730000    0.0000000000
H        0.1732580000   -0.0027700000   -0.0000000000
C       -0.0534980000    0.6474980000    0.0000000000
H        0.1578420000   -0.0160180000    0.0000000000
13   
From optimize.out: Frame 3 / 27, Energy=    -286.7237097020
C        0.0764250000    0.0688900000   -0.0000000000
C       -0.2942380000   -0.0702730000   -0.0000000000
C       -0.1285830000    0.3660020000   -0.0000000000
C       -0.1876690000   -0.2105040000   -0.0000000000
C       -0.0769400000    0.1351170000   -0.0000000000
N       -0.3148700000    0.0486150000   -0.0000000000
H        0.1349260000    0.0024310000   -0.0000000000
H        0.1482250000    0.0189540000   -0.0000000000
H        0.2241750000   -0.0201660000   -0.0000000000
H        0.1477580000    0.0144770000    0.0000000000
H        0.1698390000   -0.0000460000   -0.0000000000
C       -0.0510620000    0.6611920000    0.0000000000
H        0.1520140000   -0.0146900000    0.0000000000
13   
From optimize.out: Frame 4 / 27, Energy=    -286.7493196980
C        0.0747200000    0.0685840000   -0.0000000000
C       -0.2925300000   -0.0707610000   -0.0000000000
C       -0.1266770000    0.3584550000   -0.0000000000
C       -0.1812820000   -0.1948780000   -0.0000000000
C       -0.0641080000    0.1043220000   -0.0000000000
N       -0.3191880000    0.0475680000   -0.0000000000
H        0.1383960000    0.0026680000   -0.0000000000
H        0.1455010000    0.0203380000   -0.0000000000
H        0.2167560000   -0.0190120000   -0.0000000000
H        0.1488850000    0.0141610000   -0.0000000000
H        0.1661740000    0.0023540000   -0.0000000000
C       -0.0534420000    0.6791810000    0.0000000000
H        0.1467960000   -0.0129790000    0.0000000000
13   
From optimize.out: Frame 5 / 27, Energy=    -286.7678764937
C        0.0763270000    0.0666960000   -0.0000000000
C       -0.2877930000   -0.0707370000   -0.0000000000
C       -0.1269340000    0.3516430000   -0.0000000000
C       -0.1737140000   -0.1827230000   -0.0000000000
C       -0.0529530000    0.0813640000   -0.0000000000
N       -0.3230960000    0.0441960000   -0.0000000000
H        0.1410500000    0.0028120000   -0.0000000000
H        0.1428050000    0.0211750000   -0.0000000000
H        0.2089640000   -0.0178410000   -0.0000000000
H        0.1497320000    0.0135970000   -0.0000000000
H        0.1628500000    0.0042960000   -0.0000000000
C       -0.0596150000    0.6964030000    0.0000000000
H        0.1423750000   -0.0108800000    0.0000000000
13   
From optimize.out: Frame 6 / 27, Energy=    -286.7811694891
C        0.0799650000    0.0629000000   -0.0000000000
C       -0.2814030000   -0.0699800000   -0.0000000000
C       -0.1274710000    0.3475560000   -0.0000000000
C       -0.1667750000   -0.1745060000   -0.0000000000
C       -0.0451100000    0.0660930000   -0.0000000000
N       -0.3271870000    0.0404960000   -0.0000000000
H        0.1429360000    0.0028910000   -0.0000000000
H        0.1407530000    0.0215210000   -0.0000000000
H        0.2016330000   -0.0169280000   -0.0000000000
H        0.1502680000    0.0130830000   -0.0000000000
H        0.1604300000    0.0057400000   -0.0000000000
C       -0.0670920000    0.7099200000    0.0000000000
H        0.1390520000   -0.0087840000    0.0000000000
13   
From optimize.out: Frame 7 / 27, Energy=    -286.7914497900
C        0.0834580000    0.0585620000   -0.0000000000
C       -0.2751470000   -0.0687040000   -0.0000000000
C       -0.1272440000    0.3457230000   -0.0000000000
C       -0.1616690000   -0.1694770000   -0.0000000000
C       -0.0395680000    0.0560040000   -0.0000000000
N       -0.3309190000    0.0376940000   -0.0000000000
H        0.1441070000    0.0029230000   -0.0000000000
H        0.1396920000    0.0215260000   -0.0000000000
H        0.1949740000   -0.0163390000   -0.0000000000
H        0.1505110000    0.0127370000   -0.0000000000
H        0.1587030000    0.0067710000   -0.0000000000
C       -0.0737140000    0.7195420000    0.0000000000
H        0.1368150000   -0.0069620000    0.0000000000
13   
From optimize.out: Frame 8 / 27, Energy=    -286.7999453414
C        0.0859450000    0.0544290000   -0.0000000000
C       -0.2699670000   -0.0672790000   -0.0000000000
C       -0.1261840000    0.3445200000   -0.0000000000
C       -0.1585360000   -0.1661970000   -0.0000000000
C       -0.0352700000    0.0492420000   -0.0000000000
N       -0.3338830000    0.0360680000   -0.0000000000
H        0.1447660000    0.0029290000   -0.0000000000
H        0.1394860000    0.0213310000   -0.0000000000
H        0.1890930000   -0.0160630000   -0.0000000000
H        0.1504890000    0.0125160000   -0.0000000000
H        0.1573630000    0.0074870000   -0.0000000000
C       -0.0786500000    0.7265130000    0.0000000000
H        0.1353470000   -0.0054950000    0.0000000000
13   
From optimize.out: Frame 9 / 27, Energy=    -286.8070959025
C        0.0873820000    0.0507110000   -0.0000000000
C       -0.2663670000   -0.0660340000   -0.0000000000
C       -0.1243710000    0.3416190000   -0.0000000000
C       -0.1571750000   -0.1631080000   -0.0000000000
C       -0.0317640000    0.0449560000   -0.0000000000
N       -0.3359600000    0.0357070000   -0.0000000000
H        0.1450430000    0.0029190000   -0.0000000000
H        0.1398810000    0.0210460000   -0.0000000000
H        0.1841140000   -0.0160550000   -0.0000000000
H        0.1502090000    0.0123290000   -0.0000000000
H        0.1562500000    0.0079290000   -0.0000000000
C       -0.0815980000    0.7324680000    0.0000000000
H        0.1343560000   -0.0044870000    0.0000000000
13   
From optimize.out: Frame 10 / 27, Energy=    -286.8129853663
C        0.0880200000    0.0475150000   -0.0000000000
C       -0.2645350000   -0.0651880000   -0.0000000000
C       -0.1217670000    0.3338380000   -0.0000000000
C       -0.1573270000   -0.1584910000   -0.0000000000
C       -0.0288450000    0.0427210000   -0.0000000000
N       -0.3371900000    0.0366010000   -0.0000000000
H        0.1450080000    0.0028860000   -0.0000000000
H        0.1406090000    0.0207560000   -0.0000000000
H        0.1799900000   -0.0161560000   -0.0000000000
H        0.1497050000    0.0120510000   -0.0000000000
H        0.1552730000    0.0081030000   -0.0000000000
C       -0.0825710000    0.7394570000    0.0000000000
H        0.1336290000   -0.0040930000    0.0000000000
13   
From optimize.out: Frame 11 / 27, Energy=    -286.8176372828
C        0.0883950000    0.0448520000   -0.0000000000
C       -0.2641870000   -0.0647920000   -0.0000000000
C       -0.1184510000    0.3173800000   -0.0000000000
C       -0.1587270000   -0.1506030000   -0.0000000000
C       -0.0264260000    0.0423500000   -0.0000000000
N       -0.3378680000    0.0385330000   -0.0000000000
H        0.1447470000    0.0028190000   -0.0000000000
H        0.1413740000    0.0205320000   -0.0000000000
H        0.1765460000   -0.0160500000   -0.0000000000
H        0.1490470000    0.0115270000   -0.0000000000
H        0.1544160000    0.0080080000   -0.0000000000
C       -0.0819230000    0.7499910000    0.0000000000
H        0.1330570000   -0.0045480000    0.0000000000
13   
From optimize.out: Frame 12 / 27, Energy=    -286.8212921743
C        0.0889010000    0.0426650000   -0.0000000000
C       -0.2645060000   -0.0647440000   -0.0000000000
C       -0.1150800000    0.2894590000   -0.0000000000
C       -0.1611470000   -0.1386160000   -0.0000000000
C       -0.0243110000    0.0439030000   -0.0000000000
N       -0.3383530000    0.0410460000   -0.0000000000
H        0.1443440000    0.0027210000   -0.0000000000
H        0.1419650000    0.0204340000   -0.0000000000
H        0.1735120000   -0.0153140000   -0.0000000000
H        0.1483530000    0.0106500000   -0.0000000000
H        0.1537050000    0.0076700000   -0.0000000000
C       -0.0800910000    0.7661960000    0.0000000000
H        0.1327070000   -0.0060710000    0.0000000000
13   
From optimize.out: Frame 13 / 27, Energy=    -286.8244024368
C        0.0896020000    0.0409990000   -0.0000000000
C       -0.2646330000   -0.0648220000   -0.0000000000
C       -0.1122610000    0.2517530000   -0.0000000000
C       -0.1642200000   -0.1238550000   -0.0000000000
C       -0.0223690000    0.0474490000   -0.0000000000
N       -0.3388510000    0.0433070000   -0.0000000000
H        0.1438910000    0.0025990000   -0.0000000000
H        0.1423640000    0.0204860000   -0.0000000000
H        0.1705320000   -0.0136780000   -0.0000000000
H        0.1477330000    0.0094710000   -0.0000000000
H        0.1531410000    0.0071570000   -0.0000000000
C       -0.0776500000    0.7876300000    0.0000000000
H        0.1327220000   -0.0084960000    0.0000000000
13   
From optimize.out: Frame 14 / 27, Energy=    -286.8273170374
C        0.0905440000    0.0398480000   -0.0000000000
C       -0.2642080000   -0.0649250000   -0.0000000000
C       -0.1101740000    0.2112570000   -0.0000000000
C       -0.1671030000   -0.1098660000   -0.0000000000
C       -0.0207690000    0.0524640000   -0.0000000000
N       -0.3394330000    0.0445330000   -0.0000000000
H        0.1434330000    0.0024610000   -0.0000000000
H        0.1425810000    0.0206330000   -0.0000000000
H        0.1672170000   -0.0112870000   -0.0000000000
H        0.1472270000    0.0082450000   -0.0000000000
H        0.1526930000    0.0065450000   -0.0000000000
C       -0.0752110000    0.8116310000    0.0000000000
H        0.1332010000   -0.0115380000    0.0000000000
13   
From optimize.out: Frame 15 / 27, Energy=    -286.8301714310
C        0.0917840000    0.0389770000   -0.0000000000
C       -0.2632240000   -0.0651220000   -0.0000000000
C       -0.1089120000    0.1747380000   -0.0000000000
C       -0.1688620000   -0.0995710000   -0.0000000000
C       -0.0197080000    0.0579200000   -0.0000000000
N       -0.3400950000    0.0446820000   -0.0000000000
H        0.1429780000    0.0023280000   -0.0000000000
H        0.1425270000    0.0208090000   -0.0000000000
H        0.1634430000   -0.0085810000   -0.0000000000
H        0.1468530000    0.0072080000   -0.0000000000
H        0.1523190000    0.0059120000   -0.0000000000
C       -0.0732090000    0.8357240000    0.0000000000
H        0.1341060000   -0.0150250000    0.0000000000
13   
From optimize.out: Frame 16 / 27, Energy=    -286.8329641036
C        0.0930950000    0.0380960000   -0.0000000000
C       -0.2618500000   -0.0655240000   -0.0000000000
C       -0.1084970000    0.1452890000   -0.0000000000
C       -0.1690040000   -0.0936040000   -0.0000000000
C       -0.0190750000    0.0629160000   -0.0000000000
N       -0.3408250000    0.0443540000   -0.0000000000
H        0.1425430000    0.0022410000   -0.0000000000
H        0.1420940000    0.0209910000   -0.0000000000
H        0.1593830000   -0.0060000000   -0.0000000000
H        0.1466290000    0.0064370000   -0.0000000000
H        0.1520050000    0.0053310000   -0.0000000000
C       -0.0717320000    0.8581820000    0.0000000000
H        0.1352350000   -0.0187110000    0.0000000000
13   
From optimize.out: Frame 17 / 27, Energy=    -286.8354470634
C        0.0933550000    0.0374470000   -0.0000000000
C       -0.2604190000   -0.0661550000   -0.0000000000
C       -0.1083980000    0.1223740000   -0.0000000000
C       -0.1679910000   -0.0911050000   -0.0000000000
C       -0.0184390000    0.0677460000   -0.0000000000
N       -0.3415160000    0.0442650000   -0.0000000000
H        0.1422380000    0.0022130000   -0.0000000000
H        0.1415320000    0.0211800000   -0.0000000000
H        0.1553430000   -0.0038130000   -0.0000000000
H        0.1465820000    0.0058850000   -0.0000000000
H        0.1517320000    0.0048070000   -0.0000000000
C       -0.0704050000    0.8771460000    0.0000000000
H        0.1363860000   -0.0219900000    0.0000000000
13   
From optimize.out: Frame 18 / 27, Energy=    -286.8371736711
C        0.0920360000    0.0381130000   -0.0000000000
C       -0.2594320000   -0.0669000000   -0.0000000000
C       -0.1079020000    0.1042440000   -0.0000000000
C       -0.1663640000   -0.0912350000   -0.0000000000
C       -0.0181840000    0.0739580000   -0.0000000000
N       -0.3420240000    0.0440290000   -0.0000000000
H        0.1421600000    0.0021530000   -0.0000000000
H        0.1413760000    0.0213550000   -0.0000000000
H        0.1518150000   -0.0020910000   -0.0000000000
H        0.1466420000    0.0054830000   -0.0000000000
H        0.1514150000    0.0042420000   -0.0000000000
C       -0.0690000000    0.8909240000    0.0000000000
H        0.1374620000   -0.0242750000    0.0000000000
13   
From optimize.out: Frame 19 / 27, Energy=    -286.8379404468
C        0.0922480000    0.0388560000   -0.0000000000
C       -0.2599880000   -0.0674770000   -0.0000000000
C       -0.1076480000    0.0926070000   -0.0000000000
C       -0.1631330000   -0.0936530000   -0.0000000000
C       -0.0189740000    0.0813590000   -0.0000000000
N       -0.3429060000    0.0438230000   -0.0000000000
H        0.1423590000    0.0019780000   -0.0000000000
H        0.1411360000    0.0215800000   -0.0000000000
H        0.1491770000   -0.0009170000   -0.0000000000
H        0.1466430000    0.0051800000   -0.0000000000
H        0.1510880000    0.0036920000   -0.0000000000
C       -0.0680250000    0.8989160000    0.0000000000
H        0.1380220000   -0.0259440000    0.0000000000
13   
From optimize.out: Frame 21 / 27, Energy=    -286.8382057671
C        0.0893310000    0.0432020000   -0.0000000000
C       -0.2595770000   -0.0673870000   -0.0000000000
C       -0.1083250000    0.0879950000   -0.0000000000
C       -0.1629750000   -0.0962470000   -0.0000000000
C       -0.0182420000    0.0888450000   -0.0000000000
N       -0.3430170000    0.0423000000   -0.0000000000
H        0.1427290000    0.0016800000   -0.0000000000
H        0.1420610000    0.0217580000   -0.0000000000
H        0.1485040000   -0.0005450000   -0.0000000000
H        0.1468180000    0.0050840000   -0.0000000000
H        0.1510420000    0.0032000000   -0.0000000000
C       -0.0663520000    0.8945340000    0.0000000000
H        0.1380040000   -0.0244210000    0.0000000000
13   
From optimize.out: Frame 22 / 27, Energy=    -286.8382649297
C        0.0898140000    0.0452020000   -0.0000000000
C       -0.2596160000   -0.0669380000   -0.0000000000
C       -0.1075450000    0.0863140000   -0.0000000000
C       -0.1635410000   -0.0961510000   -0.0000000000
C       -0.0186290000    0.0911340000   -0.0000000000
N       -0.3428590000    0.0405320000   -0.0000000000
H        0.1427720000    0.0014960000   -0.0000000000
H        0.1421560000    0.0219270000   -0.0000000000
H        0.1486790000   -0.0005400000   -0.0000000000
H        0.1469220000    0.0050580000   -0.0000000000
H        0.1508600000    0.0031390000   -0.0000000000
C       -0.0664380000    0.8918900000    0.0000000000
H        0.1374250000   -0.0230620000    0.0000000000
13   
From optimize.out: Frame 23 / 27, Energy=    -286.8383397253
C        0.0890730000    0.0485930000   -0.0000000000
C       -0.2591890000   -0.0662910000   -0.0000000000
C       -0.1079440000    0.0823750000   -0.0000000000
C       -0.1640670000   -0.0966290000   -0.0000000000
C       -0.0183820000    0.0961120000   -0.0000000000
N       -0.3425700000    0.0380480000   -0.0000000000
H        0.1428430000    0.0012750000   -0.0000000000
H        0.1425740000    0.0223900000   -0.0000000000
H        0.1486380000   -0.0006480000   -0.0000000000
H        0.1471090000    0.0051910000   -0.0000000000
H        0.1510850000    0.0029120000   -0.0000000000
C       -0.0657120000    0.8871670000    0.0000000000
H        0.1365430000   -0.0204960000    0.0000000000
13   
From optimize.out: Frame 24 / 27, Energy=    -286.8383641264
C        0.0888330000    0.0487030000   -0.0000000000
C       -0.2587410000   -0.0655520000   -0.0000000000
C       -0.1076640000    0.0788830000   -0.0000000000
C       -0.1644130000   -0.0964880000   -0.0000000000
C       -0.0183980000    0.0985080000   -0.0000000000
N       -0.3425930000    0.0383060000   -0.0000000000
H        0.1432000000    0.0011980000   -0.0000000000
H        0.1429080000    0.0227500000   -0.0000000000
H        0.1482250000   -0.0006580000   -0.0000000000
H        0.1473620000    0.0051950000   -0.0000000000
H        0.1512750000    0.0028600000   -0.0000000000
C       -0.0660620000    0.8853290000    0.0000000000
H        0.1360670000   -0.0190350000    0.0000000000
13   
From optimize.out: Frame 25 / 27, Energy=    -286.8383768561
C        0.0888600000    0.0484440000   -0.0000000000
C       -0.2586480000   -0.0657270000   -0.0000000000
C       -0.1079980000    0.0775920000   -0.0000000000
C       -0.1637970000   -0.0962790000   -0.0000000000
C       -0.0188480000    0.0984490000   -0.0000000000
N       -0.3423810000    0.0379480000   -0.0000000000
H        0.1430370000    0.0013000000   -0.0000000000
H        0.1428670000    0.0226860000   -0.0000000000
H        0.1480630000   -0.0006770000   -0.0000000000
H        0.1473050000    0.0052560000   -0.0000000000
H        0.1513890000    0.0027990000   -0.0000000000
C       -0.0659550000    0.8873170000    0.0000000000
H        0.1361060000   -0.0191080000    0.0000000000
13   
From optimize.out: Frame 26 / 27, Energy=    -286.8383800304
C        0.0887610000    0.0475090000   -0.0000000000
C       -0.2587230000   -0.0657800000   -0.0000000000
C       -0.1079420000    0.0779900000   -0.0000000000
C       -0.1638960000   -0.0961020000   -0.0000000000
C       -0.0188510000    0.0973520000   -0.0000000000
N       -0.3422580000    0.0387900000   -0.0000000000
H        0.1429810000    0.0013480000   -0.0000000000
H        0.1428680000    0.0226680000   -0.0000000000
H        0.1480950000   -0.0007460000   -0.0000000000
H        0.1472710000    0.0052850000   -0.0000000000
H        0.1513760000    0.0028390000   -0.0000000000
C       -0.0659750000    0.8882420000    0.0000000000
H        0.1362910000   -0.0193950000    0.0000000000
