13   
From optimize.out: Frame 1 / 25, Energy=    -286.6486751627
C        0.0664440000   -0.2512860000   -0.0000000000
C       -0.1609270000    0.3856610000   -0.0000000000
C       -0.1982690000    0.0672010000   -0.0000000000
C       -0.1446300000    0.4205750000   -0.0000000000
C       -0.1026350000   -0.1735720000   -0.0000000000
N       -0.3521590000    0.7985180000   -0.0000000000
H        0.1609240000    0.0278620000   -0.0000000000
H        0.1464910000   -0.0189730000   -0.0000000000
H        0.1694700000    0.0137860000   -0.0000000000
H        0.1852780000   -0.0201640000   -0.0000000000
H        0.1737060000    0.0125460000   -0.0000000000
C       -0.0567820000   -0.2756830000   -0.0000000000
H        0.1130880000    0.0135300000   -0.0000000000
13   
From optimize.out: Frame 2 / 25, Energy=    -286.6920728700
C        0.0697940000   -0.2405820000   -0.0000000000
C       -0.1533850000    0.4149980000   -0.0000000000
C       -0.1956780000    0.0472890000   -0.0000000000
C       -0.1322640000    0.3460070000   -0.0000000000
C       -0.0985080000   -0.1290670000   -0.0000000000
N       -0.3594180000    0.7631050000   -0.0000000000
H        0.1555730000    0.0274050000   -0.0000000000
H        0.1451840000   -0.0202370000   -0.0000000000
H        0.1687590000    0.0152730000   -0.0000000000
H        0.1803640000   -0.0186940000   -0.0000000000
H        0.1711510000    0.0114920000   -0.0000000000
C       -0.0719440000   -0.2281050000   -0.0000000000
H        0.1203690000    0.0111160000   -0.0000000000
13   
From optimize.out: Frame 3 / 25, Energy=    -286.7287688643
C        0.0708490000   -0.2330730000   -0.0000000000
C       -0.1462400000    0.4491420000   -0.0000000000
C       -0.1937420000    0.0315660000   -0.0000000000
C       -0.1199080000    0.2830160000   -0.0000000000
C       -0.0909260000   -0.0951000000   -0.0000000000
N       -0.3673820000    0.7220900000   -0.0000000000
H        0.1515020000    0.0258550000   -0.0000000000
H        0.1439830000   -0.0218090000   -0.0000000000
H        0.1670220000    0.0168370000   -0.0000000000
H        0.1750650000   -0.0166720000   -0.0000000000
H        0.1679130000    0.0107050000   -0.0000000000
C       -0.0848830000   -0.1813840000   -0.0000000000
H        0.1267470000    0.0088260000   -0.0000000000
13   
From optimize.out: Frame 4 / 25, Energy=    -286.7588227518
C        0.0698640000   -0.2282510000   -0.0000000000
C       -0.1395880000    0.4834220000   -0.0000000000
C       -0.1930880000    0.0193690000   -0.0000000000
C       -0.1094580000    0.2355030000   -0.0000000000
C       -0.0809920000   -0.0722140000   -0.0000000000
N       -0.3740440000    0.6827950000   -0.0000000000
H        0.1482930000    0.0233770000   -0.0000000000
H        0.1434290000   -0.0233980000   -0.0000000000
H        0.1651180000    0.0183200000   -0.0000000000
H        0.1699560000   -0.0142040000   -0.0000000000
H        0.1645040000    0.0106290000   -0.0000000000
C       -0.0957560000   -0.1425140000   -0.0000000000
H        0.1317610000    0.0071670000   -0.0000000000
13   
From optimize.out: Frame 5 / 25, Energy=    -286.7834260872
C        0.0671120000   -0.2252200000   -0.0000000000
C       -0.1330430000    0.5172400000   -0.0000000000
C       -0.1938900000    0.0086360000   -0.0000000000
C       -0.1013760000    0.1973340000   -0.0000000000
C       -0.0705270000   -0.0572670000   -0.0000000000
N       -0.3779730000    0.6472720000   -0.0000000000
H        0.1457760000    0.0204300000   -0.0000000000
H        0.1432040000   -0.0249380000   -0.0000000000
H        0.1634310000    0.0196460000   -0.0000000000
H        0.1651530000   -0.0113690000   -0.0000000000
H        0.1609910000    0.0112490000   -0.0000000000
C       -0.1043370000   -0.1090830000   -0.0000000000
H        0.1354780000    0.0060700000   -0.0000000000
13   
From optimize.out: Frame 6 / 25, Energy=    -286.8033583074
C        0.0634680000   -0.2239130000   -0.0000000000
C       -0.1266560000    0.5512540000   -0.0000000000
C       -0.1954430000   -0.0021370000   -0.0000000000
C       -0.0956480000    0.1631250000   -0.0000000000
C       -0.0619880000   -0.0476060000   -0.0000000000
N       -0.3785180000    0.6165070000   -0.0000000000
H        0.1438370000    0.0174160000   -0.0000000000
H        0.1430530000   -0.0264500000   -0.0000000000
H        0.1620180000    0.0207310000   -0.0000000000
H        0.1606790000   -0.0082260000   -0.0000000000
H        0.1576160000    0.0123360000   -0.0000000000
C       -0.1103800000   -0.0784400000   -0.0000000000
H        0.1379620000    0.0054040000   -0.0000000000
13   
From optimize.out: Frame 7 / 25, Energy=    -286.8194679306
C        0.0600240000   -0.2240870000   -0.0000000000
C       -0.1208980000    0.5846930000   -0.0000000000
C       -0.1968110000   -0.0130670000   -0.0000000000
C       -0.0920210000    0.1316880000   -0.0000000000
C       -0.0567260000   -0.0412060000   -0.0000000000
N       -0.3764100000    0.5908120000   -0.0000000000
H        0.1423710000    0.0146680000   -0.0000000000
H        0.1428620000   -0.0279040000   -0.0000000000
H        0.1608160000    0.0215560000   -0.0000000000
H        0.1565470000   -0.0050870000   -0.0000000000
H        0.1547790000    0.0135590000   -0.0000000000
C       -0.1139230000   -0.0506980000   -0.0000000000
H        0.1393890000    0.0050730000   -0.0000000000
13   
From optimize.out: Frame 8 / 25, Energy=    -286.8326216074
C        0.0571390000   -0.2250710000   -0.0000000000
C       -0.1162840000    0.6154290000   -0.0000000000
C       -0.1975210000   -0.0232620000   -0.0000000000
C       -0.0899680000    0.1045500000   -0.0000000000
C       -0.0542800000   -0.0367160000   -0.0000000000
N       -0.3728570000    0.5695380000   -0.0000000000
H        0.1412320000    0.0123640000   -0.0000000000
H        0.1427280000   -0.0292080000   -0.0000000000
H        0.1596850000    0.0222160000   -0.0000000000
H        0.1528020000   -0.0023430000   -0.0000000000
H        0.1527250000    0.0147730000   -0.0000000000
C       -0.1153940000   -0.0272790000   -0.0000000000
H        0.1399920000    0.0050080000   -0.0000000000
13   
From optimize.out: Frame 9 / 25, Energy=    -286.8434159131
C        0.0546410000   -0.2262890000   -0.0000000000
C       -0.1131210000    0.6416480000   -0.0000000000
C       -0.1975420000   -0.0320080000   -0.0000000000
C       -0.0888100000    0.0826660000   -0.0000000000
C       -0.0536350000   -0.0334490000   -0.0000000000
N       -0.3686350000    0.5521020000   -0.0000000000
H        0.1403670000    0.0105530000   -0.0000000000
H        0.1427230000   -0.0302890000   -0.0000000000
H        0.1584960000    0.0228150000   -0.0000000000
H        0.1494620000   -0.0001860000   -0.0000000000
H        0.1514440000    0.0160210000   -0.0000000000
C       -0.1153380000   -0.0087270000   -0.0000000000
H        0.1399490000    0.0051420000   -0.0000000000
13   
From optimize.out: Frame 10 / 25, Energy=    -286.8522014272
C        0.0524750000   -0.2274910000   -0.0000000000
C       -0.1114700000    0.6624430000   -0.0000000000
C       -0.1969470000   -0.0390570000   -0.0000000000
C       -0.0879340000    0.0659110000   -0.0000000000
C       -0.0541380000   -0.0310950000   -0.0000000000
N       -0.3642900000    0.5384440000   -0.0000000000
H        0.1398010000    0.0092280000   -0.0000000000
H        0.1427870000   -0.0311170000   -0.0000000000
H        0.1572030000    0.0233970000   -0.0000000000
H        0.1465080000    0.0013670000   -0.0000000000
H        0.1508240000    0.0173240000   -0.0000000000
C       -0.1142310000    0.0052440000   -0.0000000000
H        0.1394130000    0.0054020000   -0.0000000000
13   
From optimize.out: Frame 11 / 25, Energy=    -286.8592148942
C        0.0506970000   -0.2286120000   -0.0000000000
C       -0.1111020000    0.6776400000   -0.0000000000
C       -0.1959060000   -0.0444220000   -0.0000000000
C       -0.0868730000    0.0536740000   -0.0000000000
C       -0.0553940000   -0.0294780000   -0.0000000000
N       -0.3602670000    0.5285530000   -0.0000000000
H        0.1395200000    0.0083440000   -0.0000000000
H        0.1428550000   -0.0316980000   -0.0000000000
H        0.1558060000    0.0239760000   -0.0000000000
H        0.1439310000    0.0023830000   -0.0000000000
H        0.1507220000    0.0186610000   -0.0000000000
C       -0.1125270000    0.0152570000   -0.0000000000
H        0.1385350000    0.0057220000   -0.0000000000
13   
From optimize.out: Frame 12 / 25, Energy=    -286.8646599490
C        0.0493850000   -0.2296380000   -0.0000000000
C       -0.1116340000    0.6877020000   -0.0000000000
C       -0.1946880000   -0.0482630000   -0.0000000000
C       -0.0853220000    0.0450310000   -0.0000000000
C       -0.0570630000   -0.0284610000   -0.0000000000
N       -0.3569160000    0.5221710000   -0.0000000000
H        0.1394850000    0.0078260000   -0.0000000000
H        0.1428910000   -0.0320620000   -0.0000000000
H        0.1543330000    0.0245420000   -0.0000000000
H        0.1417200000    0.0029760000   -0.0000000000
H        0.1509790000    0.0199780000   -0.0000000000
C       -0.1106180000    0.0221640000   -0.0000000000
H        0.1374480000    0.0060350000   -0.0000000000
13   
From optimize.out: Frame 13 / 25, Energy=    -286.8687431395
C        0.0485010000   -0.2305300000   -0.0000000000
C       -0.1125910000    0.6934960000   -0.0000000000
C       -0.1935920000   -0.0508310000   -0.0000000000
C       -0.0832060000    0.0390880000   -0.0000000000
C       -0.0588380000   -0.0279060000   -0.0000000000
N       -0.3543660000    0.5187000000   -0.0000000000
H        0.1396210000    0.0075720000   -0.0000000000
H        0.1429160000   -0.0322530000   -0.0000000000
H        0.1528210000    0.0250680000   -0.0000000000
H        0.1398870000    0.0032730000   -0.0000000000
H        0.1514200000    0.0212330000   -0.0000000000
C       -0.1088500000    0.0267890000   -0.0000000000
H        0.1362760000    0.0063000000   -0.0000000000
13   
From optimize.out: Frame 14 / 25, Energy=    -286.8716778438
C        0.0480100000   -0.2312270000   -0.0000000000
C       -0.1136030000    0.6961630000   -0.0000000000
C       -0.1928080000   -0.0524180000   -0.0000000000
C       -0.0807520000    0.0351740000   -0.0000000000
C       -0.0604540000   -0.0276960000   -0.0000000000
N       -0.3526350000    0.5173380000   -0.0000000000
H        0.1398750000    0.0074820000   -0.0000000000
H        0.1429510000   -0.0323230000   -0.0000000000
H        0.1513340000    0.0255080000   -0.0000000000
H        0.1384490000    0.0033900000   -0.0000000000
H        0.1518970000    0.0223800000   -0.0000000000
C       -0.1073970000    0.0297240000   -0.0000000000
H        0.1351330000    0.0065040000   -0.0000000000
13   
From optimize.out: Frame 15 / 25, Energy=    -286.8736635594
C        0.0477460000   -0.2316780000   -0.0000000000
C       -0.1143820000    0.6967070000   -0.0000000000
C       -0.1924310000   -0.0533310000   -0.0000000000
C       -0.0784540000    0.0327140000   -0.0000000000
C       -0.0616850000   -0.0276900000   -0.0000000000
N       -0.3515230000    0.5172190000   -0.0000000000
H        0.1401600000    0.0074700000   -0.0000000000
H        0.1430530000   -0.0323140000   -0.0000000000
H        0.1499480000    0.0258150000   -0.0000000000
H        0.1374820000    0.0034270000   -0.0000000000
H        0.1522720000    0.0234290000   -0.0000000000
C       -0.1063190000    0.0315690000   -0.0000000000
H        0.1341350000    0.0066610000   -0.0000000000
13   
From optimize.out: Frame 16 / 25, Energy=    -286.8748589232
C        0.0478050000   -0.2318330000   -0.0000000000
C       -0.1149420000    0.6960750000   -0.0000000000
C       -0.1924540000   -0.0538100000   -0.0000000000
C       -0.0769200000    0.0313640000   -0.0000000000
C       -0.0622310000   -0.0277970000   -0.0000000000
N       -0.3510610000    0.5176420000   -0.0000000000
H        0.1404870000    0.0074800000   -0.0000000000
H        0.1431800000   -0.0322650000   -0.0000000000
H        0.1487610000    0.0259390000   -0.0000000000
H        0.1370630000    0.0034620000   -0.0000000000
H        0.1524470000    0.0243230000   -0.0000000000
C       -0.1055180000    0.0326420000   -0.0000000000
H        0.1333820000    0.0067780000   -0.0000000000
13   
From optimize.out: Frame 17 / 25, Energy=    -286.8753708043
C        0.0477120000   -0.2317020000   -0.0000000000
C       -0.1150380000    0.6944290000   -0.0000000000
C       -0.1928820000   -0.0540530000   -0.0000000000
C       -0.0766700000    0.0310200000   -0.0000000000
C       -0.0621010000   -0.0278720000   -0.0000000000
N       -0.3506750000    0.5179740000   -0.0000000000
H        0.1406570000    0.0074800000   -0.0000000000
H        0.1434840000   -0.0321800000   -0.0000000000
H        0.1478680000    0.0258150000   -0.0000000000
H        0.1373160000    0.0035260000   -0.0000000000
H        0.1522590000    0.0252450000   -0.0000000000
C       -0.1049050000    0.0334000000   -0.0000000000
H        0.1329770000    0.0069180000   -0.0000000000
13   
From optimize.out: Frame 18 / 25, Energy=    -286.8754110071
C        0.0478770000   -0.2314950000   -0.0000000000
C       -0.1151400000    0.6938330000   -0.0000000000
C       -0.1930970000   -0.0540790000   -0.0000000000
C       -0.0764430000    0.0311070000   -0.0000000000
C       -0.0620260000   -0.0278490000   -0.0000000000
N       -0.3508450000    0.5180650000   -0.0000000000
H        0.1406850000    0.0074700000   -0.0000000000
H        0.1434980000   -0.0321570000   -0.0000000000
H        0.1478930000    0.0256250000   -0.0000000000
H        0.1373600000    0.0035780000   -0.0000000000
H        0.1520600000    0.0254000000   -0.0000000000
C       -0.1047290000    0.0335460000   -0.0000000000
H        0.1329060000    0.0069550000   -0.0000000000
13   
From optimize.out: Frame 19 / 25, Energy=    -286.8754283251
C        0.0480690000   -0.2312560000   -0.0000000000
C       -0.1150860000    0.6936540000   -0.0000000000
C       -0.1932810000   -0.0541030000   -0.0000000000
C       -0.0763290000    0.0313640000   -0.0000000000
C       -0.0618800000   -0.0278030000   -0.0000000000
N       -0.3511150000    0.5179290000   -0.0000000000
H        0.1406680000    0.0074570000   -0.0000000000
H        0.1434700000   -0.0321550000   -0.0000000000
H        0.1480180000    0.0254910000   -0.0000000000
H        0.1374060000    0.0035830000   -0.0000000000
H        0.1519370000    0.0253630000   -0.0000000000
C       -0.1048810000    0.0335600000   -0.0000000000
H        0.1330040000    0.0069170000   -0.0000000000
13   
From optimize.out: Frame 20 / 25, Energy=    -286.8754378847
C        0.0482270000   -0.2310880000   -0.0000000000
C       -0.1150300000    0.6938180000   -0.0000000000
C       -0.1934920000   -0.0541080000   -0.0000000000
C       -0.0760440000    0.0315610000   -0.0000000000
C       -0.0618220000   -0.0277320000   -0.0000000000
N       -0.3514310000    0.5176680000   -0.0000000000
H        0.1406510000    0.0074470000   -0.0000000000
H        0.1434330000   -0.0321660000   -0.0000000000
H        0.1480880000    0.0254260000   -0.0000000000
H        0.1373350000    0.0035910000   -0.0000000000
H        0.1518840000    0.0252300000   -0.0000000000
C       -0.1048510000    0.0334790000   -0.0000000000
H        0.1330520000    0.0068740000   -0.0000000000
13   
From optimize.out: Frame 21 / 25, Energy=    -286.8754436250
C        0.0483030000   -0.2309940000   -0.0000000000
C       -0.1149350000    0.6939990000   -0.0000000000
C       -0.1936280000   -0.0540960000   -0.0000000000
C       -0.0759630000    0.0317380000   -0.0000000000
C       -0.0617730000   -0.0276990000   -0.0000000000
N       -0.3515960000    0.5174720000   -0.0000000000
H        0.1406300000    0.0074420000   -0.0000000000
H        0.1434130000   -0.0321760000   -0.0000000000
H        0.1481110000    0.0254080000   -0.0000000000
H        0.1373020000    0.0035890000   -0.0000000000
H        0.1518840000    0.0251190000   -0.0000000000
C       -0.1048920000    0.0333710000   -0.0000000000
H        0.1331430000    0.0068280000   -0.0000000000
13   
From optimize.out: Frame 22 / 25, Energy=    -286.8754486536
C        0.0483230000   -0.2309370000   -0.0000000000
C       -0.1148450000    0.6940360000   -0.0000000000
C       -0.1937200000   -0.0540540000   -0.0000000000
C       -0.0759600000    0.0319670000   -0.0000000000
C       -0.0617680000   -0.0277070000   -0.0000000000
N       -0.3516510000    0.5173500000   -0.0000000000
H        0.1406110000    0.0074400000   -0.0000000000
H        0.1433960000   -0.0321780000   -0.0000000000
H        0.1481150000    0.0254010000   -0.0000000000
H        0.1372920000    0.0035920000   -0.0000000000
H        0.1518790000    0.0250490000   -0.0000000000
C       -0.1048990000    0.0332400000   -0.0000000000
H        0.1332280000    0.0068010000   -0.0000000000
13   
From optimize.out: Frame 23 / 25, Energy=    -286.8754525840
C        0.0483090000   -0.2309070000   -0.0000000000
C       -0.1147800000    0.6938980000   -0.0000000000
C       -0.1937230000   -0.0540010000   -0.0000000000
C       -0.0760520000    0.0322080000   -0.0000000000
C       -0.0618150000   -0.0277510000   -0.0000000000
N       -0.3515890000    0.5173030000   -0.0000000000
H        0.1405960000    0.0074390000   -0.0000000000
H        0.1433840000   -0.0321720000   -0.0000000000
H        0.1481040000    0.0253950000   -0.0000000000
H        0.1373300000    0.0035970000   -0.0000000000
H        0.1518460000    0.0250420000   -0.0000000000
C       -0.1049120000    0.0331530000   -0.0000000000
H        0.1333030000    0.0067980000   -0.0000000000
13   
From optimize.out: Frame 24 / 25, Energy=    -286.8754551774
C        0.0482960000   -0.2308930000   -0.0000000000
C       -0.1147590000    0.6936710000   -0.0000000000
C       -0.1936430000   -0.0539610000   -0.0000000000
C       -0.0761380000    0.0323810000   -0.0000000000
C       -0.0619230000   -0.0278010000   -0.0000000000
N       -0.3514800000    0.5173050000   -0.0000000000
H        0.1405840000    0.0074390000   -0.0000000000
H        0.1433740000   -0.0321610000   -0.0000000000
H        0.1480810000    0.0253880000   -0.0000000000
H        0.1373860000    0.0036030000   -0.0000000000
H        0.1517870000    0.0250770000   -0.0000000000
C       -0.1049090000    0.0331370000   -0.0000000000
H        0.1333450000    0.0068150000   -0.0000000000
