13   
From optimize.out: Frame 1 / 3, Energy=    -286.8584590534
C        0.0770450000    0.5971590000   -0.0000000000
C       -0.2216900000   -0.0533000000    0.0000000000
C       -0.0891370000    0.0945940000   -0.0000000000
C       -0.2215870000   -0.0533250000    0.0000000000
C        0.0769410000    0.5976700000   -0.0000000000
N       -0.3955410000   -0.2054670000   -0.0000000000
H        0.1356870000   -0.0320470000   -0.0000000000
H        0.1420310000    0.0005190000    0.0000000000
H        0.1541700000   -0.0042840000   -0.0000000000
H        0.1422250000    0.0005170000    0.0000000000
H        0.1355830000   -0.0320790000   -0.0000000000
C       -0.0900150000    0.0943140000    0.0000000000
H        0.1542870000   -0.0042710000    0.0000000000
13   
From optimize.out: Frame 2 / 3, Energy=    -286.8584616693
C        0.0770150000    0.5971820000   -0.0000000000
C       -0.2214810000   -0.0533290000    0.0000000000
C       -0.0895310000    0.0946020000   -0.0000000000
C       -0.2215390000   -0.0533410000    0.0000000000
C        0.0769930000    0.5974160000   -0.0000000000
N       -0.3955560000   -0.2054060000   -0.0000000000
H        0.1356280000   -0.0320520000   -0.0000000000
H        0.1421050000    0.0005190000    0.0000000000
H        0.1541830000   -0.0042850000   -0.0000000000
H        0.1421930000    0.0005190000    0.0000000000
H        0.1355770000   -0.0320660000   -0.0000000000
C       -0.0898580000    0.0945220000    0.0000000000
H        0.1542700000   -0.0042800000    0.0000000000
