13   
From optimize.out: Frame 58 / 59, Energy=    -286.9514917305
C        1.8971984251    0.2740493145   -0.5361073664
C        1.2459137076   -0.9632674531   -0.6346891543
C       -0.0765072699   -1.0594478029   -0.2370396338
C       -0.7452312499    0.0937983533    0.2616426217
C        0.0336572926    1.2908312153    0.3095847326
N        1.3003488156    1.3867016300   -0.0709268702
H        2.9362621726    0.3797410279   -0.8412012353
H        1.7780705961   -1.8285668725   -1.0197773807
H       -0.6116480665   -2.0038752071   -0.2999359895
H       -2.6774642220   -0.8299070082    0.6468948197
H       -0.4300831383    2.2048005250    0.6816333215
C       -2.0859487614    0.0782627683    0.6823172581
H       -2.5645683021    0.9768795099    1.0576048761
13   
From optimize.out: Frame 57 / 59, Energy=    -286.9514887854
C        1.8975550341    0.2739197609   -0.5360086659
C        1.2453190054   -0.9630098971   -0.6341073963
C       -0.0770090950   -1.0586316755   -0.2369413116
C       -0.7455388612    0.0947535181    0.2617293696
C        0.0339306126    1.2908867078    0.3099470283
N        1.3009269483    1.3863874709   -0.0703483447
H        2.9368517702    0.3790714419   -0.8406472288
H        1.7764185198   -1.8283271592   -1.0206472790
H       -0.6115889529   -2.0031987759   -0.3005179239
H       -2.6757178826   -0.8330897848    0.6483819394
H       -0.4297549960    2.2054561815    0.6805833705
C       -2.0858370840    0.0787517921    0.6820334138
H       -2.5655550186    0.9770304192    1.0565430285
13   
From optimize.out: Frame 56 / 59, Energy=    -286.9514874809
C        1.8972020037    0.2747354571   -0.5370741206
C        1.2461769964   -0.9630775780   -0.6341859056
C       -0.0752096109   -1.0607377063   -0.2352973991
C       -0.7443826530    0.0916431238    0.2644306132
C        0.0338053460    1.2897200203    0.3118669505
N        1.3000478269    1.3867749241   -0.0707411937
H        2.9354312681    0.3811524637   -0.8448087840
H        1.7774869154   -1.8281179733   -1.0212598881
H       -0.6082864215   -2.0061909018   -0.2968276616
H       -2.6825401657   -0.8263934317    0.6439041030
H       -0.4312376117    2.2030369915    0.6839506644
C       -2.0854559540    0.0790175332    0.6807551447
H       -2.5630379399    0.9784370773    1.0552874769
13   
From optimize.out: Frame 55 / 59, Energy=    -286.9514756515
C        1.8962109107    0.2751524921   -0.5385914679
C        1.2461031449   -0.9628970137   -0.6357730555
C       -0.0740839053   -1.0622200092   -0.2336586836
C       -0.7432278221    0.0891425773    0.2687581159
C        0.0327265013    1.2892635566    0.3132652891
N        1.2981594764    1.3870027723   -0.0721046695
H        2.9355045685    0.3808150076   -0.8428250013
H        1.7771840742   -1.8271357763   -1.0251283882
H       -0.6065834554   -2.0081060235   -0.2943472703
H       -2.6833034995   -0.8257310767    0.6406948399
H       -0.4324290468    2.2024882909    0.6852808799
C       -2.0849767052    0.0794383870    0.6836196800
H       -2.5612842417    0.9827868157    1.0508097315
13   
From optimize.out: Frame 54 / 59, Energy=    -286.9514396233
C        1.8952597181    0.2759411461   -0.5369411029
C        1.2469693694   -0.9626095478   -0.6368214313
C       -0.0739717801   -1.0671463477   -0.2351305986
C       -0.7437375381    0.0831715872    0.2706538081
C        0.0293775171    1.2847166504    0.3116283936
N        1.2960604582    1.3859578078   -0.0671712303
H        2.9345590389    0.3846185919   -0.8400796225
H        1.7811922729   -1.8242175901   -1.0273763727
H       -0.6034824106   -2.0144482501   -0.3011396444
H       -2.6883448079   -0.8178864941    0.6461341013
H       -0.4374630603    2.1987211850    0.6788124947
C       -2.0836260535    0.0818691935    0.6883752188
H       -2.5527927242    0.9913120678    1.0490559862
13   
From optimize.out: Frame 53 / 59, Energy=    -286.9513040830
C        1.8948617976    0.2744087281   -0.5343919257
C        1.2474435987   -0.9643367403   -0.6341315198
C       -0.0731688681   -1.0691499836   -0.2262572216
C       -0.7407423042    0.0829415765    0.2810259711
C        0.0339675711    1.2855252497    0.3168605292
N        1.2989137118    1.3866015507   -0.0647742406
H        2.9241664170    0.3905517221   -0.8669585419
H        1.7839891179   -1.8251892319   -1.0226504359
H       -0.6065940371   -2.0152036511   -0.2862380056
H       -2.6900545759   -0.8202099454    0.6109882241
H       -0.4351261162    2.1977040672    0.6865246943
C       -2.0841566258    0.0838742455    0.6889959250
H       -2.5534996867    0.9924824124    1.0510065474
13   
From optimize.out: Frame 52 / 59, Energy=    -286.9511892208
C        1.8944555950    0.2767430653   -0.5377733050
C        1.2495493612   -0.9642041840   -0.6352461769
C       -0.0719965337   -1.0691270045   -0.2299919050
C       -0.7387830180    0.0787501728    0.2819711713
C        0.0298588281    1.2857280106    0.3037037221
N        1.2937368819    1.3894481722   -0.0772648413
H        2.9345068618    0.3860713295   -0.8379197917
H        1.7848679079   -1.8265021526   -1.0221798794
H       -0.6039949232   -2.0153583465   -0.2987729301
H       -2.7051494405   -0.8055207156    0.5958840091
H       -0.4480106590    2.1973451258    0.6627701802
C       -2.0800558090    0.0802050339    0.7067600740
H       -2.5389850525    0.9864214931    1.0880596727
13   
From optimize.out: Frame 51 / 59, Energy=    -286.9509126454
C        1.8934916080    0.2760442843   -0.5360292959
C        1.2556217746   -0.9683497766   -0.6287525904
C       -0.0664489170   -1.0727615864   -0.2286813876
C       -0.7350044806    0.0729308938    0.2800720634
C        0.0215990117    1.2843398760    0.3003355869
N        1.2841902480    1.3891518989   -0.0863507522
H        2.9289592440    0.3921403673   -0.8492096385
H        1.7960816395   -1.8304005118   -1.0091992737
H       -0.5983091012   -2.0190462268   -0.2993207858
H       -2.7303536757   -0.7755290242    0.5663967797
H       -0.4526146071    2.1959819962    0.6645690370
C       -2.0759355287    0.0784993287    0.7051936227
H       -2.5212772156    0.9769984806    1.1209766344
13   
From optimize.out: Frame 50 / 59, Energy=    -286.9506613329
C        1.8904355486    0.2777021102   -0.5440131521
C        1.2564375584   -0.9680383828   -0.6297328127
C       -0.0636157103   -1.0734196383   -0.2274213184
C       -0.7341398635    0.0711612565    0.2783026325
C        0.0175961768    1.2866723617    0.2992957473
N        1.2773207480    1.3917896149   -0.0997842557
H        2.9303129601    0.3890028481   -0.8445633581
H        1.7985699759   -1.8316158513   -1.0040542069
H       -0.5957102476   -2.0200859748   -0.2882222919
H       -2.7411651963   -0.7645103101    0.5510779956
H       -0.4490358015    2.1970108327    0.6771106077
C       -2.0728110520    0.0767844025    0.6979270855
H       -2.5141950966    0.9675467307    1.1340773271
13   
From optimize.out: Frame 49 / 59, Energy=    -286.9504282442
C        1.8915019529    0.2798497912   -0.5507699179
C        1.2512230214   -0.9642630480   -0.6268701333
C       -0.0712483479   -1.0704715490   -0.2227670865
C       -0.7406309418    0.0790822585    0.2836922291
C        0.0264779885    1.2853193573    0.2903717915
N        1.2905975674    1.3933083682   -0.0950522847
H        2.9296832539    0.3900317984   -0.8569679246
H        1.7961826095   -1.8316966396   -0.9885775326
H       -0.5948619740   -2.0217437154   -0.2761025719
H       -2.7315352746   -0.7675187493    0.5015916138
H       -0.4435786343    2.1936269748    0.6657527743
C       -2.0851746857    0.0779783389    0.7040848984
H       -2.5186365354    0.9564968142    1.1716141441
13   
From optimize.out: Frame 47 / 59, Energy=    -286.9494369164
C        1.8805772907    0.2840238479   -0.5518271862
C        1.2635907085   -0.9733159291   -0.6345352998
C       -0.0542809038   -1.0953974319   -0.2241210374
C       -0.7322212942    0.0498478786    0.2728836079
C        0.0105821491    1.2751939469    0.3085507255
N        1.2623969262    1.3939801536   -0.0987500245
H        2.9148582775    0.4094553912   -0.8663885837
H        1.8208932290   -1.8328206579   -0.9949906953
H       -0.5857014739   -2.0436118099   -0.2631311850
H       -2.7620471009   -0.7092431237    0.5317494177
H       -0.4588938604    2.1746986060    0.7071416379
C       -2.0744292149    0.0916815134    0.6698006792
H       -2.4853247328    0.9755076150    1.1436179436
13   
From optimize.out: Frame 46 / 59, Energy=    -286.9487713024
C        1.8963203387    0.2836389086   -0.5500505620
C        1.2637767784   -0.9706460469   -0.6227698133
C       -0.0503382660   -1.0857514238   -0.1980599377
C       -0.7238190123    0.0620304382    0.3058995107
C        0.0204239377    1.2706625380    0.3091246728
N        1.2792110548    1.3901891158   -0.1003135299
H        2.9266891512    0.4085243927   -0.8793244342
H        1.8019400154   -1.8279681993   -1.0184506070
H       -0.5746493918   -2.0354873184   -0.2511348937
H       -2.8018997306   -0.7367254624    0.4566458991
H       -0.4514838148    2.1872424067    0.6616129972
C       -2.0837300121    0.0829966826    0.7129171208
H       -2.5024410485    0.9712939682    1.1739035770
13   
From optimize.out: Frame 45 / 59, Energy=    -286.9473994548
C        1.8834311628    0.2882530978   -0.5815704729
C        1.2558869169   -0.9673220542   -0.6186819175
C       -0.0460002137   -1.0835876674   -0.1586966754
C       -0.7136915920    0.0710888385    0.3342188389
C        0.0379803967    1.2788874878    0.3313209893
N        1.2887091166    1.3953983728   -0.1032860718
H        2.9078484266    0.4075923283   -0.9292573899
H        1.7846492696   -1.8305714063   -1.0144620184
H       -0.5700852407   -2.0347084635   -0.1709349974
H       -2.7925317573   -0.7232821695    0.3279533203
H       -0.4171378883    2.2007785578    0.6930508969
C       -2.0953703316    0.0595359023    0.7086983847
H       -2.5236882657    0.9379371758    1.1816471131
13   
From optimize.out: Frame 44 / 59, Energy=    -286.9464088823
C        1.8913690829    0.2804410027   -0.5752410252
C        1.2582659225   -0.9650180734   -0.6100175266
C       -0.0425973452   -1.0705197071   -0.1522739020
C       -0.7074253189    0.0737174053    0.3457054973
C        0.0416762736    1.2856143229    0.3345193816
N        1.2964150589    1.3903821331   -0.1110468523
H        2.9112927347    0.3949688447   -0.9368375401
H        1.7752744354   -1.8309620285   -1.0149433451
H       -0.5701903976   -2.0195681635   -0.1796026544
H       -2.7881345661   -0.7039133439    0.2960820412
H       -0.4454183322    2.2010468899    0.6701469879
C       -2.0899051843    0.0438825958    0.7335140718
H       -2.5306223636    0.9199281220    1.1999948660
13   
From optimize.out: Frame 43 / 59, Energy=    -286.9440802409
C        1.8840136263    0.2924264012   -0.5808198427
C        1.2869743162   -0.9747699301   -0.6198478938
C       -0.0087555811   -1.1140401133   -0.1569875820
C       -0.7063466595    0.0140649336    0.3459464115
C        0.0115199053    1.2336896989    0.3405320800
N        1.2584293463    1.3784738558   -0.1062857316
H        2.8982651986    0.4444623466   -0.9463962726
H        1.8236467511   -1.8257534316   -1.0303673229
H       -0.5256116574   -2.0679720769   -0.1794984246
H       -2.8533672148   -0.5716481864    0.3161676500
H       -0.4576010241    2.1525573548    0.6908272009
C       -2.1058047473    0.0657607531    0.7378261582
H       -2.5053622598    0.9727483941    1.1889035696
13   
From optimize.out: Frame 42 / 59, Energy=    -286.9428792819
C        1.8718292180    0.2896201566   -0.5988760110
C        1.2560558667   -0.9701141452   -0.6162999666
C       -0.0326784330   -1.0901277403   -0.1208330924
C       -0.7068309820    0.0542706539    0.3801523100
C        0.0383917578    1.2576517132    0.3683068849
N        1.2762231414    1.3871895314   -0.1078422839
H        2.8816236317    0.4243679877   -0.9836854993
H        1.7761282514   -1.8294932376   -1.0296983220
H       -0.5408471107   -2.0504095375   -0.1210924778
H       -2.7742831188   -0.7009915534    0.2216836064
H       -0.4176583706    2.1788119212    0.7300326666
C       -2.0900090691    0.0700955972    0.7440907619
H       -2.5379447829    0.9791286529    1.1340614231
13   
From optimize.out: Frame 41 / 59, Energy=    -286.9406135735
C        1.8665071307    0.2846086412   -0.6090208569
C        1.2394439013   -0.9679956325   -0.6062668481
C       -0.0462311613   -1.0680397940   -0.0900325295
C       -0.6988083486    0.0840728547    0.3987675691
C        0.0600736206    1.2803769806    0.3698022912
N        1.2916081783    1.3958022289   -0.1283376108
H        2.8724751391    0.4003238516   -1.0092916958
H        1.7445693932   -1.8393978552   -1.0128720571
H       -0.5554143515   -2.0293068600   -0.0700910531
H       -2.6907684486   -0.6052848861    0.0897310929
H       -0.3999640800    2.2025285669    0.7249806620
C       -2.0751527568    0.0105994943    0.7572134856
H       -2.6083382166    0.8517124097    1.1854175504
13   
From optimize.out: Frame 40 / 59, Energy=    -286.9348164279
C        1.8508776722    0.2810409421   -0.6153037835
C        1.2398074017   -0.9722679239   -0.6108688302
C       -0.0402830684   -1.0800840605   -0.0776609837
C       -0.7052408095    0.0636703456    0.4092081816
C        0.0466304246    1.2651357751    0.3815716542
N        1.2736380137    1.3839232257   -0.1227813007
H        2.8527070381    0.4059160256   -1.0211551885
H        1.7480093584   -1.8382801325   -1.0250267367
H       -0.5464802168   -2.0450760873   -0.0496680274
H       -2.6007890558   -0.5706388884    0.0256836159
H       -0.4041546019    2.1912527981    0.7391011716
C       -2.0774528506    0.0316779927    0.7996664752
H       -2.6372693056    0.8837299877    1.1672337522
13   
From optimize.out: Frame 39 / 59, Energy=    -286.9249236981
C        1.8390481427    0.2805166281   -0.6188632643
C        1.2254684981   -0.9705269802   -0.6066743003
C       -0.0534074654   -1.0840932564   -0.0644475260
C       -0.7156195615    0.0630528057    0.4159323264
C        0.0413286298    1.2620491412    0.3807905047
N        1.2662892720    1.3835394043   -0.1266275529
H        2.8411801668    0.4015731142   -1.0235960000
H        1.7326454210   -1.8379338020   -1.0197275085
H       -0.5405705306   -2.0603891540   -0.0335687355
H       -2.5078287808   -0.4927428555   -0.0524119372
H       -0.4123094744    2.1877013061    0.7360390452
C       -2.0622961344    0.0172591895    0.8288889069
H       -2.6539281833    0.8499944589    1.1842660414
13   
From optimize.out: Frame 38 / 59, Energy=    -286.9112685455
C        1.8276552636    0.2741647352   -0.6169043753
C        1.2192329507   -0.9757324196   -0.6020059644
C       -0.0570044562   -1.0948922433   -0.0630148825
C       -0.7317345693    0.0499276569    0.4160394588
C        0.0206577498    1.2605304962    0.3792537061
N        1.2461276441    1.3749863875   -0.1260718777
H        2.8295889521    0.3980359910   -1.0190401398
H        1.7324714040   -1.8388849884   -1.0170831782
H       -0.5254631146   -2.0814925757   -0.0415149820
H       -2.4103578057   -0.4062323104   -0.1070493745
H       -0.4402503584    2.1855389098    0.7293550460
C       -2.0626218328    0.0052875765    0.8612633721
H       -2.6483018272    0.8487627842    1.2067731914
13   
From optimize.out: Frame 37 / 59, Energy=    -286.8930338260
C        1.8269679223    0.2715902418   -0.6153729639
C        1.2054590183   -0.9705843385   -0.5912413866
C       -0.0737207838   -1.0942882841   -0.0568038267
C       -0.7386222166    0.0715145239    0.4143107756
C        0.0220908950    1.2659397589    0.3647160193
N        1.2486846855    1.3753319885   -0.1330849235
H        2.8312271290    0.3863820517   -1.0120603953
H        1.7202919264   -1.8345579525   -1.0032513145
H       -0.5541417988   -2.0749325733   -0.0313723903
H       -2.3080813559   -0.2558890783   -0.1546448886
H       -0.4407372142    2.1947574562    0.7040284836
C       -2.0592243762   -0.0687523110    0.8627910862
H       -2.6801938310    0.7334885166    1.2519857247
13   
From optimize.out: Frame 36 / 59, Energy=    -286.8704750230
C        1.8206952403    0.2621739185   -0.6104792612
C        1.1914094587   -0.9733599314   -0.5820146957
C       -0.0852359731   -1.0930441088   -0.0619728354
C       -0.7636823256    0.0720777712    0.4113807643
C        0.0058887365    1.2741957111    0.3614374159
N        1.2373783271    1.3725752597   -0.1317718292
H        2.8272524816    0.3697768414   -1.0045374508
H        1.7090603477   -1.8352353905   -0.9949300407
H       -0.5140467364   -2.0945913940   -0.0578514994
H       -2.2183763894   -0.1528249713   -0.1678710447
H       -0.4799016163    2.1918760521    0.6983627678
C       -2.0780376268   -0.1172926985    0.8718449862
H       -2.6524039245    0.7236729405    1.2684027229
13   
From optimize.out: Frame 35 / 59, Energy=    -286.8490951593
C        1.8195754404    0.2778530623   -0.6003064758
C        1.1923652524   -0.9741408988   -0.5794315729
C       -0.0843553615   -1.1136311574   -0.0677189460
C       -0.7869521965    0.0463378815    0.4171202624
C       -0.0045239374    1.2649008769    0.3571516367
N        1.2303341465    1.3808660615   -0.1198859942
H        2.8254354497    0.3956487253   -0.9968129184
H        1.7094372424   -1.8325158481   -1.0001241682
H       -0.6066299437   -2.0651514310   -0.0300372105
H       -2.1373829691   -0.1144678272   -0.1802738459
H       -0.5039834972    2.1758502640    0.6894513803
C       -2.0881850378   -0.1782343419    0.8685546771
H       -2.5651345883    0.7366846328    1.2423131754
13   
From optimize.out: Frame 34 / 59, Energy=    -286.8295513371
C        1.8074159275    0.2843129369   -0.5882153880
C        1.1970138647   -0.9857605532   -0.5798833840
C       -0.0791606428   -1.1428818671   -0.0856142461
C       -0.8190162774    0.0063019242    0.4065171254
C       -0.0385149058    1.2494486268    0.3443764174
N        1.1978223819    1.3812070812   -0.1127511291
H        2.8154430286    0.4183751471   -0.9752865631
H        1.7291125559   -1.8365230975   -0.9970940354
H       -0.6262590815   -2.0787182925   -0.0408511877
H       -2.0659322688   -0.0933796311   -0.2344273517
H       -0.5514197398    2.1536278454    0.6731637544
C       -2.1087790289   -0.1734143417    0.9287201368
H       -2.4577258135    0.8174042216    1.2613458512
13   
From optimize.out: Frame 33 / 59, Energy=    -286.8045011658
C        1.7839541861    0.2882108056   -0.5767329683
C        1.2067070264   -1.0023959072   -0.5863004651
C       -0.0628371426   -1.1791282931   -0.1056255016
C       -0.8602553792   -0.0571528252    0.3999738255
C       -0.0941081776    1.2208453232    0.3443913582
N        1.1415584138    1.3685210398   -0.0969806992
H        2.7913185323    0.4516308486   -0.9557753762
H        1.7607951494   -1.8386739969   -1.0039759939
H       -0.6218818445   -2.1066419273   -0.0571720843
H       -2.0125321020   -0.1388695634   -0.2870649938
H       -0.6230775018    2.1142342036    0.6759291820
C       -2.1246319203   -0.0951481654    1.0107833147
H       -2.2850092400    0.9745684579    1.2385504022
13   
From optimize.out: Frame 31 / 59, Energy=    -286.7949180944
C        1.7912578923    0.2777519048   -0.5651264635
C        1.1883112130   -1.0048434068   -0.5800677748
C       -0.0897071563   -1.1706225305   -0.1255291063
C       -0.8507278047   -0.0201350126    0.3611956706
C       -0.0877370223    1.2447824284    0.3106871384
N        1.1617332501    1.3729291174   -0.0979222772
H        2.8061507178    0.4185433040   -0.9297725015
H        1.7429182612   -1.8478241615   -0.9846813654
H       -0.5887660945   -2.1330739411   -0.1049436905
H       -1.8838897175    0.0822736782   -0.2688370742
H       -0.6104137243    2.1440731500    0.6393450500
C       -2.1392834266   -0.2019334567    1.0388675095
H       -2.4398463882    0.8380789264    1.3067848851
13   
From optimize.out: Frame 30 / 59, Energy=    -286.7936186356
C        1.7972056047    0.2747558286   -0.5439491474
C        1.1893785376   -1.0062819708   -0.5809359893
C       -0.0972239461   -1.1733337149   -0.1552498407
C       -0.8656904496   -0.0239250769    0.3374255815
C       -0.1057370671    1.2471930311    0.2759995157
N        1.1522087701    1.3718419052   -0.1033127955
H        2.8224489047    0.4139703893   -0.8789145310
H        1.7516932875   -1.8484015773   -0.9768563097
H       -0.6056677954   -2.1309533776   -0.1486105483
H       -1.8783557031    0.0995126287   -0.2798337678
H       -0.6405242140    2.1478959959    0.5809207830
C       -2.1036215393   -0.2072358511    1.1140312157
H       -2.4161143899    0.8349617898    1.3592858340
13   
From optimize.out: Frame 29 / 59, Energy=    -286.7924684400
C        1.7970031636    0.2707051765   -0.5253735941
C        1.1846095491   -1.0086858123   -0.5807295785
C       -0.1114158164   -1.1734523086   -0.1861675385
C       -0.8836927942   -0.0191182789    0.3086270118
C       -0.1226464462    1.2574714322    0.2376748735
N        1.1415320331    1.3753266416   -0.1122189747
H        2.8335419939    0.4045532773   -0.8253496384
H        1.7574495098   -1.8528740775   -0.9567593113
H       -0.6147402985   -2.1340173777   -0.1907084834
H       -1.8707685565    0.1136453946   -0.3111180414
H       -0.6640044057    2.1608379026    0.5232527276
C       -2.0593904265   -0.2150109963    1.1844412464
H       -2.3874775055    0.8206190263    1.4344293009
13   
From optimize.out: Frame 28 / 59, Energy=    -286.7912666643
C        1.7959218013    0.2663992310   -0.5025680081
C        1.1810687169   -1.0112135268   -0.5785351875
C       -0.1250652113   -1.1725409891   -0.2179582364
C       -0.9012930908   -0.0145641808    0.2799327511
C       -0.1406669048    1.2677382079    0.1975036871
N        1.1288369924    1.3789347568   -0.1227704481
H        2.8419443199    0.3966202989   -0.7684976678
H        1.7637068446   -1.8573038412   -0.9346404061
H       -0.6303063641   -2.1323351058   -0.2376123963
H       -1.8726985473    0.1181400760   -0.3396550097
H       -0.6861812604    2.1759918703    0.4591517372
C       -2.0056459234   -0.2206212431    1.2494107153
H       -2.3496213730    0.8047544459    1.5162384693
13   
From optimize.out: Frame 27 / 59, Energy=    -286.7900535731
C        1.7921089901    0.2623813293   -0.4782795495
C        1.1755785100   -1.0132574699   -0.5745243767
C       -0.1405105433   -1.1705316418   -0.2499106763
C       -0.9198060040   -0.0087666498    0.2508778363
C       -0.1594330237    1.2787039682    0.1558321880
N        1.1149142230    1.3835594955   -0.1333204173
H        2.8472964578    0.3882389818   -0.7063624987
H        1.7670441966   -1.8612373220   -0.9109467600
H       -0.6424721499   -2.1319188914   -0.2888485448
H       -1.8804497984    0.1192779713   -0.3660044837
H       -0.7079469558    2.1928756492    0.3893617436
C       -1.9463360523   -0.2258737163    1.3068573708
H       -2.2999878500    0.7865482959    1.6052681682
13   
From optimize.out: Frame 26 / 59, Energy=    -286.7889181053
C        1.7876122409    0.2591760114   -0.4513945619
C        1.1706448372   -1.0143635961   -0.5696512083
C       -0.1541749131   -1.1682971527   -0.2807301174
C       -0.9373107656   -0.0059429047    0.2260806597
C       -0.1789470312    1.2864642900    0.1160070533
N        1.0998898998    1.3868358656   -0.1424527476
H        2.8504259674    0.3821698037   -0.6416369105
H        1.7691538901   -1.8628394774   -0.8919799592
H       -0.6559086752   -2.1288217970   -0.3442128648
H       -1.8961388838    0.1166899003   -0.3795834993
H       -0.7327857001    2.2053109687    0.3159857871
C       -1.8819934315   -0.2290578845    1.3592643169
H       -2.2404674348    0.7726759728    1.6843040520
13   
From optimize.out: Frame 25 / 59, Energy=    -286.7878516542
C        1.7810966916    0.2565498430   -0.4223374489
C        1.1648401328   -1.0147080387   -0.5636639831
C       -0.1679602569   -1.1653595136   -0.3110500998
C       -0.9545206703   -0.0038797319    0.2032969258
C       -0.1994459996    1.2932674990    0.0766779678
N        1.0834958912    1.3901030407   -0.1512822090
H        2.8502833876    0.3771436101   -0.5734824523
H        1.7695811971   -1.8631749127   -0.8740468393
H       -0.6693206950   -2.1240803274   -0.4024787733
H       -1.9168456457    0.1109678515   -0.3859459022
H       -0.7591422277    2.2158340370    0.2393253833
C       -1.8153096879   -0.2325099241    1.4036080877
H       -2.1667521171    0.7598465671    1.7613793435
13   
From optimize.out: Frame 24 / 59, Energy=    -286.7868211766
C        1.7743980293    0.2539518884   -0.3950393549
C        1.1590397720   -1.0146084414   -0.5592782309
C       -0.1802376810   -1.1616213805   -0.3387924521
C       -0.9681200706   -0.0022418591    0.1874271597
C       -0.2165976673    1.2987966888    0.0426467172
N        1.0696319641    1.3923745035   -0.1575604052
H        2.8482832411    0.3722551768   -0.5090392314
H        1.7685393165   -1.8624070886   -0.8619741292
H       -0.6824089466   -2.1168532498   -0.4598819841
H       -1.9387355373    0.1051229570   -0.3792547446
H       -0.7811468889    2.2241357057    0.1674776058
C       -1.7422495769   -0.2350974021    1.4467189776
H       -2.1103959545    0.7461925014    1.8165500722
13   
From optimize.out: Frame 23 / 59, Energy=    -286.7857853969
C        1.7642041523    0.2522501952   -0.3637637639
C        1.1521765089   -1.0140286230   -0.5530190195
C       -0.1929947080   -1.1583746436   -0.3669995465
C       -0.9835279146   -0.0026845022    0.1706375266
C       -0.2375254017    1.3027170632    0.0069625963
N        1.0511108946    1.3945659994   -0.1647468511
H        2.8415243462    0.3697632897   -0.4388066469
H        1.7672694831   -1.8604260098   -0.8481347140
H       -0.6948413817   -2.1091366914   -0.5208994572
H       -1.9640812346    0.0973140626   -0.3709648840
H       -0.8066587664    2.2297004519    0.0899869055
C       -1.6718573519   -0.2382281486    1.4801823554
H       -2.0247986262    0.7365675566    1.8795654995
13   
From optimize.out: Frame 22 / 59, Energy=    -286.7847226558
C        1.7542235453    0.2502209233   -0.3339780934
C        1.1451292458   -1.0130650309   -0.5483257425
C       -0.2048327977   -1.1539098397   -0.3928561230
C       -0.9948709238   -0.0022045927    0.1599171024
C       -0.2550039953    1.3064727308   -0.0244708416
N        1.0359649472    1.3962406762   -0.1704604321
H        2.8336345803    0.3658642028   -0.3712259588
H        1.7644295134   -1.8577373860   -0.8393628060
H       -0.7068259658   -2.0985102083   -0.5811945549
H       -1.9877959859    0.0897419205   -0.3519817240
H       -0.8275178852    2.2339644320    0.0155836551
C       -1.5980202019   -0.2410821515    1.5116286631
H       -1.9585140764    0.7240043236    1.9267268556
13   
From optimize.out: Frame 21 / 59, Energy=    -286.7836105639
C        1.7424840819    0.2486639973   -0.3034258927
C        1.1377528065   -1.0119172134   -0.5436838465
C       -0.2160273536   -1.1500227460   -0.4174933552
C       -1.0058675876   -0.0034927173    0.1515110346
C       -0.2733567534    1.3085004753   -0.0545022663
N        1.0196679506    1.3971797126   -0.1739657723
H        2.8226102891    0.3633589575   -0.3032326949
H        1.7617229296   -1.8539435301   -0.8323171181
H       -0.7171501530   -2.0869632153   -0.6427122487
H       -2.0118274377    0.0802418891   -0.3284833175
H       -0.8482681103    2.2349941535   -0.0605258231
C       -1.5267935707   -0.2424507554    1.5385072717
H       -1.8849470913    0.7158509922    1.9703240290
13   
From optimize.out: Frame 20 / 59, Energy=    -286.7824116067
C        1.7290618129    0.2467181359   -0.2710328314
C        1.1301814911   -1.0115237312   -0.5388053798
C       -0.2261069174   -1.1466216964   -0.4392229357
C       -1.0122248800   -0.0038815971    0.1472386030
C       -0.2894532952    1.3107114240   -0.0817195609
N        1.0034522328    1.3972085402   -0.1795026435
H        2.8086837805    0.3603377388   -0.2355570842
H        1.7582978898   -1.8491034228   -0.8309825716
H       -0.7279065262   -2.0730651519   -0.7036923132
H       -2.0312324449    0.0700824183   -0.2992003563
H       -0.8640294263    2.2355915627   -0.1346128036
C       -1.4554881878   -0.2428903511    1.5620128585
H       -1.8232355292    0.7064361304    2.0050770187
13   
From optimize.out: Frame 19 / 59, Energy=    -286.7811370778
C        1.7178547275    0.2457108376   -0.2447241051
C        1.1234359529   -1.0101329036   -0.5366225761
C       -0.2351261221   -1.1438299212   -0.4586711137
C       -1.0219839518   -0.0076897828    0.1456892238
C       -0.3085361114    1.3091933093   -0.1074247245
N        0.9897434397    1.3965684834   -0.1753440665
H        2.7956984314    0.3571011172   -0.1692337497
H        1.7572952661   -1.8419196080   -0.8330867735
H       -0.7348892212   -2.0591780752   -0.7619422344
H       -2.0531309703    0.0570532687   -0.2678182922
H       -0.8845442950    2.2284322365   -0.2124539452
C       -1.3900500706   -0.2383280933    1.5845996751
H       -1.7557670751    0.7070191315    2.0370326819
13   
From optimize.out: Frame 18 / 59, Energy=    -286.7797143714
C        1.7022255343    0.2440057370   -0.2113985628
C        1.1156375870   -1.0107804908   -0.5301649991
C       -0.2431805699   -1.1417780364   -0.4743149629
C       -1.0242532359   -0.0083277177    0.1473038397
C       -0.3226990377    1.3097983433   -0.1307116002
N        0.9738588084    1.3947850107   -0.1790290064
H        2.7773838669    0.3542659154   -0.1032646908
H        1.7541390359   -1.8337936344   -0.8403728379
H       -0.7448011941   -2.0409106853   -0.8209140525
H       -2.0656076243    0.0452217012   -0.2354505632
H       -0.8963325460    2.2223181027   -0.2895098958
C       -1.3259762202   -0.2358433915    1.6026631136
H       -1.7003944044    0.7010391458    2.0651642185
13   