13   
From optimize.out: Frame 1 / 2, Energy=    -286.9514917220
C        1.8971984251    0.2740493145   -0.5361073664
C        1.2459137076   -0.9632674531   -0.6346891543
C       -0.0765072699   -1.0594478029   -0.2370396338
C       -0.7452312499    0.0937983533    0.2616426217
C        0.0336572926    1.2908312153    0.3095847326
N        1.3003488156    1.3867016300   -0.0709268702
H        2.9362621726    0.3797410279   -0.8412012353
H        1.7780705961   -1.8285668725   -1.0197773807
H       -0.6116480665   -2.0038752071   -0.2999359895
H       -2.6774642220   -0.8299070082    0.6468948197
H       -0.4300831383    2.2048005250    0.6816333215
C       -2.0859487614    0.0782627683    0.6823172581
H       -2.5645683021    0.9768795099    1.0576048761
13   
From optimize.out: Frame 58 / 59, Energy=    -286.9514917305
C        1.8971984251    0.2740493145   -0.5361073664
C        1.2459137076   -0.9632674531   -0.6346891543
C       -0.0765072699   -1.0594478029   -0.2370396338
C       -0.7452312499    0.0937983533    0.2616426217
C        0.0336572926    1.2908312153    0.3095847326
N        1.3003488156    1.3867016300   -0.0709268702
H        2.9362621726    0.3797410279   -0.8412012353
H        1.7780705961   -1.8285668725   -1.0197773807
H       -0.6116480665   -2.0038752071   -0.2999359895
H       -2.6774642220   -0.8299070082    0.6468948197
H       -0.4300831383    2.2048005250    0.6816333215
C       -2.0859487614    0.0782627683    0.6823172581
H       -2.5645683021    0.9768795099    1.0576048761
13   
From optimize.out: Frame 57 / 59, Energy=    -286.9514887854
C        1.8944233516    0.2767196925   -0.5377149713
C        1.2497524715   -0.9643428459   -0.6350289792
C       -0.0718109768   -1.0692485741   -0.2299480707
C       -0.7386566334    0.0785555293    0.2819076499
C        0.0295825535    1.2856815802    0.3035910646
N        1.2934175658    1.3894382625   -0.0775687472
H        2.9343213049    0.3862743269   -0.8382974149
H        1.7852429852   -1.8266325451   -1.0217457036
H       -0.6038047436   -2.0154816988   -0.2987912548
H       -2.7059924727   -0.8045175524    0.5948977192
H       -0.4481646520    2.1972995318    0.6628303484
C       -2.0799179937    0.0801479814    0.7067076793
H       -2.5383927602    0.9861063118    1.0891606804
13   
From optimize.out: Frame 55 / 59, Energy=    -286.9514756515
C        1.8914627991    0.2798647510   -0.5507737071
C        1.2512673471   -0.9642954934   -0.6268976051
C       -0.0711875368   -1.0705608831   -0.2227719390
C       -0.7406008017    0.0789774828    0.2836534911
C        0.0264210180    1.2852830679    0.2904369446
N        1.2904964966    1.3933107758   -0.0950655374
H        2.9296301214    0.3901014123   -0.8570016881
H        1.7962711721   -1.8317006681   -0.9886005173
H       -0.5948291428   -2.0218220904   -0.2760560826
H       -2.7316446287   -0.7673098901    0.5016996991
H       -0.4436335239    2.1935591357    0.6659011116
C       -2.0851361741    0.0780274509    0.7039620242
H       -2.5185171463    0.9565649487    1.1715138061
13   
From optimize.out: Frame 54 / 59, Energy=    -286.9514396233
C        1.8867749649    0.2838723062   -0.5511277703
C        1.2636639599   -0.9722648582   -0.6299034996
C       -0.0527287784   -1.0916000214   -0.2138613846
C       -0.7289135099    0.0546438708    0.2858812060
C        0.0144566339    1.2734100359    0.3087766753
N        1.2690162601    1.3924877096   -0.0993655404
H        2.9195158191    0.4090888786   -0.8714811291
H        1.8134317867   -1.8309103570   -1.0042263205
H       -0.5813505246   -2.0404133853   -0.2584085223
H       -2.7777361604   -0.7200622855    0.5021828977
H       -0.4559766967    2.1796368105    0.6892180640
C       -2.0780907239    0.0882624961    0.6867746261
H       -2.4920630309    0.9738487996    1.1555406977
13   
From optimize.out: Frame 53 / 59, Energy=    -286.9513040830
C        1.8893703990    0.2861269138   -0.5670463330
C        1.2595225062   -0.9688537253   -0.6205655894
C       -0.0479991559   -1.0845847102   -0.1768349731
C       -0.7183582318    0.0669147952    0.3211695037
C        0.0298905113    1.2750974923    0.3210930922
N        1.2843324805    1.3929979860   -0.1019163466
H        2.9165300920    0.4080218166   -0.9062486563
H        1.7926167163   -1.8293718679   -1.0162999303
H       -0.5721883675   -2.0350673540   -0.2078905116
H       -2.7968484495   -0.7294767386    0.3872539010
H       -0.4329642351    2.1945412003    0.6785645472
C       -2.0900065592    0.0703464549    0.7106423468
H       -2.5138977065    0.9533077370    1.1780789494
13   
From optimize.out: Frame 51 / 59, Energy=    -286.9509126454
C        1.8907269735    0.2814872922   -0.5757280393
C        1.2607720795   -0.9658693814   -0.6108756883
C       -0.0396430602   -1.0743189086   -0.1526853922
C       -0.7073311552    0.0685099226    0.3457265284
C        0.0390437127    1.2810814583    0.3350442722
N        1.2930990196    1.3893425760   -0.1106312207
H        2.9101554697    0.3992894797   -0.9376719889
H        1.7794971941   -1.8305073335   -1.0162898123
H       -0.5662988067   -2.0237936806   -0.1795935555
H       -2.7938291816   -0.6923669905    0.2978354549
H       -0.4464818448    2.1968138982    0.6719523087
C       -2.0912931687    0.0457924936    0.7338905040
H       -2.5284172319    0.9245391741    1.1990266289
13   
From optimize.out: Frame 50 / 59, Energy=    -286.9506613329
C        1.8848032480    0.2911397468   -0.5802209465
C        1.2838924178   -0.9737230505   -0.6187925860
C       -0.0123885561   -1.1093681184   -0.1564815599
C       -0.7064624555    0.0204687351    0.3459205490
C        0.0147572464    1.2392639019    0.3398866059
N        1.2625071818    1.3797522310   -0.1067968465
H        2.8996637284    0.4391491290   -0.9453701253
H        1.8184538948   -1.8263125840   -1.0287115308
H       -0.5303972664   -2.0627758286   -0.1795096139
H       -2.8463643711   -0.5858470920    0.3140114233
H       -0.4562931899    2.1577627948    0.6886071424
C       -2.1040979002    0.0634120931    0.7373632478
H       -2.5080739779    0.9670780417    1.1900942405
13   
From optimize.out: Frame 49 / 59, Energy=    -286.9504282442
C        1.8759075234    0.2905594491   -0.5928323388
C        1.2664047386   -0.9716725067   -0.6174875114
C       -0.0246710933   -1.0981315726   -0.1329345459
C       -0.7066688719    0.0408131923    0.3687030794
C        0.0293973430    1.2496312652    0.3590102383
N        1.2702672895    1.3842722632   -0.1073212824
H        2.8871938154    0.4310938730   -0.9712042322
H        1.7920334107   -1.8282414681   -1.0299222467
H       -0.5357475744   -2.0562879846   -0.1406418300
H       -2.8007537598   -0.6576983756    0.2533088423
H       -0.4310277798    2.1700241215    0.7169100053
C       -2.0952961210    0.0686446594    0.7419939045
H       -2.5270389205    0.9769930839    1.1524179176
13   
From optimize.out: Frame 46 / 59, Energy=    -286.9487713024
C        1.8697933028    0.2877030478   -0.6027568279
C        1.2497011130   -0.9693037278   -0.6124618899
C       -0.0378629038   -1.0816782008   -0.1090506220
C       -0.7037619978    0.0656712101    0.3872734052
C        0.0466859538    1.2663450540    0.3688789387
N        1.2821085449    1.3904842391   -0.1156825816
H        2.8781239605    0.4151701259   -0.9934809129
H        1.7640557022   -1.8332821575   -1.0232615901
H       -0.5464196739   -2.0423369035   -0.1015823547
H       -2.7423353544   -0.6643798534    0.1712063933
H       -0.4108895834    2.1878845046    0.7281000690
C       -2.0843259243    0.0473359135    0.7491107385
H       -2.5648731396    0.9303867480    1.1537072344
13   
From optimize.out: Frame 45 / 59, Energy=    -286.9473994548
C        1.8647653120    0.2842110404   -0.6097210551
C        1.2394844115   -0.9684717563   -0.6067797142
C       -0.0455682785   -1.0693820624   -0.0886537875
C       -0.6995252116    0.0817991053    0.3999311190
C        0.0585754490    1.2786784306    0.3711139232
N        1.2896055006    1.3944783782   -0.1277183901
H        2.8702720911    0.4009470692   -1.0106138180
H        1.7449527587   -1.8392732911   -1.0142266305
H       -0.5544186904   -2.0310642552   -0.0678150172
H       -2.6807407314   -0.6014237769    0.0825933476
H       -0.4004310910    2.2012719434    0.7265543165
C       -2.0754090899    0.0129485790    0.7619446420
H       -2.6115624302    0.8552805958    1.1833910643
13   
From optimize.out: Frame 44 / 59, Energy=    -286.9464088823
C        1.8470230900    0.2808700975   -0.6164636192
C        1.2351351548   -0.9717006477   -0.6095020674
C       -0.0445595756   -1.0813904333   -0.0733554566
C       -0.7086226645    0.0634691239    0.4113992044
C        0.0449028661    1.2641300137    0.3813171212
N        1.2712434697    1.3837981598   -0.1240345792
H        2.8489510752    0.4045009136   -1.0219505125
H        1.7430031102   -1.8381672827   -1.0233000145
H       -0.5445545805   -2.0500657595   -0.0444221683
H       -2.5704984999   -0.5452569267    0.0002366417
H       -0.4068118189    2.1900955654    0.7381033959
C       -2.0725141243    0.0269797109    0.8091884318
H       -2.6426975024    0.8727374651    1.1727836229
13   
From optimize.out: Frame 42 / 59, Energy=    -286.9428792819
C        1.8336050730    0.2774819434   -0.6179273841
C        1.2224893987   -0.9730139345   -0.6044439529
C       -0.0551259662   -1.0892525878   -0.0637630652
C       -0.7233186787    0.0567821256    0.4159835100
C        0.0314528960    1.2613235923    0.3800562827
N        1.2566568389    1.3794531092   -0.1263620731
H        2.8356423401    0.3998832158   -1.0214193891
H        1.7325622825   -1.8383882414   -1.0184641514
H       -0.5333528012   -2.0704715392   -0.0373651397
H       -2.4612609812   -0.4514115183   -0.0785155566
H       -0.4256585303    2.1866681982    0.7328456932
C       -2.0624517403    0.0115396235    0.8443561535
H       -2.6512401315    0.8494060131    1.1950190728
13   
From optimize.out: Frame 41 / 59, Energy=    -286.9406135735
C        1.8273720762    0.2731040336   -0.6162734277
C        1.2135580356   -0.9736113897   -0.5975709154
C       -0.0638916499   -1.0946434097   -0.0604559027
C       -0.7345723075    0.0588215322    0.4153272344
C        0.0212482114    1.2627591340    0.3732641211
N        1.2471811553    1.3751287765   -0.1289612806
H        2.8302638875    0.3932345215   -1.0161644572
H        1.7274534106   -1.8371022323   -1.0113843952
H       -0.5372788469   -2.0787898285   -0.0373361938
H       -2.3682195002   -0.3442902987   -0.1266589163
H       -0.4404509450    2.1893369877    0.7189204012
C       -2.0612220671   -0.0252171526    0.8618927964
H       -2.6614414600    0.8012693259    1.2254009356
13   
From optimize.out: Frame 40 / 59, Energy=    -286.9348164279
C        1.8255152795    0.2694095871   -0.6142396684
C        1.2022053875   -0.9712271170   -0.5891046473
C       -0.0763874990   -1.0940001550   -0.0580008781
C       -0.7444256969    0.0716449621    0.4136322366
C        0.0183387602    1.2678516922    0.3639567525
N        1.2460663318    1.3746935787   -0.1327808340
H        2.8303066706    0.3825365772   -1.0103182137
H        1.7176908904   -1.8347148352   -1.0013242539
H       -0.5448564879   -2.0794852103   -0.0375044860
H       -2.2873072642   -0.2320212448   -0.1577078336
H       -0.4498070005    2.1940901737    0.7027164035
C       -2.0635811940   -0.0799934105    0.8648878101
H       -2.6737581777    0.7312154019    1.2557876126
13   
From optimize.out: Frame 39 / 59, Energy=    -286.9249236981
C        1.8203761857    0.2666412375   -0.6075808199
C        1.1916817845   -0.9735824455   -0.5812787095
C       -0.0849850683   -1.0989097935   -0.0636100236
C       -0.7703124030    0.0647439333    0.4130160685
C        0.0029219459    1.2715474167    0.3602163070
N        1.2353712914    1.3749374841   -0.1283853040
H        2.8267347709    0.3771482872   -1.0023365685
H        1.7091677329   -1.8344605354   -0.9964099573
H       -0.5404256463   -2.0862033272   -0.0499266214
H       -2.1952996544   -0.1418962113   -0.1714048646
H       -0.4867630524    2.1873099668    0.6958237254
C       -2.0809288383   -0.1346562590    0.8709075077
H       -2.6275390486    0.7273802463    1.2609692601
13   
From optimize.out: Frame 37 / 59, Energy=    -286.8930338260
C        1.8166194377    0.2794234712   -0.5973671074
C        1.1934953397   -0.9769656608   -0.5795414091
C       -0.0830925147   -1.1207420654   -0.0720693305
C       -0.7947470409    0.0366050575    0.4145426178
C       -0.0127872121    1.2611444029    0.3540459545
N        1.2224304692    1.3809489641   -0.1181514937
H        2.8230062714    0.4011735655   -0.9915798169
H        1.7142203518   -1.8334900187   -0.9993875367
H       -0.6114018277   -2.0684495631   -0.0326661107
H       -2.1200131560   -0.1093412431   -0.1934386752
H       -0.5155153459    2.1704479480    0.6854918248
C       -2.0931914796   -0.1770625899    0.8831810248
H       -2.5390232929    0.7563077319    1.2469400583
13   
From optimize.out: Frame 36 / 59, Energy=    -286.8704750230
C        1.8054945291    0.2846321527   -0.5872750357
C        1.1978076858   -0.9871229049   -0.5804089106
C       -0.0778238304   -1.1458502668   -0.0872530671
C       -0.8223935521    0.0011052999    0.4059812621
C       -0.0430677146    1.2471061603    0.3443776410
N        1.1932146464    1.3801681583   -0.1114596103
H        2.8134673539    0.4210986215   -0.9736886952
H        1.7317072006   -1.8366992454   -0.9976576332
H       -0.6259006079   -2.0810050975   -0.0421877869
H       -2.0615590642   -0.0971050274   -0.2387381094
H       -0.5572881494    2.1504017046    0.6733902290
C       -2.1100773009   -0.1670047362    0.9354406976
H       -2.4435811963    0.8302751807    1.2594790187
13   
From optimize.out: Frame 35 / 59, Energy=    -286.8490951593
C        1.7920431737    0.2868669236   -0.5806918028
C        1.2033650808   -0.9966604774   -0.5840880253
C       -0.0684650535   -1.1666314846   -0.0987261503
C       -0.8460372282   -0.0352753069    0.4022297821
C       -0.0749410887    1.2307069853    0.3443862070
N        1.1609567411    1.3728948511   -0.1024179261
H        2.7996360202    0.4401651628   -0.9625023172
H        1.7498718296   -1.8379324237   -1.0016032768
H       -0.6233910000   -2.0970145970   -0.0515450711
H       -2.0309430663   -0.1231858386   -0.2689169278
H       -0.5983718018    2.1278160888    0.6749757358
C       -2.1191662629   -0.1221322718    0.9824901026
H       -2.3445573438    0.9203823883    1.2464096697
13   
From optimize.out: Frame 33 / 59, Energy=    -286.8045011658
C        1.7854005179    0.2861396598   -0.5744345658
C        1.2030641568   -1.0028805784   -0.5850662235
C       -0.0681581335   -1.1774439216   -0.1095669548
C       -0.8583686612   -0.0498222951    0.3922946999
C       -0.0928465162    1.2255855187    0.3377170093
N        1.1455535782    1.3693939586   -0.0971671572
H        2.7942557070    0.4450786180   -0.9506261024
H        1.7572550411   -1.8404859775   -1.0001551346
H       -0.6153240285   -2.1118761824   -0.0666321570
H       -1.9870574235   -0.0950772084   -0.2834553717
H       -0.6205697307    2.1201431237    0.6686845324
C       -2.1275333156   -0.1162945471    1.0163447463
H       -2.3156711915    0.9475398317    1.2520626790
13   
From optimize.out: Frame 31 / 59, Energy=    -286.7949180944
C        1.7890286021    0.2809442463   -0.5686690851
C        1.1939261165   -1.0040963632   -0.5819701617
C       -0.0815056959   -1.1732187210   -0.1194539838
C       -0.8536358800   -0.0314338577    0.3730318202
C       -0.0896816725    1.2374761716    0.3209745847
N        1.1555753403    1.3715836520   -0.0976348819
H        2.8016235306    0.4286425242   -0.9377092875
H        1.7483747746   -1.8450312820   -0.9905706118
H       -0.5988739238   -2.1250061702   -0.0903624946
H       -1.9231548787    0.0147747347   -0.2744007320
H       -0.6142790543    2.1349654905    0.6505115240
C       -2.1348113876   -0.1693396759    1.0302954479
H       -2.3925858713    0.8797392507    1.2859578615
13   
From optimize.out: Frame 30 / 59, Energy=    -286.7936186356
C        1.7939653722    0.2763880500   -0.5554862600
C        1.1887970737   -1.0054982608   -0.5804629979
C       -0.0931289017   -1.1718566986   -0.1390583906
C       -0.8575390050   -0.0218603016    0.3503752014
C       -0.0959308886    1.2458797676    0.2948968588
N        1.1573975767    1.3724342035   -0.1003761148
H        2.8135698751    0.4164616508   -0.9066212587
H        1.7469127730   -1.8480870091   -0.9811192932
H       -0.5964599796   -2.1321086316   -0.1248214406
H       -1.8813705586    0.0901210839   -0.2738429193
H       -0.6241204305    2.1458133617    0.6127495256
C       -2.1230496484   -0.2043471790    1.0730830552
H       -2.4290432584    0.8366599633    1.3306840341
13   
From optimize.out: Frame 28 / 59, Energy=    -286.7912666643
C        1.7970882582    0.2724078374   -0.5331816870
C        1.1866141572   -1.0076753758   -0.5808163417
C       -0.1054503714   -1.1734024586   -0.1731715189
C       -0.8761256452   -0.0211387799    0.3207322720
C       -0.1155387170    1.2531509843    0.2537843460
N        1.1460199185    1.3738618591   -0.1084753298
H        2.8288790980    0.4085116889   -0.8478652345
H        1.7550299254   -1.8509940960   -0.9652069321
H       -0.6109267407   -2.1327294485   -0.1730129359
H       -1.8739577560    0.1077047937   -0.2979679344
H       -0.6541346853    2.1553978704    0.5474930571
C       -2.0779826391   -0.2117427730    1.1548449243
H       -2.3995148026    0.8266478981    1.4028433149
13   
From optimize.out: Frame 27 / 59, Energy=    -286.7900535731
C        1.7963344315    0.2680423096   -0.5112702482
C        1.1824198407   -1.0102489921   -0.5793725314
C       -0.1198568246   -1.1728887338   -0.2058274240
C       -0.8945771044   -0.0163019504    0.2908820135
C       -0.1337905914    1.2638205736    0.2128323573
N        1.1336812131    1.3775579588   -0.1187441778
H        2.8387381292    0.3996473942   -0.7901914535
H        1.7613191476   -1.8556135155   -0.9430806199
H       -0.6243666071   -2.1329770333   -0.2197146274
H       -1.8719620943    0.1164249788   -0.3287657676
H       -0.6777189340    2.1702093632    0.4836116307
C       -2.0261539501   -0.2184804643    1.2246194246
H       -2.3640666563    0.8108081113    1.4850214236
13   
From optimize.out: Frame 26 / 59, Energy=    -286.7889181053
C        1.7936475902    0.2640026905   -0.4880807756
C        1.1777939968   -1.0124326687   -0.5761428764
C       -0.1342778221   -1.1713424823   -0.2370167708
C       -0.9123354086   -0.0111061524    0.2626024910
C       -0.1518602511    1.2742789078    0.1726480671
N        1.1205325380    1.3816932548   -0.1290631429
H        2.8451366866    0.3916211307   -0.7314361706
H        1.7656974606   -1.8596500276   -0.9205079589
H       -0.6375628381   -2.1320868482   -0.2681730016
H       -1.8773219027    0.1188187915   -0.3553715672
H       -0.6991637512    2.1860624653    0.4175243997
C       -1.9702696195   -0.2237541632    1.2836756750
H       -2.3200166789    0.7938951019    1.5693416310
13   
From optimize.out: Frame 24 / 59, Energy=    -286.7868211766
C        1.7896095960    0.2605997417   -0.4633362700
C        1.1728362639   -1.0138722797   -0.5718157603
C       -0.1481055067   -1.1692896626   -0.2670408134
C       -0.9295355434   -0.0071971489    0.2370950090
C       -0.1702793471    1.2830173292    0.1336964843
N        1.1065633670    1.3853805755   -0.1383963715
H        2.8490359095    0.3848655964   -0.6703865641
H        1.7682168116   -1.8621278359   -0.9004045864
H       -0.6499404723   -2.1301974568   -0.3196212765
H       -1.8891701442    0.1178394633   -0.3735520053
H       -0.7217528874    2.1997874788    0.3485777402
C       -1.9105729796   -0.2276435485    1.3359863277
H       -2.2669050674    0.7788377474    1.6491980863
13   
From optimize.out: Frame 23 / 59, Energy=    -286.7857853969
C        1.7843458358    0.2578594486   -0.4368275166
C        1.1677347962   -1.0145362736   -0.5666496651
C       -0.1610858450   -1.1668244420   -0.2959302702
C       -0.9459385140   -0.0049085855    0.2146586136
C       -0.1892236682    1.2898749060    0.0962904156
N        1.0916711802    1.3884737808   -0.1468791738
H        2.8503544886    0.3796500493   -0.6074694046
H        1.7693681096   -1.8630076394   -0.8829896452
H       -0.6626324506   -2.1264447817   -0.3734229976
H       -1.9065196927    0.1138212965   -0.3827731283
H       -0.7459988755    2.2105864416    0.2775540415
C       -1.8485632310   -0.2307884769    1.3814949396
H       -2.2035121333    0.7662442762    1.7229437910
13   
From optimize.out: Frame 22 / 59, Energy=    -286.7847226558
C        1.7778799000    0.2553022688   -0.4092285214
C        1.1620547182   -1.0146602107   -0.5615578834
C       -0.1738560481   -1.1635644097   -0.3243723664
C       -0.9610512930   -0.0030932024    0.1956760416
C       -0.2076824709    1.2959226935    0.0603356841
N        1.0768382390    1.3911938290   -0.1542970869
H        2.8493228892    0.3747961159   -0.5425359140
H        1.7690808714   -1.8628061928   -0.8682493546
H       -0.6756058570   -2.1206097834   -0.4300446000
H       -1.9273574786    0.1081610512   -0.3827327145
H       -0.7697091746    2.2198206147    0.2048230731
C       -1.7802251981   -0.2337524673    1.4243105415
H       -2.1396890976    0.7532896933    1.7878731011
13   
From optimize.out: Frame 20 / 59, Energy=    -286.7824116067
C        1.7696634162    0.2531615258   -0.3805132015
C        1.1558520844   -1.0143391409   -0.5563710991
C       -0.1861627659   -1.1601134123   -0.3518934222
C       -0.9752763449   -0.0024474476    0.1796291044
C       -0.2263176908    1.3006175324    0.0260729931
N        1.0610297318    1.3933923582   -0.1608981972
H        2.8451440280    0.3710978035   -0.4764192467
H        1.7679495341   -1.8614869636   -0.8555463221
H       -0.6881832727   -2.1132692436   -0.4882219498
H       -1.9505075127    0.1014960648   -0.3754044645
H       -0.7929960478    2.2267202886    0.1314865416
C       -1.7095554461   -0.2365514979    1.4622612630
H       -2.0706397137    0.7417221327    1.8458180008
13   
From optimize.out: Frame 19 / 59, Energy=    -286.7811370778
C        1.7598578391    0.2513664963   -0.3507928239
C        1.1491075961   -1.0136090019   -0.5509752107
C       -0.1981499101   -1.1564303294   -0.3782594610
C       -0.9884675211   -0.0024755132    0.1659690408
C       -0.2451369070    1.3043525657   -0.0067259066
N        1.0445152003    1.3952952807   -0.1672349776
H        2.8380885438    0.3680653315   -0.4093768898
H        1.7660327449   -1.8592551791   -0.8443147600
H       -0.7000603786   -2.1045091147   -0.5471565157
H       -1.9744084359    0.0940165776   -0.3626981764
H       -0.8157424087    2.2315573122    0.0575860873
C       -1.6397030567   -0.2394709980    1.4938764628
H       -1.9959333060    0.7310965721    1.9001031308
13   
From optimize.out: Frame 18 / 59, Energy=    -286.7797143714
C        1.7489161770    0.2495170427   -0.3201655557
C        1.1417943847   -1.0125461068   -0.5462271583
C       -0.2098938153   -1.1521524989   -0.4039945251
C       -0.9998424751   -0.0027869491    0.1561167500
C       -0.2633012098    1.3073894667   -0.0380479383
N        1.0285971349    1.3966652111   -0.1720451835
H        2.8286505388    0.3647315906   -0.3404864541
H        1.7632058768   -1.8560221977   -0.8361774764
H       -0.7114934929   -2.0932898552   -0.6090064782
H       -1.9986605169    0.0854469912   -0.3413581808
H       -0.8368989857    2.2344299653   -0.0188251603
C       -1.5658189037   -0.2417008923    1.5237803833
H       -1.9252547128    0.7203182324    1.9464369775
13   
From optimize.out: Frame 16 / 59, Energy=    -286.7763157357
C        1.7359375960    0.2477149362   -0.2876267220
C        1.1340600248   -1.0117252991   -0.5413044564
C       -0.2209434913   -1.1483639413   -0.4280915925
C       -1.0089682500   -0.0036823868    0.1494272280
C       -0.2812075709    1.3095788283   -0.0677770438
N        1.0117590071    1.3971937728   -0.1766662881
H        2.8158178688    0.3618854089   -0.2702250545
H        1.7600524241   -1.8515828492   -0.8316662155
H       -0.7223963931   -2.0801846687   -0.6724542492
H       -2.0212919034    0.0752867781   -0.3142010459
H       -0.8559554270    2.2352855298   -0.0966605013
C       -1.4920155699   -0.2426651608    1.5499717262
H       -1.8548483152    0.7112590518    1.9872742150
13   
From optimize.out: Frame 15 / 59, Energy=    -286.7742267587
C        1.7228327501    0.2461582647   -0.2564100547
C        1.1264322218   -1.0107506888   -0.5375921454
C       -0.2311199239   -1.1450699867   -0.4500325188
C       -1.0176491155   -0.0059982427    0.1463774353
C       -0.3000598048    1.3098676336   -0.0960068686
N        0.9958326842    1.3968527872   -0.1771912453
H        2.8014663327    0.3585387769   -0.1986936003
H        1.7577406168   -1.8451105530   -0.8321521179
H       -0.7317876107   -2.0653465106   -0.7360684753
H       -2.0434039671    0.0628406255   -0.2817577440
H       -0.8754318918    2.2316123040   -0.1778780539
C       -1.4191167207   -0.2403545812    1.5745669431
H       -1.7857355710    0.7067601710    2.0228384459
13   
From optimize.out: Frame 14 / 59, Energy=    -286.7717701305
C        1.7076736363    0.2446001094   -0.2230153462
C        1.1183559802   -1.0105547516   -0.5324160134
C       -0.2403729104   -1.1424932926   -0.4688617520
C       -1.0234621976   -0.0081053432    0.1467410089
C       -0.3177620543    1.3095874376   -0.1225941452
N        0.9793959522    1.3954067025   -0.1777444917
H        2.7837680489    0.3552542242   -0.1262605137
H        1.7552392504   -1.8366262267   -0.8378330253
H       -0.7413460293   -2.0472784230   -0.8003573627
H       -2.0612584502    0.0493460079   -0.2467334673
H       -0.8922233388    2.2244493979   -0.2626493491
C       -1.3483114019   -0.2367095212    1.5963664703
H       -1.7196964855    0.7031236790    2.0553579875
13   
From optimize.out: Frame 12 / 59, Energy=    -286.7652594461
C        1.6919015146    0.2434235913   -0.1891326090
C        1.1102840527   -1.0109651596   -0.5261099895
C       -0.2486797572   -1.1407795990   -0.4840121947
C       -1.0276198746   -0.0106726779    0.1508949901
C       -0.3349752330    1.3077949693   -0.1477491641
N        0.9633984519    1.3930589505   -0.1765917329
H        2.7640132066    0.3518914783   -0.0531403511
H        1.7532615479   -1.8252683249   -0.8496179244
H       -0.7506467940   -2.0258857119   -0.8642314732
H       -2.0757925745    0.0353096299   -0.2100087012
H       -0.9072504423    2.2113388769   -0.3523956054
C       -1.2811683343   -0.2311517846    1.6166246940
H       -1.6567257637    0.7019057618    2.0854700613
13   
From optimize.out: Frame 11 / 59, Energy=    -286.7608869882
C        1.6756237586    0.2426970763   -0.1545990386
C        1.1023290139   -1.0123844529   -0.5176029266
C       -0.2558666959   -1.1400655016   -0.4942978758
C       -1.0299436482   -0.0136100189    0.1592432919
C       -0.3513420613    1.3042549322   -0.1711949902
N        0.9480987714    1.3893389367   -0.1739006254
H        2.7425845524    0.3488387222    0.0195385983
H        1.7516887623   -1.8100551021   -0.8685209659
H       -0.7592107934   -2.0004764402   -0.9269156717
H       -2.0863092360    0.0212135337   -0.1736268535
H       -0.9199448579    2.1904972640   -0.4480233759
C       -1.2203566589   -0.2239485991    1.6360090897
H       -1.5973509069    0.7036996497    2.1138913437
13   
From optimize.out: Frame 10 / 59, Energy=    -286.7555250890
C        1.6604872745    0.2428084687   -0.1208747019
C        1.0953174991   -1.0150599711   -0.5062436736
C       -0.2614373620   -1.1403304244   -0.4978523782
C       -1.0308585951   -0.0175731966    0.1732983321
C       -0.3667156733    1.2976422536   -0.1923029970
N        0.9342851546    1.3837123139   -0.1687776092
H        2.7211153688    0.3467395729    0.0900831122
H        1.7503272566   -1.7892659234   -0.8965717489
H       -0.7658292349   -1.9698708937   -0.9868154550
H       -2.0928018067    0.0074915581   -0.1391421702
H       -0.9293785716    2.1573735274   -0.5508498701
C       -1.1701630398   -0.2146290842    1.6561722673
H       -1.5443482702    0.7109617987    2.1398768925
13   
From optimize.out: Frame 8 / 59, Energy=    -286.7408790062
C        1.6485446352    0.2436291260   -0.0886971904
C        1.0905645484   -1.0194119454   -0.4910904334
C       -0.2644182376   -1.1407656201   -0.4927772722
C       -1.0294941958   -0.0223511618    0.1948365032
C       -0.3794355032    1.2872121524   -0.2101774056
N        0.9233150857    1.3752753706   -0.1619058311
H        2.7024910178    0.3463821185    0.1547150717
H        1.7479820902   -1.7618601013   -0.9348266847
H       -0.7694235954   -1.9317778534   -1.0427563325
H       -2.0941036515   -0.0046796988   -0.1079493003
H       -0.9329591286    2.1078534338   -0.6608517591
C       -1.1364253483   -0.2034834306    1.6791656290
H       -1.5066377168    0.7239776100    2.1623150055
13   
From optimize.out: Frame 7 / 59, Energy=    -286.7309062951
C        1.6433137886    0.2449839092   -0.0611202811
C        1.0900781022   -1.0252932707   -0.4727510756
C       -0.2635016655   -1.1400684061   -0.4779886543
C       -1.0255494949   -0.0279903565    0.2249055224
C       -0.3877023727    1.2719333887   -0.2238021854
N        0.9174485381    1.3639409034   -0.1533473011
H        2.6914447333    0.3483622916    0.2070931819
H        1.7433811955   -1.7285700493   -0.9819617311
H       -0.7686971183   -1.8848635664   -1.0917373178
H       -2.0896228201   -0.0145370406   -0.0814767483
H       -0.9290953981    2.0389258962   -0.7732915291
C       -1.1261371612   -0.1902363611    1.7066216092
H       -1.4953603271    0.7434126617    2.1788565101
13   