13   
From optimize.out: Frame 1 / 2, Energy=    -286.9514917220
C        1.8971984251    0.2740493145   -0.5361073664
C        1.2459137076   -0.9632674531   -0.6346891543
C       -0.0765072699   -1.0594478029   -0.2370396338
C       -0.7452312499    0.0937983533    0.2616426217
C        0.0336572926    1.2908312153    0.3095847326
N        1.3003488156    1.3867016300   -0.0709268702
H        2.9362621726    0.3797410279   -0.8412012353
H        1.7780705961   -1.8285668725   -1.0197773807
H       -0.6116480665   -2.0038752071   -0.2999359895
H       -2.6774642220   -0.8299070082    0.6468948197
H       -0.4300831383    2.2048005250    0.6816333215
C       -2.0859487614    0.0782627683    0.6823172581
H       -2.5645683021    0.9768795099    1.0576048761
13   
From optimize.out: Frame 58 / 59, Energy=    -286.9514917305
C        1.8926195092    0.2786359529   -0.5456715608
C        1.2506754738   -0.9643139944   -0.6300745942
C       -0.0714311195   -1.0700481541   -0.2255757077
C       -0.7398412005    0.0788126224    0.2829713778
C        0.0276562537    1.2854387697    0.2955763583
N        1.2916377803    1.3917977557   -0.0882294098
H        2.9314630021    0.3886061413   -0.8496937879
H        1.7919623765   -1.8297205143   -1.0015505910
H       -0.5983359776   -2.0193448517   -0.2849388854
H       -2.7216221383   -0.7818472037    0.5381128667
H       -0.4454038697    2.1950205366    0.6647013413
C       -2.0830973917    0.0788559581    0.7050347723
H       -2.5262826982    0.9681069815    1.1393378203
13   
From optimize.out: Frame 57 / 59, Energy=    -286.9514887854
C        1.8870388936    0.2841015763   -0.5527465224
C        1.2632428172   -0.9719179815   -0.6289539314
C       -0.0522478250   -1.0908866373   -0.2100961841
C       -0.7278401481    0.0558916961    0.2894696584
C        0.0160260985    1.2735816327    0.3100291267
N        1.2705737603    1.3925395994   -0.0996249309
H        2.9192122018    0.4089803695   -0.8750166246
H        1.8113151108   -1.8307539087   -1.0054540809
H       -0.5804188286   -2.0398697496   -0.2532713666
H       -2.7796796812   -0.7210196373    0.4904958154
H       -0.4536365690    2.1811524318    0.6881347123
C       -2.0793024403    0.0864406213    0.6892017248
H       -2.4942833900    0.9717599874    1.1578326033
13   
From optimize.out: Frame 55 / 59, Energy=    -286.9514756515
C        1.8897947514    0.2846755859   -0.5697620723
C        1.2599133874   -0.9679201876   -0.6175344750
C       -0.0453852714   -1.0813734474   -0.1692807017
C       -0.7149088332    0.0674137697    0.3288512283
C        0.0327537398    1.2769693468    0.3254571845
N        1.2870747565    1.3918545310   -0.1046424612
H        2.9145360356    0.4052902395   -0.9160782424
H        1.7885127763   -1.8297270548   -1.0162967653
H       -0.5703460439   -2.0315408171   -0.1990388926
H       -2.7959039872   -0.7178683752    0.3592827648
H       -0.4371927016    2.1952521268    0.6764961616
C       -2.0904090257    0.0626656885    0.7179146424
H       -2.5184395839    0.9443085939    1.1846316287
13   
From optimize.out: Frame 54 / 59, Energy=    -286.9514396233
C        1.8876670402    0.2864733212   -0.5780488754
C        1.2727150185   -0.9699262377   -0.6149652057
C       -0.0255645950   -1.0924237723   -0.1546463237
C       -0.7068824235    0.0436939808    0.3458267508
C        0.0264984038    1.2594803676    0.3375456065
N        1.2772966361    1.3843886301   -0.1086505534
H        2.9047359025    0.4198792026   -0.9416485039
H        1.7996204939   -1.8283405124   -1.0227063199
H       -0.5477536669   -2.0439301253   -0.1795501950
H       -2.8209665251   -0.6373435462    0.3061912411
H       -0.4515499495    2.1766418342    0.6805554554
C       -2.0979075238    0.0548939954    0.7356843691
H       -2.5179088113    0.9465128621    1.1944125541
13   
From optimize.out: Frame 53 / 59, Energy=    -286.9513040830
C        1.8789367860    0.2907570579   -0.5885377792
C        1.2723598209   -0.9723707787   -0.6179319287
C       -0.0204885188   -1.1019579554   -0.1409530146
C       -0.7065985809    0.0338852909    0.3609449404
C        0.0244119485    1.2461008653    0.3524980645
N        1.2676247387    1.3827330559   -0.1071426961
H        2.8914401970    0.4338369307   -0.9624069394
H        1.8010303826   -1.8275846248   -1.0295099614
H       -0.5339256331   -2.0584972912   -0.1538774830
H       -2.8162855490   -0.6332308459    0.2739799025
H       -0.4396314142    2.1658487698    0.7072720266
C       -2.0982933924    0.0668628127    0.7404170262
H       -2.5205807854    0.9736167129    1.1652478422
13   
From optimize.out: Frame 51 / 59, Energy=    -286.9509126454
C        1.8703730779    0.2879739033   -0.6018157477
C        1.2512850183   -0.9695283449   -0.6129384397
C       -0.0366120030   -1.0832383760   -0.1113153922
C       -0.7040376394    0.0633140724    0.3855124918
C        0.0450465779    1.2647601850    0.3679431487
N        1.2809857093    1.3898951945   -0.1148897294
H        2.8789840008    0.4166800799   -0.9913685480
H        1.7667086616   -1.8328041789   -1.0238931805
H       -0.5454077023   -2.0436598014   -0.1052861319
H       -2.7478748237   -0.6637462887    0.1789916792
H       -0.4127991686    2.1861909109    0.7270389819
C       -2.0853661627    0.0493564949    0.7484358915
H       -2.5612855461    0.9348061491    1.1535849762
13   
From optimize.out: Frame 49 / 59, Energy=    -286.9504282442
C        1.8648887151    0.2842967455   -0.6095501305
C        1.2397351623   -0.9684921755   -0.6069191731
C       -0.0453791638   -1.0696838492   -0.0891543915
C       -0.6996291960    0.0814032748    0.3996204579
C        0.0582836425    1.2783757298    0.3710590694
N        1.2894215012    1.3943803491   -0.1274229926
H        2.8704648012    0.4012961488   -1.0101933213
H        1.7454216065   -1.8391262494   -1.0144483775
H       -0.5542223688   -2.0313409223   -0.0686437764
H       -2.6822524618   -0.6029689217    0.0847681971
H       -0.4006877761    2.2009433725    0.7265922543
C       -2.0756279377    0.0137925549    0.7616296566
H       -2.6104165246    0.8571239426    1.1826625276
13   
From optimize.out: Frame 46 / 59, Energy=    -286.9487713024
C        1.8465843453    0.2807593110   -0.6165114817
C        1.2347216616   -0.9717435898   -0.6093366763
C       -0.0449050773   -1.0816475114   -0.0730418029
C       -0.7091031973    0.0632504712    0.4115491028
C        0.0444630766    1.2640382488    0.3812758941
N        1.2707665135    1.3836560846   -0.1241106840
H        2.8485159038    0.4043499233   -1.0219331457
H        1.7426617142   -1.8381745077   -1.0231418906
H       -0.5441883027   -2.0507329913   -0.0441914164
H       -2.5669266322   -0.5421883530   -0.0023384116
H       -0.4074280720    2.1899834968    0.7379314786
C       -2.0721851027    0.0264748482    0.8103383521
H       -2.6429768308    0.8719745692    1.1735106816
13   
From optimize.out: Frame 45 / 59, Energy=    -286.9473994548
C        1.8332275631    0.2772167893   -0.6178272100
C        1.2219484586   -0.9730501202   -0.6040276781
C       -0.0556568717   -1.0895790902   -0.0635627624
C       -0.7240002700    0.0569056451    0.4159437618
C        0.0308348355    1.2614105378    0.3796449062
N        1.2560829312    1.3791912001   -0.1265194977
H        2.8353165868    0.3994805286   -1.0211011170
H        1.7322528568   -1.8383103525   -1.0180353564
H       -0.5335905875   -2.0709753477   -0.0373633865
H       -2.4556257975   -0.4449235761   -0.0814314246
H       -0.4265544530    2.1868298371    0.7320022889
C       -2.0623772635    0.0093133994    0.8454182841
H       -2.6518579889    0.8464905493    1.1968591916
13   
From optimize.out: Frame 44 / 59, Energy=    -286.9464088823
C        1.8271065763    0.2725757716   -0.6159826242
C        1.2119347414   -0.9732704669   -0.5963603394
C       -0.0656784083   -1.0945514319   -0.0601048633
C       -0.7359812254    0.0606551308    0.4150848698
C        0.0208321943    1.2634873095    0.3719332777
N        1.2470217488    1.3750665484   -0.1295074315
H        2.8302700050    0.3917048422   -1.0153285136
H        1.7260574859   -1.8367608628   -1.0099459142
H       -0.5383623598   -2.0788892599   -0.0373602575
H       -2.3566500092   -0.3282371542   -0.1310985436
H       -0.4417887501    2.1900166370    0.7166034215
C       -2.0615593943   -0.0330495085    0.8623210479
H       -2.6632026047    0.7912524448    1.2297458703
13   
From optimize.out: Frame 42 / 59, Energy=    -286.9428792819
C        1.8244021298    0.2688099507   -0.6127973333
C        1.1999259300   -0.9717372912   -0.5874095156
C       -0.0782497694   -1.0950636038   -0.0592158431
C       -0.7500328684    0.0701501696    0.4134987719
C        0.0149994122    1.2686522020    0.3631465559
N        1.2437497402    1.3747464096   -0.1318287433
H        2.8295329818    0.3813694505   -1.0085893552
H        1.7158447380   -1.8346597528   -1.0002597962
H       -0.5438967486   -2.0809403832   -0.0401951738
H       -2.2673780214   -0.2124997761   -0.1606746693
H       -0.4578118398    2.1926215518    0.7012234199
C       -2.0673387681   -0.0918336179    0.8661917024
H       -2.6637469161    0.7303846907    1.2569099796
13   
From optimize.out: Frame 41 / 59, Energy=    -286.9406135735
C        1.8190645027    0.2711042035   -0.6040146629
C        1.1923149942   -0.9747637081   -0.5806721244
C       -0.0843242759   -1.1065326152   -0.0665636231
C       -0.7788438508    0.0549191366    0.4135490691
C       -0.0025629670    1.2679151644    0.3580619047
N        1.2308529536    1.3770364155   -0.1248121298
H        2.8254329510    0.3855368055   -0.9985808073
H        1.7109318743   -1.8341216758   -0.9974495906
H       -0.5652072529   -2.0800045322   -0.0439000477
H       -2.1690130840   -0.1305295190   -0.1790980543
H       -0.4968020262    2.1814225281    0.6922163026
C       -2.0852103867   -0.1494625925    0.8751928534
H       -2.5966334322    0.7374803891    1.2560709104
13   
From optimize.out: Frame 40 / 59, Energy=    -286.9348164279
C        1.8121079316    0.2815357580   -0.5932744497
C        1.1952441339   -0.9810847479   -0.5798932087
C       -0.0809558948   -1.1309242437   -0.0782268210
C       -0.8059585849    0.0222087710    0.4110707144
C       -0.0250669238    1.2554514468    0.3501251443
N        1.2105825192    1.3806323224   -0.1154377211
H        2.8191379355    0.4092538126   -0.9843243952
H        1.7213118280   -1.8347914627   -0.9986860055
H       -0.6172815465   -2.0735412336   -0.0365274547
H       -2.0963081533   -0.1043790665   -0.2118090438
H       -0.5324555530    2.1623185555    0.6805842409
C       -2.1000392199   -0.1729838087    0.9043739926
H       -2.5003184720    0.7863038967    1.2520250075
13   
From optimize.out: Frame 39 / 59, Energy=    -286.9249236981
C        1.7999368582    0.2855554887   -0.5845550539
C        1.2001038241   -0.9910635255   -0.5819290034
C       -0.0739570824   -1.1544364030   -0.0919933790
C       -0.8321623647   -0.0139260061    0.4044312703
C       -0.0562367759    1.2403305444    0.3443811802
N        1.1798867091    1.3771630598   -0.1077238749
H        2.8077526881    0.4289763080   -0.9690668407
H        1.7392122458   -1.8372087553   -0.9992878472
H       -0.6248637180   -2.0876197119   -0.0460539182
H       -2.0489095106   -0.1078807865   -0.2512070343
H       -0.5742626039    2.1410700487    0.6740453098
C       -2.1138325700   -0.1484648655    0.9548800107
H       -2.4026676998    0.8675046041    1.2540791807
13   
From optimize.out: Frame 37 / 59, Energy=    -286.8930338260
C        1.7866162554    0.2862727635   -0.5755797641
C        1.2031192318   -1.0017421768   -0.5848871939
C       -0.0682143059   -1.1754650315   -0.1075828729
C       -0.8561117648   -0.0471599082    0.3941130167
C       -0.0895694684    1.2265228485    0.3389376045
N        1.1483726620    1.3700346913   -0.0981281519
H        2.7952404108    0.4441793584   -0.9527996848
H        1.7559037672   -1.8400186266   -1.0004201733
H       -0.6168004441   -2.1091562180   -0.0638709215
H       -1.9950893652   -0.1002216443   -0.2807945486
H       -0.6165070701    2.1215474282    0.6698359472
C       -2.1260019793   -0.1173629663    1.0101486761
H       -2.3209579294    0.9425694818    1.2510280663
13   
From optimize.out: Frame 36 / 59, Energy=    -286.8704750230
C        1.7886913323    0.2814272165   -0.5692050492
C        1.1947755967   -1.0039833428   -0.5822579743
C       -0.0802648949   -1.1736114993   -0.1185348770
C       -0.8540758435   -0.0331432629    0.3748225142
C       -0.0899758792    1.2363708061    0.3225309751
N        1.1546437086    1.3713800962   -0.0975914018
H        2.8009386113    0.4301704378   -0.9389100458
H        1.7492002919   -1.8446087465   -0.9914615974
H       -0.6004031398   -2.1237855951   -0.0881565017
H       -1.9290953149    0.0045628025   -0.2752424592
H       -0.6148638411    2.1335875904    0.6522009027
C       -2.1341348117   -0.1644085546    1.0289985786
H       -2.3854358157    0.8860420517    1.2828069359
13   
From optimize.out: Frame 35 / 59, Energy=    -286.8490951593
C        1.7942899899    0.2759743149   -0.5531677446
C        1.1885701640   -1.0057245675   -0.5804997273
C       -0.0944096936   -1.1720173773   -0.1426043815
C       -0.8594710488   -0.0217853009    0.3472938786
C       -0.0979690828    1.2466355959    0.2906232960
N        1.1562148921    1.3725826054   -0.1012180118
H        2.8151612379    0.4156352683   -0.9005136885
H        1.7477565347   -1.8483891949   -0.9794652353
H       -0.5979637702   -2.1321731643   -0.1298308494
H       -1.8806000127    0.0919488751   -0.2763506660
H       -0.6272403518    2.1468096520    0.6059662474
C       -2.1183650237   -0.2051159361    1.0815820366
H       -2.4259738350    0.8356192293    1.3381848458
13   
From optimize.out: Frame 33 / 59, Energy=    -286.8045011658
C        1.7970045311    0.2719229610   -0.5307479971
C        1.1861482971   -1.0079612257   -0.5806559786
C       -0.1070504872   -1.1733453995   -0.1767985899
C       -0.8781750373   -0.0206015563    0.3174168224
C       -0.1175659413    1.2543360489    0.2492358342
N        1.1446494662    1.3742723826   -0.1096158844
H        2.8299741345    0.4075271372   -0.8414594437
H        1.7557284654   -1.8515071720   -0.9627493764
H       -0.6124194982   -2.1327569476   -0.1782000636
H       -1.8737360991    0.1086733392   -0.3013886305
H       -0.6567541731    2.1570429736    0.5403977869
C       -2.0722260590   -0.2124911242    1.1625947345
H       -2.3955775991    0.8248885829    1.4119707861
13   
From optimize.out: Frame 31 / 59, Energy=    -286.7949180944
C        1.7960321043    0.2675877660   -0.5086609358
C        1.1818993342   -1.0104947025   -0.5790091260
C       -0.1214794957   -1.1727147474   -0.2093368936
C       -0.8965752940   -0.0157173119    0.2876999615
C       -0.1358238152    1.2649973602    0.2083107639
N        1.1322017055    1.3780232682   -0.1199052823
H        2.8394581040    0.3987442676   -0.7835802257
H        1.7618118016   -1.8560677096   -0.9405407121
H       -0.6258514657   -2.1328768684   -0.2251672324
H       -1.8725651875    0.1166943340   -0.3317594899
H       -0.6801319352    2.1719931767    0.4761754017
C       -2.0198657659   -0.2190738684    1.2312645177
H       -2.3591100904    0.8089050355    1.4945092530
13   
From optimize.out: Frame 28 / 59, Energy=    -286.7912666643
C        1.7931899640    0.2636170340   -0.4852764791
C        1.1772321366   -1.0125958199   -0.5756524840
C       -0.1358449145   -1.1711098361   -0.2404193977
C       -0.9142847010   -0.0106631448    0.2597117263
C       -0.1539476885    1.2752692337    0.1682336816
N        1.1189494109    1.3821111391   -0.1301208783
H        2.8455785858    0.3908555255   -0.7245174145
H        1.7659829788   -1.8599308378   -0.9182296423
H       -0.6389655962   -2.1318727234   -0.2740036381
H       -1.8786646647    0.1187078042   -0.3574319575
H       -0.7017237795    2.1876179220    0.4097106701
C       -1.9635041952   -0.2241949475    1.2896040449
H       -2.3139975363    0.7921886509    1.5783917686
13   
From optimize.out: Frame 27 / 59, Energy=    -286.7900535731
C        1.7890044832    0.2602847223   -0.4602888695
C        1.1722498080   -1.0139486113   -0.5712218749
C       -0.1495977040   -1.1690062651   -0.2703618954
C       -0.9314212006   -0.0069340596    0.2345157598
C       -0.1724571535    1.2838056644    0.1293963473
N        1.1048513869    1.3857361651   -0.1393715398
H        2.8491874911    0.3842660261   -0.6631537161
H        1.7683491628   -1.8622289766   -0.8984025949
H       -0.6513995202   -2.1297660558   -0.3258062294
H       -1.8911646183    0.1173775418   -0.3746120497
H       -0.7245401643    2.2010289089    0.3404129785
C       -1.9034444460   -0.2280050840    1.3412179191
H       -2.2596175252    0.7773900237    1.6576757651
13   
From optimize.out: Frame 26 / 59, Energy=    -286.7889181053
C        1.7835960829    0.2575629327   -0.4336272949
C        1.1670761668   -1.0145506447   -0.5660592512
C       -0.1625666047   -1.1664464273   -0.2992282531
C       -0.9476909055   -0.0046980840    0.2124575031
C       -0.1913640454    1.2905761728    0.0921213105
N        1.0899512371    1.3887891821   -0.1477393126
H        2.8502348703    0.3790872149   -0.5999400883
H        1.7693348031   -1.8629842808   -0.8812804454
H       -0.6641367726   -2.1257681887   -0.3799885149
H       -1.9089359232    0.1131649668   -0.3827684422
H       -0.7487481863    2.2116571835    0.2691205742
C       -1.8406391434   -0.2311321642    1.3864595921
H       -2.1961115790    0.7647421368    1.7304726226
13   
From optimize.out: Frame 24 / 59, Energy=    -286.7868211766
C        1.7769062889    0.2550486017   -0.4058259037
C        1.1613197380   -1.0146221656   -0.5609432761
C       -0.1753143309   -1.1631554842   -0.3276334700
C       -0.9627368885   -0.0030166838    0.1937745621
C       -0.2098906486    1.2964790077    0.0562757314
N        1.0749650122    1.3914543434   -0.1550792845
H        2.8488277157    0.3743578849   -0.5347014290
H        1.7689468138   -1.8626498709   -0.8667441106
H       -0.6770962160   -2.1197399672   -0.4369383167
H       -1.9301006385    0.1073712846   -0.3818643546
H       -0.7724685493    2.2206381906    0.1961330713
C       -1.7718511960   -0.2340841381    1.4288075068
H       -2.1315071008    0.7519189969    1.7947392736
13   
From optimize.out: Frame 23 / 59, Energy=    -286.7857853969
C        1.7684761803    0.2529441879   -0.3769147288
C        1.1550354778   -1.0142507374   -0.5557177778
C       -0.1876141408   -1.1596674733   -0.3550857595
C       -0.9768735011   -0.0024508457    0.1779751764
C       -0.2285962768    1.3010697614    0.0221017803
N        1.0590301916    1.3936227595   -0.1616654395
H        2.8442897668    0.3707306390   -0.4683019176
H        1.7677174538   -1.8612167444   -0.8541864312
H       -0.6896213244   -2.1122085880   -0.4953576069
H       -1.9534013797    0.1005904663   -0.3738660173
H       -0.7957501231    2.2273059439    0.1225388503
C       -1.7010978849   -0.2369049840    1.4660891562
H       -2.0615944395    0.7404356151    1.8523907153
13   
From optimize.out: Frame 22 / 59, Energy=    -286.7847226558
C        1.7585153984    0.2511395855   -0.3470351417
C        1.1482103327   -1.0134785945   -0.5503926687
C       -0.1995907786   -1.1559054792   -0.3814169151
C       -0.9898631226   -0.0025137235    0.1647602560
C       -0.2473654987    1.3047251654   -0.0105688299
N        1.0425622011    1.3954633585   -0.1678251453
H        2.8369305879    0.3676563124   -0.4009246712
H        1.7656859144   -1.8588585222   -0.8433163907
H       -0.7014631159   -2.1031326154   -0.5547449335
H       -1.9773839417    0.0929651687   -0.3600799565
H       -0.8183381248    2.2319097601    0.0482111347
C       -1.6306381552   -0.2397445854    1.4975453969
H       -1.9872616970    0.7297741696    1.9057878648
13   
From optimize.out: Frame 20 / 59, Energy=    -286.7824116067
C        1.7473197232    0.2492953714   -0.3161630576
C        1.1408430057   -1.0124451419   -0.5456216325
C       -0.2112530007   -1.1516864805   -0.4069586285
C       -1.0009650075   -0.0028970940    0.1552938933
C       -0.2655038141    1.3076587731   -0.0417048207
N        1.0265259305    1.3967302278   -0.1726136108
H        2.8270720330    0.3643814908   -0.3318438235
H        1.7628179807   -1.8554761276   -0.8356225606
H       -0.7128346239   -2.0916778280   -0.6168109861
H       -2.0014443316    0.0841972158   -0.3380176683
H       -0.8392430578    2.2345352055   -0.0283994373
C       -1.5567405910   -0.2418195039    1.5270020968
H       -1.9165942464    0.7192038915    1.9514602358
13   
From optimize.out: Frame 19 / 59, Energy=    -286.7811370778
C        1.7343124196    0.2475218881   -0.2837554373
C        1.1331140751   -1.0116044344   -0.5408440801
C       -0.2222055052   -1.1479554468   -0.4308125611
C       -1.0100447936   -0.0039695840    0.1490490129
C       -0.2835455003    1.3096146441   -0.0712779201
N        1.0097839298    1.3971514860   -0.1767313898
H        2.8140380862    0.3614703817   -0.2613541964
H        1.7597657290   -1.8507801978   -0.8317264739
H       -0.7235610298   -2.0783445384   -0.6803432650
H       -2.0240340954    0.0737432886   -0.3101776421
H       -0.8583707694    2.2348300006   -0.1067325653
C       -1.4829751365   -0.2423786180    1.5530218624
H       -1.8462774095    0.7107011303    1.9916846558
13   
From optimize.out: Frame 18 / 59, Energy=    -286.7797143714
C        1.7209246663    0.2459621391   -0.2522066492
C        1.1254156620   -1.0107260261   -0.5369406236
C       -0.2322846011   -1.1447456572   -0.4524025621
C       -1.0183808105   -0.0062634643    0.1464231984
C       -0.3022879942    1.3098323652   -0.0993534199
N        0.9937637860    1.3966707679   -0.1772608827
H        2.7992386425    0.3581253489   -0.1895764182
H        1.7574257688   -1.8440426274   -0.8328671761
H       -0.7329907327   -2.0630722731   -0.7441605437
H       -2.0456513182    0.0611420525   -0.2773492240
H       -0.8775454380    2.2307107061   -0.1885482513
C       -1.4102044264   -0.2398957760    1.5773108584
H       -1.7774232045    0.7063024442    2.0269316938
13   
From optimize.out: Frame 16 / 59, Energy=    -286.7763157357
C        1.7056525386    0.2444493461   -0.2186734876
C        1.1173216137   -1.0106073428   -0.5316079363
C       -0.2414373803   -1.1422736936   -0.4708031855
C       -1.0239949776   -0.0084343309    0.1472733153
C       -0.3199678144    1.3093577441   -0.1258176018
N        0.9773459737    1.3951058529   -0.1775967730
H        2.7812365908    0.3548233095   -0.1168906271
H        1.7549858203   -1.8351707834   -0.8393431857
H       -0.7425378635   -2.0445370823   -0.8085424261
H       -2.0631209063    0.0475473348   -0.2420274207
H       -0.8941489671    2.2227693675   -0.2741497645
C       -1.3397074422   -0.2359973324    1.5989624336
H       -1.7116271856    0.7029676106    2.0592166594
13   
From optimize.out: Frame 15 / 59, Energy=    -286.7742267587
C        1.6898024962    0.2433299071   -0.1846795013
C        1.1092582496   -1.0111481777   -0.5250130028
C       -0.2496065137   -1.1406875160   -0.4853385344
C       -1.0279195254   -0.0110514484    0.1519715045
C       -0.3370857373    1.3073384811   -0.1507725059
N        0.9614255564    1.3925792543   -0.1762447143
H        2.7612499793    0.3514978251   -0.0437683926
H        1.7530587370   -1.8233065782   -0.8520554736
H       -0.7517511227   -2.0226091835   -0.8723146074
H       -2.0771486991    0.0334919367   -0.2053172580
H       -0.9088873886    2.2086513486   -0.3647268169
C       -1.2733266621   -0.2302229331    1.6191243140
H       -1.6490693694    0.7021370838    2.0891349887
13   
From optimize.out: Frame 14 / 59, Energy=    -286.7717701305
C        1.6736661007    0.2427114831   -0.1502373445
C        1.1014221886   -1.0127304877   -0.5161337921
C       -0.2565871709   -1.1400997650   -0.4947575928
C       -1.0300619817   -0.0141225914    0.1610610826
C       -0.3533303878    1.3033996899   -0.1739249674
N        0.9463122049    1.3886112246   -0.1732380466
H        2.7398078629    0.3485672314    0.0286623832
H        1.7515126737   -1.8073663601   -0.8721488782
H       -0.7600667811   -1.9965181108   -0.9346627339
H       -2.0871489444    0.0194388194   -0.1691668209
H       -0.9211649553    2.1862132477   -0.4613223096
C       -1.2138649311   -0.2227432715    1.6386168686
H       -1.5904958784    0.7046388905    2.1172521515
13   
From optimize.out: Frame 12 / 59, Energy=    -286.7652594461
C        1.6589248848    0.2429158308   -0.1166650953
C        1.0946956968   -1.0156293159   -0.5042612587
C       -0.2618273335   -1.1403873587   -0.4971884301
C       -1.0306800982   -0.0181982715    0.1761160524
C       -0.3683797386    1.2962777409   -0.1946414074
N        0.9328500009    1.3826085551   -0.1678786123
H        2.7186788476    0.3466928091    0.0985385554
H        1.7500204514   -1.7856805706   -0.9015764314
H       -0.7662994653   -1.9648873911   -0.9941338918
H       -2.0929721199    0.0058992596   -0.1350613789
H       -0.9298469961    2.1508950864   -0.5652408113
C       -1.1657493235   -0.2131709597    1.6591803621
H       -1.5394148062    0.7126645856    2.1428123472
13   
From optimize.out: Frame 11 / 59, Energy=    -286.7608869882
C        1.6478375514    0.2438122599   -0.0849694601
C        1.0904987926   -1.0202069581   -0.4886113964
C       -0.2642943392   -1.1406713737   -0.4907782092
C       -1.0289609678   -0.0231134443    0.1989011064
C       -0.3805529837    1.2851468335   -0.2120191458
N        0.9225220705    1.3737432251   -0.1607489251
H        2.7009978277    0.3466497900    0.1617953237
H        1.7473601606   -1.7573600925   -0.9411982015
H       -0.7693253933   -1.9254361779   -1.0493773755
H       -2.0934979516   -0.0060121727   -0.1043708524
H       -0.9324368458    2.0985361000   -0.6760508930
C       -1.1350346346   -0.2016927476    1.6828770126
H       -1.5051132869    0.7266047583    2.1645510163
13   
From optimize.out: Frame 8 / 59, Energy=    -286.7408790062
C        1.6439368376    0.2452174931   -0.0583405332
C        1.0908625749   -1.0262265176   -0.4699193145
C       -0.2626526193   -1.1395945164   -0.4746161349
C       -1.0246343966   -0.0289240380    0.2302213094
C       -0.3879136181    1.2689722009   -0.2249873544
N        0.9176490151    1.3621106314   -0.1522089448
H        2.6916024118    0.3490455324    0.2116189082
H        1.7421265188   -1.7234705409   -0.9891750584
H       -0.7678548772   -1.8770671010   -1.0969906077
H       -2.0881060292   -0.0155697655   -0.0786658103
H       -0.9274342283    2.0265669203   -0.7878122245
C       -1.1287779791   -0.1880600849    1.7110422068
H       -1.4988036104    0.7469997862    2.1798335582
13   
From optimize.out: Frame 7 / 59, Energy=    -286.7309062951
C        1.6495355099    0.2469487774   -0.0398135110
C        1.0971293676   -1.0326815830   -0.4499359936
C       -0.2560672825   -1.1358394642   -0.4500938219
C       -1.0181163498   -0.0357768228    0.2682855071
C       -0.3884841928    1.2472550670   -0.2327129745
N        0.9200115355    1.3493329450   -0.1446342863
H        2.6943550744    0.3542545319    0.2406424305
H        1.7324756656   -1.6875768326   -1.0397257302
H       -0.7612806666   -1.8213857293   -1.1322674274
H       -2.0768582392   -0.0227335036   -0.0596305083
H       -0.9149863660    1.9376398097   -0.8876229654
C       -1.1506276219   -0.1723772703    1.7423737566
H       -1.5270864341    0.7729400750    2.1851355245
13   
From optimize.out: Frame 6 / 59, Energy=    -286.7185422012
C        1.6626790772    0.2492929958   -0.0287482914
C        1.1078382805   -1.0379331042   -0.4305468172
C       -0.2459385574   -1.1295634727   -0.4217969544
C       -1.0117013425   -0.0443786196    0.3087137178
C       -0.3831255452    1.2206356292   -0.2361160932
N        0.9284158680    1.3380441242   -0.1404093579
H        2.7075677825    0.3618827482    0.2501282213
H        1.7177539993   -1.6533479802   -1.0862971960
H       -0.7508303693   -1.7631368687   -1.1549701335
H       -2.0626903308   -0.0292202416   -0.0461244628
H       -0.8982981470    1.8402628808   -0.9671259609
C       -1.1921171551   -0.1548350195    1.7735660521
H       -1.5795535603    0.8022969283    2.1797272762
13   
From optimize.out: Frame 4 / 59, Energy=    -286.6839064120
C        1.6804572960    0.2528492875   -0.0225445241
C        1.1207210462   -1.0410783218   -0.4121982975
C       -0.2343156342   -1.1219112565   -0.3927744904
C       -1.0075523515   -0.0556021789    0.3491104903
C       -0.3739581563    1.1898210699   -0.2364715414
N        0.9408016961    1.3295370891   -0.1396857453
H        2.7274531804    0.3714630692    0.2464151894
H        1.6986546312   -1.6212741546   -1.1273211319
H       -0.7380443680   -1.7053939932   -1.1684858212
H       -2.0486715337   -0.0373002568   -0.0356020464
H       -0.8795114480    1.7398490635   -1.0287711957
C       -1.2431938152   -0.1350405567    1.8031391936
H       -1.6428405428    0.8340811394    2.1651899207
13   
From optimize.out: Frame 3 / 59, Energy=    -286.6589474705
C        1.7018365592    0.2580093275   -0.0199496567
C        1.1345478879   -1.0417287652   -0.3949101986
C       -0.2225974018   -1.1138278787   -0.3640850776
C       -1.0069695823   -0.0702404141    0.3887623543
C       -0.3621484028    1.1552454170   -0.2341269612
N        0.9564485296    1.3241350298   -0.1421302949
H        2.7523160012    0.3829164373    0.2328841590
H        1.6760972582   -1.5906049785   -1.1627834881
H       -0.7240618452   -1.6496299988   -1.1748417840
H       -2.0367191806   -0.0487331406   -0.0266361303
H       -0.8589230826    1.6388310848   -1.0753928283
C       -1.2994136264   -0.1125079554    1.8308673558
H       -1.7104131144    0.8681358349    2.1423425505
13   