13   
From optimize.out: Frame 1 / 1, Energy=    -286.9243472835
C        0.0356680000   -0.1127010000   -0.0000000000
C       -0.1315280000    0.3471560000   -0.0000000000
C       -0.1114010000    0.0935800000    0.0000000000
C       -0.1314000000    0.3467370000    0.0000000000
C        0.0354990000   -0.1124790000   -0.0000000000
N       -0.4234670000    0.3869320000   -0.0000000000
H        0.1425900000    0.0034060000   -0.0000000000
H        0.1343920000   -0.0183420000   -0.0000000000
H        0.1419570000   -0.0066290000    0.0000000000
H        0.1343440000   -0.0183210000    0.0000000000
H        0.1426400000    0.0033940000   -0.0000000000
C       -0.1112430000    0.0939100000    0.0000000000
H        0.1419480000   -0.0066450000    0.0000000000
